Title
82281
    1SAPS     N    1   5.503   3.141  11.032  0.4814 -0.0268  0.1005
    1SAPS   HN1    2   5.434   3.201  11.080 -0.2064  0.0895 -1.0016
    1SAPS   HN2    3   5.566   3.210  10.985 -0.2790  1.0260  0.6097
    1SAPS   HN3    4   5.439   3.089  10.969 -1.4694  4.5995 -2.1949
    1SAPS   C12    5   5.572   3.061  11.131 -0.5233 -0.1269 -0.1098
    1SAPS  H12A    6   5.633   3.129  11.190 -0.3541  1.2278 -1.7640
    1SAPS   C13    7   5.487   2.990  11.243  0.3649  0.3198  0.0266
    1SAPS  O13A    8   5.369   3.020  11.261 -0.4417  0.0471 -0.4390
    1SAPS  O13B    9   5.552   2.942  11.343 -0.1458 -0.1003  0.4076
    1SAPS   C11   10   5.659   2.955  11.056  0.6386  0.0016 -0.2308
    1SAPS  H11A   11   5.585   2.888  11.008 -0.7598  0.6781  0.9140
    1SAPS  H11B   12   5.709   2.894  11.135  1.3115 -0.4936 -1.0128
    1SAPS     P   13   5.882   2.969  10.918  0.1661 -0.2275  0.1372
    1SAPS   O13   14   5.957   3.088  10.874  0.1087  0.4230 -0.1013
    1SAPS   O14   15   5.942   2.875  11.016  0.4029  0.1729  0.2962
    1SAPS   O12   16   5.742   3.019  10.963  0.3653 -0.6081 -0.3112
    1SAPS   O11   17   5.833   2.881  10.794 -0.7430 -0.3970 -0.4985
    1SAPS    C1   18   5.720   2.928  10.717  0.1687  0.9022  0.2831
    1SAPS    HA   19   5.634   2.859  10.729  0.3436  1.0340  2.8828
    1SAPS    HB   20   5.690   3.031  10.744 -1.1921  0.6428 -0.2127
    1SAPS    C2   21   5.746   2.950  10.570 -0.1509  0.0251 -0.0456
    1SAPS    HS   22   5.796   3.048  10.554 -1.0338  0.6483  0.9147
    1SAPS   O21   23   5.618   2.932  10.502 -0.0317  0.9733  0.4862
    1SAPS   C21   24   5.555   3.047  10.485 -0.4458 -0.1937  0.5652
    1SAPS   O22   25   5.588   3.148  10.543 -0.5005 -0.0694  0.1398
    1SAPS   C22   26   5.444   3.042  10.387 -0.1515  0.9127 -0.0076
    1SAPS   H2R   27   5.362   2.985  10.435 -0.0678  1.5686  0.9517
    1SAPS   H2S   28   5.411   3.148  10.381 -0.5700  0.8312  0.7696
    1SAPS    C3   29   5.844   2.845  10.520 -0.5527 -0.2919 -1.0917
    1SAPS    HX   30   5.807   2.741  10.535 -0.3797 -0.5571 -2.3457
    1SAPS    HY   31   5.939   2.854  10.576 -2.6132  0.7896  2.5467
    1SAPS   O31   32   5.873   2.853  10.382  0.0092 -0.1286  0.3087
    1SAPS   C31   33   5.956   2.945  10.347  0.3851 -0.2492 -0.1102
    1SAPS   O32   34   6.002   3.030  10.422 -0.1626 -0.0269 -0.0393
    1SAPS   C32   35   5.983   2.924  10.198  0.5725  0.0832 -0.5900
    1SAPS   H2X   36   5.892   2.913  10.135  1.6015 -2.4936 -1.7838
    1SAPS   H2Y   37   6.043   2.834  10.174 -1.2988 -1.6079  0.7087
    1SAPS   C23   38   5.480   2.974  10.258  0.4188  0.3976  0.0625
    1SAPS   H3R   39   5.389   2.950  10.198  1.2181 -3.4431  0.1724
    1SAPS   H3S   40   5.525   2.874  10.269 -0.7207 -0.2265 -0.7139
    1SAPS   C24   41   5.573   3.059  10.171 -0.2621 -0.1149  0.1757
    1SAPS   H4R   42   5.605   3.000  10.082 -2.2100  0.2738 -0.8386
    1SAPS   H4S   43   5.656   3.076  10.242 -2.2142 -1.1305  2.9095
    1SAPS   C25   44   5.525   3.200  10.126 -0.3241 -0.3002 -0.3789
    1SAPS   H5R   45   5.520   3.279  10.203 -0.1842 -0.7642  0.1141
    1SAPS   C26   46   5.471   3.226  10.004 -0.1376  0.0609  0.4810
    1SAPS   H6R   47   5.452   3.330   9.976  0.4800 -0.4875 -2.3345
    1SAPS   C27   48   5.452   3.127   9.889  0.6258  0.3068 -0.0095
    1SAPS   H7R   49   5.364   3.159   9.829  0.9408 -1.6036 -1.5933
    1SAPS   H7S   50   5.430   3.022   9.919 -1.5902 -0.3716 -3.3777
    1SAPS   C28   51   5.570   3.112   9.795 -0.0912 -0.4100 -0.2061
    1SAPS   H8R   52   5.667   3.135   9.840 -0.1490  0.5830 -0.5596
    1SAPS   C29   53   5.558   3.089   9.665 -0.3324  0.0951 -0.2739
    1SAPS   H9R   54   5.649   3.082   9.603  0.7797  2.3344  0.9612
    1SAPS  C210   55   5.438   3.069   9.597 -0.0017  0.2117 -0.0607
    1SAPS  H10R   56   5.355   3.032   9.661  0.9778  0.8037  1.6428
    1SAPS  H10S   57   5.449   2.985   9.525  1.1178  0.3453 -0.0549
    1SAPS  C211   58   5.407   3.196   9.524 -0.3153  0.0118  0.2840
    1SAPS  H11R   59   5.389   3.281   9.590  3.3187  1.3785 -0.2471
    1SAPS  C212   60   5.409   3.217   9.392  0.3575  0.1507  0.7228
    1SAPS  H12R   61   5.392   3.317   9.350 -1.3552 -0.2196  0.4543
    1SAPS  C213   62   5.434   3.118   9.282 -0.6068 -0.3273  0.2055
    1SAPS  H13R   63   5.343   3.124   9.217  0.6887  0.4434 -1.6163
    1SAPS  H13S   64   5.458   3.015   9.313 -0.0734 -0.5606 -0.9304
    1SAPS  C214   65   5.561   3.161   9.205 -0.3232 -0.0790 -0.2584
    1SAPS  H14R   66   5.649   3.105   9.238  0.0623  0.4851 -0.3010
    1SAPS  C215   67   5.577   3.247   9.103 -0.0065 -0.0459 -0.0324
    1SAPS  H15R   68   5.672   3.277   9.057 -1.0562  3.0638 -0.4614
    1SAPS  C216   69   5.471   3.337   9.033  0.1405 -0.3295  0.0477
    1SAPS  H16R   70   5.502   3.442   9.052  1.6218 -0.8192  0.4434
    1SAPS  H16S   71   5.366   3.318   9.064  0.0022 -1.6144 -1.1087
    1SAPS  C217   72   5.448   3.319   8.877 -0.2868  0.1275 -0.2146
    1SAPS  H17R   73   5.388   3.400   8.829 -0.3916 -0.2730 -0.7763
    1SAPS  H17S   74   5.390   3.225   8.862  0.4555 -0.2706 -0.6608
    1SAPS  C218   75   5.578   3.299   8.796  0.3117  0.4447 -0.5121
    1SAPS  H18R   76   5.659   3.318   8.869  0.3482 -1.6701  0.0380
    1SAPS  H18S   77   5.590   3.378   8.718 -1.2841  0.0566 -1.2075
    1SAPS  C219   78   5.587   3.154   8.742  0.1145 -0.0380 -0.2387
    1SAPS  H19R   79   5.494   3.137   8.684  0.0972 -1.4807  0.1942
    1SAPS  H19S   80   5.585   3.076   8.821  4.3833  0.1586  0.2792
    1SAPS  C220   81   5.707   3.129   8.657 -0.6384  0.3958 -0.2701
    1SAPS  H20R   82   5.787   3.112   8.732 -1.0741 -1.3506 -0.1491
    1SAPS  H20S   83   5.742   3.212   8.593  0.2645  2.4680  2.6845
    1SAPS  H20T   84   5.689   3.046   8.586  0.0884 -1.2021  1.3314
    1SAPS   C33   85   6.063   3.048  10.143  0.5201  1.1557 -0.5600
    1SAPS   H3X   86   6.169   3.019  10.159 -0.4689 -2.1674  0.8503
    1SAPS   H3Y   87   6.022   3.134  10.202 -0.9959 -0.5075  0.9628
    1SAPS   C34   88   6.033   3.084   9.993  0.0430 -0.0747 -1.0169
    1SAPS   H4X   89   6.113   3.158   9.973 -0.7761  0.6336 -1.7279
    1SAPS   H4Y   90   5.929   3.122   9.987 -0.0111  0.3871  1.6430
    1SAPS   C35   91   6.060   2.971   9.888  0.3168  0.0901  0.0335
    1SAPS   H5X   92   6.007   2.878   9.918  1.4176 -0.2892  0.8704
    1SAPS   H5Y   93   6.165   2.940   9.865 -0.9275 -1.9247 -4.0224
    1SAPS   C36   94   6.001   3.016   9.749  0.3816 -0.3021 -0.3881
    1SAPS   H6X   95   5.893   3.024   9.773  0.7641 -0.8984  1.8255
    1SAPS   H6Y   96   6.018   2.933   9.678 -0.5207 -0.0109 -0.9546
    1SAPS   C37   97   6.053   3.143   9.689 -0.0044 -0.2881  0.4920
    1SAPS   H7X   98   6.163   3.152   9.676 -0.0782 -2.3755 -2.8200
    1SAPS   H7Y   99   6.014   3.226   9.751 -0.3689 -0.6002  0.6850
    1SAPS   C38  100   5.982   3.173   9.561 -0.0951 -0.2634  1.5984
    1SAPS   H8X  101   5.982   3.282   9.541  0.3501 -0.7252 -1.2889
    1SAPS   H8Y  102   5.872   3.159   9.562 -0.5400  2.7037  1.3685
    1SAPS   C39  103   6.050   3.110   9.438  0.5640 -0.3576  0.6946
    1SAPS   H9X  104   6.048   3.000   9.452 -0.3546 -0.5772 -0.8668
    1SAPS   H9Y  105   6.150   3.154   9.421 -0.2341  1.0957 -0.4530
    1SAPS  C310  106   5.960   3.131   9.310 -0.1504 -0.4270 -0.0353
    1SAPS  H10X  107   5.943   3.241   9.307  1.2335 -0.1669 -3.1003
    1SAPS  H10Y  108   5.867   3.076   9.333  0.1274 -0.6836  0.4804
    1SAPS  C311  109   6.022   3.075   9.186  0.0781 -0.0245 -0.4131
    1SAPS  H11X  110   5.932   3.061   9.123  0.1298  0.5866 -0.6278
    1SAPS  H11Y  111   6.076   2.980   9.203 -0.9189 -0.4690  0.3582
    1SAPS  C312  112   6.107   3.175   9.103  0.0420 -0.5519  0.3165
    1SAPS  H12X  113   6.212   3.184   9.138  0.9990 -2.3630 -1.8352
    1SAPS  H12Y  114   6.046   3.268   9.102 -0.1094 -0.6414  1.0529
    1SAPS  C313  115   6.123   3.130   8.953  0.2680 -0.1738 -0.2076
    1SAPS  H13X  116   6.028   3.104   8.900  0.8092  0.2367 -1.4166
    1SAPS  H13Y  117   6.183   3.037   8.944 -0.0785 -0.4515  0.3142
    1SAPS  C314  118   6.202   3.238   8.871  0.3351 -0.2234 -0.3453
    1SAPS  H14X  119   6.293   3.241   8.934 -0.5442  4.2661  1.0478
    1SAPS  H14Y  120   6.156   3.335   8.896 -0.6450 -1.0024  1.0212
    1SAPS  C315  121   6.221   3.202   8.725 -0.2889 -0.2872  0.0961
    1SAPS  H15X  122   6.194   3.095   8.714 -0.2321 -0.3181  0.2527
    1SAPS  H15Y  123   6.318   3.230   8.678 -1.5435  1.3733 -1.6595
    1SAPS  C316  124   6.114   3.263   8.630  0.5786 -0.6336 -0.4734
    1SAPS  H16X  125   6.126   3.373   8.625 -0.8877 -0.4223  0.2214
    1SAPS  H16Y  126   6.009   3.243   8.661 -0.5453  4.7153  0.1981
    1SAPS  C317  127   6.123   3.218   8.484 -0.6906 -0.3814  0.0201
    1SAPS  H17X  128   6.227   3.185   8.468  0.2981  1.9950  1.1005
    1SAPS  H17Y  129   6.097   3.296   8.409 -0.4452 -1.1869 -0.9207
    1SAPS  C318  130   6.031   3.103   8.458 -0.2564 -0.2070  0.2054
    1SAPS  H18X  131   6.018   3.081   8.350 -2.3592 -1.4915  0.6696
    1SAPS  H18Y  132   5.928   3.118   8.498  0.0758  0.8231  0.7211
    1SAPS  H18Z  133   6.071   3.008   8.498  0.5038  0.1123  0.2300
    2SAPS     N  134   4.641   4.480  10.580  0.4890  0.1544 -0.5051
    2SAPS   HN1  135   4.613   4.579  10.599  2.6074  0.7330 -0.1751
    2SAPS   HN2  136   4.710   4.477  10.502 -0.3039  0.8220 -1.2617
    2SAPS   HN3  137   4.558   4.423  10.555  2.2482 -2.8716  0.0773
    2SAPS   C12  138   4.699   4.416  10.700 -0.0792  0.1263 -0.3943
    2SAPS  H12A  139   4.735   4.324  10.656  1.7183  0.7696 -0.3364
    2SAPS   C13  140   4.807   4.503  10.772  0.0905 -0.1957  0.0025
    2SAPS  O13A  141   4.834   4.623  10.746 -0.1564  0.5412  0.1043
    2SAPS  O13B  142   4.846   4.445  10.874  0.5863  0.2631 -0.2017
    2SAPS   C11  143   4.586   4.386  10.803  0.2839 -0.5409  0.2417
    2SAPS  H11A  144   4.556   4.480  10.855  0.8997 -0.1964 -0.0123
    2SAPS  H11B  145   4.627   4.333  10.892 -1.6387 -3.8395 -0.6527
    2SAPS     P  146   4.506   4.149  10.742  0.0945  0.2345 -0.0917
    2SAPS   O13  147   4.618   4.099  10.818  0.0124 -0.0093 -0.1241
    2SAPS   O14  148   4.372   4.092  10.771  0.1445 -0.4002  0.9979
    2SAPS   O12  149   4.482   4.309  10.752 -0.1366  0.0325 -0.1065
    2SAPS   O11  150   4.540   4.146  10.585  0.0783 -0.1037  0.3240
    2SAPS    C1  151   4.646   4.077  10.527  0.2023  0.4858 -0.3814
    2SAPS    HA  152   4.730   4.062  10.598 -0.5895  1.9266  0.9244
    2SAPS    HB  153   4.615   3.976  10.495  3.4617  0.2004 -3.1893
    2SAPS    C2  154   4.696   4.146  10.401 -1.0252 -0.2912  0.4254
    2SAPS    HS  155   4.751   4.235  10.437 -0.4419 -0.6774  0.5164
    2SAPS   O21  156   4.582   4.170  10.310  0.1797  0.3857 -0.5412
    2SAPS   C21  157   4.581   4.284  10.241 -0.4396  0.0804 -0.1025
    2SAPS   O22  158   4.683   4.357  10.232  0.0069  0.4781  0.0541
    2SAPS   C22  159   4.442   4.306  10.178 -0.3939 -0.1204 -0.4069
    2SAPS   H2R  160   4.376   4.218  10.194 -2.7880  0.9911 -3.1717
    2SAPS   H2S  161   4.400   4.393  10.233  0.6711 -0.0216  0.2723
    2SAPS    C3  162   4.801   4.045  10.331  0.0474 -0.1364  0.3083
    2SAPS    HX  163   4.744   3.950  10.321 -0.3810  0.1963 -0.4852
    2SAPS    HY  164   4.883   4.006  10.395 -0.4923 -1.6955  0.1075
    2SAPS   O31  165   4.847   4.091  10.197  0.4443 -0.6365 -0.1308
    2SAPS   C31  166   4.947   4.184  10.207  0.8609 -0.1713  0.4355
    2SAPS   O32  167   5.002   4.218  10.309 -0.2501  0.7037 -0.4145
    2SAPS   C32  168   4.979   4.247  10.075  0.1115 -0.7431 -0.1936
    2SAPS   H2X  169   4.911   4.214   9.993  0.0234  1.0106 -0.8691
    2SAPS   H2Y  170   5.086   4.224  10.055  0.6099  2.1109 -1.2045
    2SAPS   C23  171   4.464   4.320  10.028  0.2388 -0.2355  0.2185
    2SAPS   H3R  172   4.524   4.241   9.980 -0.9728 -1.1190  0.1178
    2SAPS   H3S  173   4.503   4.421  10.002 -0.2010  0.0980  0.8147
    2SAPS   C24  174   4.337   4.309   9.936 -0.6852  1.0260  0.4315
    2SAPS   H4R  175   4.254   4.373   9.974 -1.5478  0.1700  0.0263
    2SAPS   H4S  176   4.310   4.201   9.934 -0.4347  0.9718 -0.4812
    2SAPS   C25  177   4.364   4.346   9.791 -0.0994  0.1813 -0.2245
    2SAPS   H5R  178   4.315   4.440   9.761  0.3784  0.4256 -0.2507
    2SAPS   C26  179   4.431   4.288   9.690 -0.3861  0.0119 -0.1192
    2SAPS   H6R  180   4.413   4.326   9.588 -2.4726 -2.4810 -0.8194
    2SAPS   C27  181   4.489   4.152   9.705  0.1690 -0.2533  0.1010
    2SAPS   H7R  182   4.458   4.070   9.637 -0.8333 -0.3841  0.7118
    2SAPS   H7S  183   4.469   4.108   9.805  2.1382  0.2077  0.7585
    2SAPS   C28  184   4.640   4.181   9.690  0.3344 -0.1697 -0.2548
    2SAPS   H8R  185   4.690   4.234   9.773 -1.8551  0.2481  0.8928
    2SAPS   C29  186   4.709   4.148   9.579 -0.0624 -0.1993 -0.4249
    2SAPS   H9R  187   4.813   4.183   9.579  0.3726 -1.4384 -0.7179
    2SAPS  C210  188   4.660   4.088   9.450  0.3378 -0.2757 -0.4789
    2SAPS  H10R  189   4.551   4.070   9.443 -0.4088  3.6316 -1.4063
    2SAPS  H10S  190   4.705   3.986   9.444  1.0050 -0.0479  0.5218
    2SAPS  C211  191   4.699   4.182   9.340 -0.3587 -0.2823 -0.6078
    2SAPS  H11R  192   4.804   4.215   9.342 -0.0945 -1.1064  0.6453
    2SAPS  C212  193   4.613   4.237   9.259  0.6446 -0.5082  0.4365
    2SAPS  H12R  194   4.648   4.320   9.195 -0.2485  1.6570  2.5809
    2SAPS  C213  195   4.467   4.210   9.259  0.1346 -0.1279  0.0255
    2SAPS  H13R  196   4.430   4.225   9.363  0.3670 -0.1973  0.1207
    2SAPS  H13S  197   4.445   4.104   9.234 -0.9431  0.5356 -2.0823
    2SAPS  C214  198   4.372   4.295   9.181 -0.4160 -0.2196  0.6835
    2SAPS  H14R  199   4.319   4.239   9.103  0.9570 -3.1526  1.7408
    2SAPS  C215  200   4.358   4.427   9.197 -0.4183  0.0043  0.7082
    2SAPS  H15R  201   4.277   4.482   9.147 -0.4679 -1.2288 -0.6595
    2SAPS  C216  202   4.428   4.516   9.294  0.0897 -0.1419 -0.1269
    2SAPS  H16R  203   4.465   4.601   9.234 -1.3990 -0.7135 -1.9583
    2SAPS  H16S  204   4.514   4.466   9.343  1.0251 -0.4591 -1.9958
    2SAPS  C217  205   4.341   4.570   9.405 -0.0302 -0.3853 -0.2845
    2SAPS  H17R  206   4.401   4.590   9.497 -0.3731 -1.6576  0.2363
    2SAPS  H17S  207   4.265   4.503   9.450  0.4079 -0.6363  0.0973
    2SAPS  C218  208   4.268   4.701   9.366 -0.1618 -0.4522  1.0938
    2SAPS  H18R  209   4.179   4.681   9.302  1.0841 -1.9754 -0.2504
    2SAPS  H18S  210   4.344   4.754   9.303  1.1527 -2.5427  0.8398
    2SAPS  C219  211   4.213   4.789   9.475 -0.3268  0.3168 -0.3261
    2SAPS  H19R  212   4.183   4.715   9.553 -0.0069 -0.0648 -0.5593
    2SAPS  H19S  213   4.118   4.835   9.441 -0.6753 -2.0238 -2.8386
    2SAPS  C220  214   4.305   4.895   9.538 -0.1396 -0.6318  0.4046
    2SAPS  H20R  215   4.378   4.849   9.609 -0.8576 -1.2344  0.7688
    2SAPS  H20S  216   4.250   4.966   9.603  3.0106  3.2406 -0.8013
    2SAPS  H20T  217   4.357   4.955   9.461 -0.9824  0.1541  0.4248
    2SAPS   C33  218   4.982   4.398  10.082 -0.1846  0.0553  0.3132
    2SAPS   H3X  219   5.060   4.431  10.154  2.2668 -1.4226 -1.5052
    2SAPS   H3Y  220   4.881   4.430  10.116 -0.5067 -3.3813  3.2492
    2SAPS   C34  221   5.038   4.448   9.947  0.4060 -0.4599  0.0894
    2SAPS   H4X  222   5.145   4.421   9.934  0.3017 -0.4143 -0.9827
    2SAPS   H4Y  223   5.034   4.559   9.945  0.8880 -0.3680  2.3083
    2SAPS   C35  224   4.965   4.398   9.828  0.2611  0.1974 -0.4995
    2SAPS   H5X  225   4.854   4.404   9.838  0.3698  1.3171  0.1625
    2SAPS   H5Y  226   4.991   4.292   9.804  2.1050  0.9937 -2.3138
    2SAPS   C36  227   4.992   4.490   9.711  0.5255 -0.3295  0.3685
    2SAPS   H6X  228   5.098   4.509   9.683 -0.3801  2.9534 -1.3220
    2SAPS   H6Y  229   4.944   4.589   9.717  0.0840 -0.1055 -3.7893
    2SAPS   C37  230   4.939   4.431   9.580  0.1127  0.9191  0.2426
    2SAPS   H7X  231   4.828   4.419   9.574  0.2108 -0.9653  1.4143
    2SAPS   H7Y  232   4.970   4.324   9.572 -0.1345  0.7769  1.0887
    2SAPS   C38  233   5.001   4.502   9.456  0.2799 -0.3585 -0.3311
    2SAPS   H8X  234   5.101   4.457   9.439  1.5386  1.0150  2.5792
    2SAPS   H8Y  235   5.021   4.610   9.475 -3.3407  0.4792 -0.5475
    2SAPS   C39  236   4.926   4.488   9.325 -0.6602  1.0021 -0.8089
    2SAPS   H9X  237   4.831   4.544   9.345 -0.3811  1.1272  0.2062
    2SAPS   H9Y  238   4.916   4.380   9.300  0.4200  0.4334  1.0360
    2SAPS  C310  239   4.998   4.552   9.210 -0.3426  0.0215 -0.4716
    2SAPS  H10X  240   5.095   4.504   9.186 -0.2711  0.5078 -1.1691
    2SAPS  H10Y  241   5.025   4.655   9.243  0.4396 -0.3336  0.0521
    2SAPS  C311  242   4.907   4.554   9.089 -0.2957  0.1335  0.2958
    2SAPS  H11X  243   4.944   4.622   9.010  0.2485 -1.5902 -0.9887
    2SAPS  H11Y  244   4.812   4.599   9.126 -0.2569  1.6356 -1.3140
    2SAPS  C312  245   4.874   4.422   9.016  0.8817  1.1436 -0.3214
    2SAPS  H12X  246   4.791   4.434   8.942  0.5732 -0.1393 -0.1975
    2SAPS  H12Y  247   4.828   4.360   9.096  0.3252 -0.1922 -1.6241
    2SAPS  C313  248   5.007   4.371   8.956  0.2411  0.7240 -0.1674
    2SAPS  H13X  249   5.082   4.371   9.039  0.3455 -0.6585 -0.2396
    2SAPS  H13Y  250   5.049   4.440   8.880  2.5419 -0.6498 -0.2483
    2SAPS  C314  251   4.991   4.233   8.891 -0.0792 -0.5527 -0.1399
    2SAPS  H14X  252   5.088   4.189   8.861 -0.6496 -2.6002  0.8260
    2SAPS  H14Y  253   4.934   4.237   8.796 -0.1780  0.7022 -0.0441
    2SAPS  C315  254   4.913   4.140   8.983  0.1075 -0.2520 -0.2002
    2SAPS  H15X  255   4.806   4.162   9.003 -0.4471 -1.8696 -1.2498
    2SAPS  H15Y  256   4.971   4.155   9.077  0.4014 -0.9847 -0.2570
    2SAPS  C316  257   4.921   4.003   8.943 -0.4446  0.5033  0.2678
    2SAPS  H16X  258   5.030   3.982   8.940 -0.6042 -0.2773 -1.2091
    2SAPS  H16Y  259   4.889   3.975   8.840  3.2681 -0.3935 -0.8281
    2SAPS  C317  260   4.846   3.913   9.039 -0.3672 -0.2098  0.3981
    2SAPS  H17X  261   4.738   3.914   9.013 -0.0387  1.9701 -1.1157
    2SAPS  H17Y  262   4.859   3.961   9.138  1.3619  1.6204 -0.6561
    2SAPS  C318  263   4.889   3.767   9.042 -0.3629  0.3670  0.3250
    2SAPS  H18X  264   4.879   3.720   8.942  0.4394  1.9398 -0.5386
    2SAPS  H18Y  265   4.828   3.705   9.111 -0.8332  2.7443  2.1763
    2SAPS  H18Z  266   4.987   3.758   9.092 -1.3445  0.2782  2.3230
    3SAPS     N  267   4.279   6.358  11.039 -0.5141  0.0413 -0.1322
    3SAPS   HN1  268   4.352   6.334  10.969  1.1808  1.7601  0.9679
    3SAPS   HN2  269   4.321   6.404  11.122  0.1080 -1.5021  0.4495
    3SAPS   HN3  270   4.236   6.272  11.080  3.1198 -1.4893  0.8292
    3SAPS   C12  271   4.185   6.450  10.972 -0.2360  0.4631 -0.5097
    3SAPS  H12A  272   4.160   6.401  10.880  1.4925 -1.9746  0.2272
    3SAPS   C13  273   4.063   6.496  11.055 -0.1454 -0.2923  0.6334
    3SAPS  O13A  274   4.033   6.435  11.162  0.0414  0.1331 -0.0506
    3SAPS  O13B  275   3.990   6.589  11.004 -0.0704  0.2916 -0.1171
    3SAPS   C11  276   4.271   6.575  10.931  0.7736  0.4517 -0.5144
    3SAPS  H11A  277   4.302   6.639  11.016  0.9592  2.2684 -1.8685
    3SAPS  H11B  278   4.201   6.639  10.873 -0.1612 -3.5304 -4.3070
    3SAPS     P  279   4.524   6.613  10.869 -0.0345  0.2327  0.0531
    3SAPS   O13  280   4.496   6.757  10.899  0.5725  0.6347 -0.1474
    3SAPS   O14  281   4.599   6.538  10.975 -0.3346 -0.4382  0.7232
    3SAPS   O12  282   4.381   6.544  10.841  0.5393  0.2306  0.3261
    3SAPS   O11  283   4.602   6.611  10.737 -0.9056  0.2103  0.8324
    3SAPS    C1  284   4.568   6.515  10.635 -0.0214  0.3945 -0.5314
    3SAPS    HA  285   4.464   6.476  10.646  0.9156 -1.4644  4.0525
    3SAPS    HB  286   4.572   6.559  10.533 -1.5655  1.3137 -0.2312
    3SAPS    C2  287   4.678   6.411  10.628 -0.4292  0.3229  0.0801
    3SAPS    HS  288   4.692   6.372  10.731 -0.0291 -0.0609 -0.1195
    3SAPS   O21  289   4.797   6.486  10.590  0.0747 -0.1741 -0.1864
    3SAPS   C21  290   4.900   6.425  10.563  0.0545  0.5845  0.2692
    3SAPS   O22  291   4.923   6.306  10.576  0.0117  0.5538  1.1622
    3SAPS   C22  292   5.005   6.525  10.506  0.5514  0.2199  0.0572
    3SAPS   H2R  293   4.957   6.623  10.488  1.5381  0.7805  0.3955
    3SAPS   H2S  294   5.079   6.531  10.590  2.1695 -1.3268 -1.1791
    3SAPS    C3  295   4.639   6.305  10.519 -0.6401  0.2508  0.1766
    3SAPS    HX  296   4.540   6.280  10.562  0.3078 -0.5672  2.0456
    3SAPS    HY  297   4.701   6.213  10.526 -1.5283 -0.3148  0.7094
    3SAPS   O31  298   4.651   6.362  10.388 -0.4316 -0.0807  0.1402
    3SAPS   C31  299   4.594   6.287  10.303 -0.2050 -0.4523 -0.5252
    3SAPS   O32  300   4.520   6.190  10.325 -0.7501  0.0791  0.6342
    3SAPS   C32  301   4.635   6.338  10.163  0.0155  1.2990 -0.2638
    3SAPS   H2X  302   4.746   6.329  10.158 -0.0133  0.8634 -0.2084
    3SAPS   H2Y  303   4.610   6.446  10.154 -2.9081  0.8632  1.3947
    3SAPS   C23  304   5.064   6.479  10.374 -0.1300 -0.2899 -0.0026
    3SAPS   H3R  305   5.135   6.395  10.390  1.9575  1.4240  0.2227
    3SAPS   H3S  306   5.136   6.560  10.345  0.5857 -1.0797 -0.4936
    3SAPS   C24  307   4.964   6.449  10.261 -0.6162  0.0337  0.2985
    3SAPS   H4R  308   4.902   6.362  10.293 -0.9286  0.7054  1.6164
    3SAPS   H4S  309   5.013   6.422  10.166  0.6614  0.7182  0.7475
    3SAPS   C25  310   4.878   6.572  10.246 -0.7346  0.1231  0.1144
    3SAPS   H5R  311   4.814   6.576  10.335  0.7839 -0.5544  1.2927
    3SAPS   C26  312   4.881   6.668  10.153  0.4067  0.6491  0.3567
    3SAPS   H6R  313   4.808   6.750  10.158  0.4195  0.7785 -1.1163
    3SAPS   C27  314   4.970   6.670  10.036 -0.1903 -0.1669  0.0323
    3SAPS   H7R  315   4.969   6.569   9.989  2.7849 -0.5677  0.6447
    3SAPS   H7S  316   5.073   6.684  10.076 -0.8133 -1.6475  2.3684
    3SAPS   C28  317   4.934   6.779   9.939  0.3383  0.2186 -0.0102
    3SAPS   H8R  318   4.927   6.877   9.987  0.0454  0.9820 -1.5370
    3SAPS   C29  319   4.900   6.768   9.814  0.3507 -0.3197 -0.2011
    3SAPS   H9R  320   4.893   6.857   9.749 -1.2733 -0.8861 -0.8695
    3SAPS  C210  321   4.904   6.649   9.727  0.1684  0.1974  0.5247
    3SAPS  H10R  322   4.989   6.585   9.759  1.4592  1.2984 -0.5566
    3SAPS  H10S  323   4.939   6.687   9.629 -1.4336  0.9801  0.2152
    3SAPS  C211  324   4.769   6.586   9.722  0.5205  0.1616 -0.1424
    3SAPS  H11R  325   4.743   6.539   9.818 -1.0966 -0.1062 -0.6792
    3SAPS  C212  326   4.681   6.587   9.626 -0.3659  0.0731  0.2248
    3SAPS  H12R  327   4.586   6.533   9.643 -1.0859  1.9352  2.7488
    3SAPS  C213  328   4.703   6.636   9.487  0.6172 -0.3019 -0.0758
    3SAPS  H13R  329   4.791   6.702   9.477  0.4788  0.2390  1.9348
    3SAPS  H13S  330   4.619   6.704   9.460  0.1828 -0.2351  1.3799
    3SAPS  C214  331   4.700   6.519   9.400  0.1285 -0.4942 -0.7743
    3SAPS  H14R  332   4.716   6.420   9.445  2.0062 -1.0699 -2.5502
    3SAPS  C215  333   4.669   6.516   9.274 -0.4261 -1.0909  0.6516
    3SAPS  H15R  334   4.680   6.428   9.208  1.3089  0.9726 -2.0566
    3SAPS  C216  335   4.632   6.641   9.193 -0.3514 -0.2205  0.5951
    3SAPS  H16R  336   4.676   6.732   9.239  0.2626  0.8834 -2.0037
    3SAPS  H16S  337   4.523   6.661   9.195 -0.4306 -0.6223  2.7557
    3SAPS  C217  338   4.682   6.631   9.042  0.3454 -0.1516 -0.7101
    3SAPS  H17R  339   4.652   6.532   9.000  0.8785 -0.5821 -0.1069
    3SAPS  H17S  340   4.791   6.646   9.051  0.0791  0.9076  1.4563
    3SAPS  C218  341   4.628   6.740   8.947  0.0434  0.1896 -0.6048
    3SAPS  H18R  342   4.656   6.837   8.993 -0.9666  1.0284 -1.7054
    3SAPS  H18S  343   4.517   6.740   8.949 -0.1438 -3.3996 -2.4425
    3SAPS  C219  344   4.689   6.730   8.807 -0.1548  0.4749  0.1304
    3SAPS  H19R  345   4.668   6.636   8.752 -2.3354  1.0193 -0.0434
    3SAPS  H19S  346   4.797   6.756   8.804  0.4566 -1.9130 -0.4382
    3SAPS  C220  347   4.619   6.833   8.711 -0.4510 -0.4014 -0.0909
    3SAPS  H20R  348   4.688   6.841   8.624  1.0800  0.6196  1.1668
    3SAPS  H20S  349   4.612   6.937   8.750  0.2964  0.3277 -1.7738
    3SAPS  H20T  350   4.516   6.808   8.676 -1.2631  0.8137  1.2728
    3SAPS   C33  351   4.549   6.256  10.058  0.0053  0.0808 -0.3940
    3SAPS   H3X  352   4.440   6.265  10.078 -0.1563  0.8698 -1.5055
    3SAPS   H3Y  353   4.575   6.149  10.047  0.2381  0.2383 -1.4999
    3SAPS   C34  354   4.562   6.316   9.914 -0.1390  0.0958 -0.2495
    3SAPS   H4X  355   4.666   6.313   9.878 -0.2766  1.3538 -0.8298
    3SAPS   H4Y  356   4.530   6.422   9.927 -2.9074 -0.6325 -0.4137
    3SAPS   C35  357   4.478   6.246   9.807 -0.3801  0.0091 -0.3418
    3SAPS   H5X  358   4.372   6.258   9.837 -0.3798 -2.0804  0.6748
    3SAPS   H5Y  359   4.506   6.138   9.808 -1.3115 -0.2330  0.3807
    3SAPS   C36  360   4.500   6.293   9.662  0.5875  0.1446 -0.0432
    3SAPS   H6X  361   4.610   6.302   9.649  1.0097 -0.0806  2.7240
    3SAPS   H6Y  362   4.446   6.389   9.648  0.3630  0.1624  0.8733
    3SAPS   C37  363   4.444   6.194   9.563 -0.5613  0.1393 -0.2338
    3SAPS   H7X  364   4.335   6.198   9.584 -0.6638  2.1655 -1.0042
    3SAPS   H7Y  365   4.478   6.090   9.583 -2.1943 -0.2876  0.5845
    3SAPS   C38  366   4.470   6.248   9.428 -0.5338  0.4554 -0.2109
    3SAPS   H8X  367   4.574   6.236   9.389 -0.8204  0.0277 -0.8745
    3SAPS   H8Y  368   4.449   6.357   9.424  1.7160  0.9127 -1.1584
    3SAPS   C39  369   4.380   6.188   9.327  0.2587  0.0830  0.8167
    3SAPS   H9X  370   4.272   6.214   9.337  0.3594  2.3548 -2.3948
    3SAPS   H9Y  371   4.388   6.077   9.324  2.0761  0.2089 -0.7210
    3SAPS  C310  372   4.424   6.236   9.187  0.1710  0.0379 -0.1945
    3SAPS  H10X  373   4.528   6.202   9.166 -0.7544 -2.9603 -0.4859
    3SAPS  H10Y  374   4.425   6.346   9.179 -0.8955 -0.0769 -4.0023
    3SAPS  C311  375   4.334   6.186   9.074  0.0218 -0.1812 -0.2299
    3SAPS  H11X  376   4.234   6.230   9.095  1.0715  2.3430 -0.1563
    3SAPS  H11Y  377   4.330   6.075   9.075 -1.5830 -0.1915 -1.6105
    3SAPS  C312  378   4.363   6.237   8.930  0.8908 -0.2463 -0.3033
    3SAPS  H12X  379   4.279   6.209   8.864  1.1418 -2.1461  0.1218
    3SAPS  H12Y  380   4.456   6.195   8.886  0.4810  0.8777 -2.3431
    3SAPS  C313  381   4.383   6.392   8.937 -0.2710  0.3246 -0.1949
    3SAPS  H13X  382   4.473   6.404   9.002 -2.0076 -0.8166  2.6002
    3SAPS  H13Y  383   4.299   6.444   8.987 -0.5624  0.6667 -1.0277
    3SAPS  C314  384   4.406   6.459   8.799  0.5961  0.8393 -0.3927
    3SAPS  H14X  385   4.497   6.425   8.745  0.8992  0.2199  0.4820
    3SAPS  H14Y  386   4.426   6.567   8.820 -1.9569  1.3101 -0.0179
    3SAPS  C315  387   4.285   6.461   8.709 -0.7679 -0.4462  0.7649
    3SAPS  H15X  388   4.197   6.506   8.759 -1.7031  0.1768 -1.3540
    3SAPS  H15Y  389   4.247   6.357   8.696  1.3096 -1.7390  3.7291
    3SAPS  C316  390   4.307   6.541   8.575  0.3367 -0.2565  0.1440
    3SAPS  H16X  391   4.403   6.597   8.582 -0.5560  1.4997 -0.8172
    3SAPS  H16Y  392   4.218   6.607   8.561  0.0802 -0.3271  1.3631
    3SAPS  C317  393   4.303   6.465   8.441 -0.5910 -1.1143  0.0510
    3SAPS  H17X  394   4.211   6.406   8.423 -0.8490 -0.3641 -1.1911
    3SAPS  H17Y  395   4.386   6.390   8.437 -0.0454 -0.9470  4.1383
    3SAPS  C318  396   4.310   6.549   8.311  0.0122 -0.1457 -0.5584
    3SAPS  H18X  397   4.234   6.630   8.314 -0.7078 -0.7730 -1.1779
    3SAPS  H18Y  398   4.283   6.490   8.220 -1.1169 -0.3757 -0.0930
    3SAPS  H18Z  399   4.409   6.596   8.296  0.3674 -0.8380 -0.4634
    4SAPS     N  400   1.796   6.402  11.099  0.1618 -0.4738  0.1090
    4SAPS   HN1  401   1.782   6.386  11.201 -1.3494  1.4302  0.2628
    4SAPS   HN2  402   1.742   6.331  11.045 -0.6466  0.9730 -1.0806
    4SAPS   HN3  403   1.894   6.390  11.068 -0.0413 -0.7402 -0.4525
    4SAPS   C12  404   1.736   6.528  11.050  0.1118 -0.2105  0.4603
    4SAPS  H12A  405   1.635   6.532  11.088 -0.0326 -2.3553  0.4196
    4SAPS   C13  406   1.816   6.655  11.081 -0.4202 -0.4305 -0.0791
    4SAPS  O13A  407   1.937   6.656  11.101 -0.4376  0.4134 -0.8349
    4SAPS  O13B  408   1.761   6.763  11.064  1.5664 -0.0732 -0.3897
    4SAPS   C11  409   1.726   6.526  10.896  0.7429  0.1244  0.4197
    4SAPS  H11A  410   1.827   6.534  10.850  0.2289 -0.6419 -0.9268
    4SAPS  H11B  411   1.674   6.618  10.864  2.0274  0.2173 -1.6050
    4SAPS     P  412   1.567   6.402  10.724  0.2711 -0.5755 -0.0467
    4SAPS   O13  413   1.529   6.263  10.690 -0.1052  0.2898  0.0200
    4SAPS   O14  414   1.454   6.499  10.729 -0.0701  0.5496 -0.4538
    4SAPS   O12  415   1.657   6.411  10.852  0.5215 -0.0550 -0.0733
    4SAPS   O11  416   1.655   6.454  10.610  0.3491  0.0481 -0.0565
    4SAPS    C1  417   1.609   6.545  10.506  0.7388  0.0074  0.1472
    4SAPS    HA  418   1.500   6.545  10.487  0.8277  0.9732 -0.4336
    4SAPS    HB  419   1.645   6.646  10.536  0.5454 -0.0682  0.6426
    4SAPS    C2  420   1.676   6.502  10.378 -0.4510 -0.3607  0.2979
    4SAPS    HS  421   1.786   6.498  10.395 -0.3529 -1.9493 -0.5567
    4SAPS   O21  422   1.650   6.596  10.271 -0.1718  0.6784  0.1591
    4SAPS   C21  423   1.707   6.708  10.269  0.9691 -0.2700 -0.5238
    4SAPS   O22  424   1.826   6.736  10.307 -0.1685  0.3098  0.6626
    4SAPS   C22  425   1.620   6.805  10.175  0.1925 -0.2240  0.3612
    4SAPS   H2R  426   1.524   6.808  10.231  1.2466 -2.1911  2.4008
    4SAPS   H2S  427   1.663   6.908  10.178 -1.5788  0.5574  0.2224
    4SAPS    C3  428   1.631   6.360  10.344 -0.2355 -0.0499  0.1812
    4SAPS    HX  429   1.520   6.363  10.345 -0.2420  0.8966 -0.9743
    4SAPS    HY  430   1.653   6.290  10.427  0.1418  1.4272  1.3805
    4SAPS   O31  431   1.683   6.310  10.217  0.1720  0.1106  0.5497
    4SAPS   C31  432   1.614   6.332  10.107 -0.3714 -0.0069  0.0738
    4SAPS   O32  433   1.499   6.376  10.111  0.2376 -0.3534 -0.5748
    4SAPS   C32  434   1.686   6.287   9.977  0.3147 -0.3915 -0.8681
    4SAPS   H2X  435   1.672   6.178   9.965 -0.6346 -0.2429 -1.1883
    4SAPS   H2Y  436   1.792   6.319   9.993  1.2689 -2.0727 -3.3065
    4SAPS   C23  437   1.595   6.739  10.039 -0.4740 -0.8170 -0.7632
    4SAPS   H3R  438   1.530   6.811   9.985 -0.3605 -1.2161 -1.4549
    4SAPS   H3S  439   1.538   6.644  10.037  0.0612 -1.1396 -0.9278
    4SAPS   C24  440   1.727   6.718   9.952 -0.0406 -0.0014 -0.0121
    4SAPS   H4R  441   1.699   6.690   9.848 -2.4598 -0.1869  0.6305
    4SAPS   H4S  442   1.787   6.635   9.995  0.3244 -0.2710 -1.0193
    4SAPS   C25  443   1.815   6.841   9.957 -0.6233 -0.1991 -0.0301
    4SAPS   H5R  444   1.884   6.843  10.043  1.3131 -1.7972 -1.4757
    4SAPS   C26  445   1.806   6.946   9.868  0.4965 -0.3739 -0.1589
    4SAPS   H6R  446   1.861   7.039   9.886 -0.6669  0.3590 -0.2665
    4SAPS   C27  447   1.715   6.948   9.751  0.5348 -0.2014  0.2200
    4SAPS   H7R  448   1.623   6.997   9.790  0.1606 -2.2044  2.0347
    4SAPS   H7S  449   1.696   6.844   9.718  0.3376 -1.1835  3.1270
    4SAPS   C28  450   1.751   7.036   9.631 -0.1759  0.0725 -0.1121
    4SAPS   H8R  451   1.741   7.144   9.651  0.5051  0.3243 -1.0672
    4SAPS   C29  452   1.816   7.002   9.517  0.6303 -0.8272 -0.5274
    4SAPS   H9R  453   1.834   7.077   9.439  1.5403  2.1762  2.2984
    4SAPS  C210  454   1.866   6.863   9.490  0.1067 -1.0952 -0.1059
    4SAPS  H10R  455   1.850   6.838   9.383 -1.6229 -0.4865 -0.0183
    4SAPS  H10S  456   1.806   6.786   9.543 -0.7578 -0.9576 -0.8665
    4SAPS  C211  457   2.001   6.840   9.553 -0.2341  0.4021 -0.2418
    4SAPS  H11R  458   2.017   6.854   9.661  3.6425 -0.9125 -0.4944
    4SAPS  C212  459   2.111   6.799   9.488 -0.2545 -0.1280 -0.0325
    4SAPS  H12R  460   2.207   6.791   9.541  2.1277  1.6045 -3.6724
    4SAPS  C213  461   2.120   6.769   9.334 -0.1981  0.4753  0.4033
    4SAPS  H13R  462   2.044   6.829   9.279 -1.1484 -2.7865 -2.1308
    4SAPS  H13S  463   2.085   6.667   9.306  2.1032 -0.4523  0.6807
    4SAPS  C214  464   2.259   6.789   9.272  0.0321  0.0505  0.4590
    4SAPS  H14R  465   2.317   6.853   9.339 -0.0320 -0.1113  0.6701
    4SAPS  C215  466   2.301   6.728   9.159 -0.1524 -0.4062  1.0196
    4SAPS  H15R  467   2.404   6.746   9.124 -0.1507 -0.4672  0.9946
    4SAPS  C216  468   2.229   6.630   9.071  0.3082 -0.4959  1.1502
    4SAPS  H16R  469   2.132   6.673   9.038  1.2468  0.7385 -0.1528
    4SAPS  H16S  470   2.207   6.535   9.124 -1.4953 -0.9760 -0.3376
    4SAPS  C217  471   2.323   6.606   8.942  0.4257 -0.4042 -0.0489
    4SAPS  H17R  472   2.416   6.554   8.973  1.0048 -0.2108 -1.3762
    4SAPS  H17S  473   2.352   6.707   8.904 -0.9198  0.1635  0.3726
    4SAPS  C218  474   2.252   6.522   8.833 -0.0801 -0.4175  0.0098
    4SAPS  H18R  475   2.308   6.543   8.739 -1.9559  0.5336 -0.9408
    4SAPS  H18S  476   2.151   6.559   8.809  0.1410 -0.2294 -0.6583
    4SAPS  C219  477   2.264   6.367   8.845  0.4012  0.2007 -0.3327
    4SAPS  H19R  478   2.188   6.334   8.919  1.2508 -0.7041  0.1669
    4SAPS  H19S  479   2.370   6.347   8.870  0.2896  0.9920  0.8575
    4SAPS  C220  480   2.232   6.293   8.714  0.7719  0.0673  0.0687
    4SAPS  H20R  481   2.243   6.183   8.708 -1.1032 -0.2848  2.0859
    4SAPS  H20S  482   2.302   6.337   8.639  0.0185 -0.0443 -0.7138
    4SAPS  H20T  483   2.128   6.318   8.685 -0.2265 -1.0628  2.4508
    4SAPS   C33  484   1.629   6.353   9.852 -0.3498  0.2399  0.2622
    4SAPS   H3X  485   1.675   6.454   9.840 -1.6562  1.0056  1.4349
    4SAPS   H3Y  486   1.522   6.383   9.855  0.2486  2.9048 -1.3274
    4SAPS   C34  487   1.657   6.265   9.728  0.2059 -0.7052  0.4160
    4SAPS   H4X  488   1.635   6.158   9.748  0.0464 -0.4658  1.5629
    4SAPS   H4Y  489   1.764   6.281   9.700 -0.4772  2.1355 -0.9199
    4SAPS   C35  490   1.587   6.304   9.594  0.1627 -0.4032 -0.1040
    4SAPS   H5X  491   1.605   6.414   9.586 -2.7670  0.1822  0.0122
    4SAPS   H5Y  492   1.479   6.299   9.621 -0.2435  2.7201 -0.7718
    4SAPS   C36  493   1.636   6.236   9.468 -0.2712 -0.0461 -0.2934
    4SAPS   H6X  494   1.629   6.125   9.469  0.2867 -0.0943  1.2687
    4SAPS   H6Y  495   1.745   6.261   9.464 -0.4466  1.0058  0.8936
    4SAPS   C37  496   1.555   6.281   9.345 -0.2139 -0.4887 -0.7407
    4SAPS   H7X  497   1.576   6.386   9.316  2.2620 -0.7075  0.0714
    4SAPS   H7Y  498   1.449   6.255   9.368  0.5569 -1.4838  1.9945
    4SAPS   C38  499   1.578   6.197   9.215  0.1412  0.6109 -0.1991
    4SAPS   H8X  500   1.570   6.089   9.240 -1.0763  0.7221 -0.0442
    4SAPS   H8Y  501   1.682   6.214   9.181 -0.1257  1.5767 -0.5689
    4SAPS   C39  502   1.472   6.208   9.102 -0.9848 -0.8847  0.1701
    4SAPS   H9X  503   1.494   6.308   9.059  1.0265 -1.1395  0.5236
    4SAPS   H9Y  504   1.366   6.223   9.133 -0.2660  2.3500  1.4298
    4SAPS  C310  505   1.501   6.102   8.998 -0.3668 -0.0106  0.5348
    4SAPS  H10X  506   1.467   6.006   9.043  0.5869 -0.2616  0.7383
    4SAPS  H10Y  507   1.611   6.095   8.986 -0.4152  1.0324 -0.7849
    4SAPS  C311  508   1.455   6.138   8.862  0.3645  0.2022  0.9175
    4SAPS  H11X  509   1.533   6.208   8.826  1.7425 -1.2200  1.0201
    4SAPS  H11Y  510   1.356   6.189   8.853 -1.0072 -2.3373  0.6536
    4SAPS  C312  511   1.446   6.012   8.763  0.0095 -0.3631 -0.7908
    4SAPS  H12X  512   1.377   5.943   8.818 -0.1874  0.6960  0.3436
    4SAPS  H12Y  513   1.546   5.965   8.771  0.2819  0.0764 -1.5353
    4SAPS  C313  514   1.392   6.050   8.628 -0.0048  0.5220  0.1981
    4SAPS  H13X  515   1.283   6.071   8.634 -0.2186 -0.4155 -0.2987
    4SAPS  H13Y  516   1.414   5.963   8.563  0.7706 -1.3980  2.8228
    4SAPS  C314  517   1.453   6.177   8.574 -0.9226  0.0553 -0.4998
    4SAPS  H14X  518   1.563   6.163   8.564 -1.1255 -1.7420 -0.6423
    4SAPS  H14Y  519   1.433   6.255   8.650 -0.3245  1.4647 -1.7282
    4SAPS  C315  520   1.403   6.215   8.437  0.6253  0.3503 -0.3216
    4SAPS  H15X  521   1.427   6.130   8.370 -2.4068 -0.7570 -0.1613
    4SAPS  H15Y  522   1.452   6.312   8.414 -2.2994  1.7652 -1.0253
    4SAPS  C316  523   1.249   6.242   8.431 -0.3915 -0.7191  0.0028
    4SAPS  H16X  524   1.210   6.306   8.513 -0.3481 -1.1463  0.3619
    4SAPS  H16Y  525   1.190   6.147   8.433 -0.5415 -0.6281 -0.0524
    4SAPS  C317  526   1.204   6.304   8.294 -0.2311  0.1372 -0.5161
    4SAPS  H17X  527   1.242   6.230   8.221 -1.2973  1.3512 -2.3884
    4SAPS  H17Y  528   1.255   6.402   8.277 -3.2670  2.1657  1.1661
    4SAPS  C318  529   1.052   6.318   8.284  0.5520 -0.4080 -0.5342
    4SAPS  H18X  530   1.021   6.347   8.181 -1.8217 -2.4264 -0.4890
    4SAPS  H18Y  531   1.013   6.401   8.347  0.1418 -0.9136 -0.1159
    4SAPS  H18Z  532   1.013   6.217   8.310  0.2306 -0.8833 -2.6506
    5SAPS     N  533   3.591   5.184  10.725 -0.1477 -0.2558 -0.1735
    5SAPS   HN1  534   3.654   5.211  10.803 -1.9366  1.4710  0.7398
    5SAPS   HN2  535   3.595   5.080  10.717 -1.1061 -0.1872 -2.5134
    5SAPS   HN3  536   3.620   5.230  10.636  1.0082  1.2501  0.9305
    5SAPS   C12  537   3.452   5.228  10.767 -0.5864  0.0348 -0.4434
    5SAPS  H12A  538   3.378   5.183  10.704 -2.6526  1.8414  0.5656
    5SAPS   C13  539   3.413   5.194  10.910 -0.3645  0.0065 -0.4794
    5SAPS  O13A  540   3.495   5.127  10.987  0.3641 -0.0529  0.1436
    5SAPS  O13B  541   3.294   5.208  10.948 -0.0386  0.4384  0.3106
    5SAPS   C11  542   3.426   5.377  10.740  0.0214  0.1990  0.2071
    5SAPS  H11A  543   3.321   5.403  10.764  0.2240  0.6225  0.6541
    5SAPS  H11B  544   3.438   5.395  10.631  0.4228 -1.3156 -0.0279
    5SAPS     P  545   3.656   5.507  10.791 -0.5959  0.0234 -0.2622
    5SAPS   O13  546   3.681   5.627  10.871 -0.3511 -0.0333  0.2031
    5SAPS   O14  547   3.753   5.395  10.807 -0.0454  0.7059 -0.0332
    5SAPS   O12  548   3.508   5.461  10.822  0.2854 -0.7940  0.5056
    5SAPS   O11  549   3.653   5.547  10.641 -0.1702  0.0480  0.2805
    5SAPS    C1  550   3.572   5.656  10.589  0.1883  0.0710  0.0015
    5SAPS    HA  551   3.475   5.665  10.643  0.6738 -1.2042  1.1310
    5SAPS    HB  552   3.618   5.757  10.594 -1.1041  0.7837 -1.3972
    5SAPS    C2  553   3.546   5.619  10.441 -0.2623 -0.2408 -0.0157
    5SAPS    HS  554   3.507   5.516  10.444  1.8258 -1.1027 -0.6810
    5SAPS   O21  555   3.662   5.615  10.367 -0.0427  0.5364  0.0888
    5SAPS   C21  556   3.668   5.518  10.277 -0.1035  0.3404 -0.0783
    5SAPS   O22  557   3.591   5.420  10.275  0.0997 -0.9325 -0.3271
    5SAPS   C22  558   3.800   5.533  10.195  0.0757 -0.2403 -0.1463
    5SAPS   H2R  559   3.877   5.546  10.274 -0.7306  1.1995  0.4331
    5SAPS   H2S  560   3.829   5.439  10.143 -1.7495  0.0135 -1.7213
    5SAPS    C3  561   3.458   5.727  10.373  0.2066  0.2985 -0.4461
    5SAPS    HX  562   3.516   5.822  10.370  0.3800  0.2134  0.0339
    5SAPS    HY  563   3.368   5.745  10.436 -0.9354  0.0252 -1.9419
    5SAPS   O31  564   3.422   5.699  10.238 -0.4414 -0.0168 -0.2483
    5SAPS   C31  565   3.330   5.610  10.217  0.5958 -0.0804  0.7765
    5SAPS   O32  566   3.263   5.573  10.312 -0.9814 -0.0550  0.2842
    5SAPS   C32  567   3.310   5.579  10.065  0.2121  0.4670 -0.0536
    5SAPS   H2X  568   3.294   5.470  10.055  0.3236  0.4886 -0.4990
    5SAPS   H2Y  569   3.413   5.601  10.029  0.1987  0.0257 -0.3686
    5SAPS   C23  570   3.806   5.662  10.112  0.7830 -0.2946  1.1263
    5SAPS   H3R  571   3.909   5.687  10.081  0.8273 -1.9583 -0.2210
    5SAPS   H3S  572   3.781   5.749  10.175  1.3266  1.5090 -1.0163
    5SAPS   C24  573   3.722   5.658   9.977 -0.1449 -0.0369  0.5835
    5SAPS   H4R  574   3.721   5.763   9.942  0.7030  0.0273  0.7331
    5SAPS   H4S  575   3.617   5.638  10.007  0.2802 -0.1747  2.0834
    5SAPS   C25  576   3.776   5.557   9.879  0.5015  0.1121 -0.4935
    5SAPS   H5R  577   3.866   5.590   9.825 -0.7094  0.5922 -2.2856
    5SAPS   C26  578   3.709   5.442   9.839 -0.3319  0.3634 -0.4636
    5SAPS   H6R  579   3.749   5.378   9.759 -0.5108  0.8728 -0.9697
    5SAPS   C27  580   3.573   5.395   9.883 -0.0989 -0.0291 -1.1059
    5SAPS   H7R  581   3.500   5.469   9.846 -0.2778 -0.4193 -1.5368
    5SAPS   H7S  582   3.559   5.399   9.994  2.8142  1.9989 -0.6981
    5SAPS   C28  583   3.545   5.252   9.834 -0.2357 -0.3731 -0.6655
    5SAPS   H8R  584   3.563   5.179   9.914 -1.0067  1.4047  1.1832
    5SAPS   C29  585   3.530   5.210   9.711 -0.4283  0.2762  0.0356
    5SAPS   H9R  586   3.514   5.102   9.699  1.3327 -0.2934  2.1703
    5SAPS  C210  587   3.528   5.302   9.591  0.7468 -0.4658 -0.2782
    5SAPS  H10R  588   3.628   5.328   9.551 -0.3249  0.7066 -2.3785
    5SAPS  H10S  589   3.496   5.404   9.622 -1.3978  0.0639 -3.7488
    5SAPS  C211  590   3.428   5.268   9.481 -0.1085 -0.5639  0.4869
    5SAPS  H11R  591   3.336   5.228   9.528 -0.1005 -1.0831  0.0690
    5SAPS  C212  592   3.445   5.271   9.347  0.2913 -0.2435  0.6351
    5SAPS  H12R  593   3.359   5.257   9.280  0.8538  1.7175 -0.5893
    5SAPS  C213  594   3.569   5.313   9.268 -0.0330  0.1481 -0.0215
    5SAPS  H13R  595   3.615   5.218   9.232 -2.3393 -1.4459  0.9697
    5SAPS  H13S  596   3.646   5.366   9.327  0.8268  0.7454 -1.6045
    5SAPS  C214  597   3.524   5.399   9.145 -0.5536  0.6075 -0.6107
    5SAPS  H14R  598   3.447   5.473   9.169 -1.0148 -0.4390  1.3953
    5SAPS  C215  599   3.555   5.379   9.021 -0.1629  0.5316  0.2080
    5SAPS  H15R  600   3.504   5.436   8.942 -0.6750  1.2030  1.0074
    5SAPS  C216  601   3.647   5.277   8.974  0.2039 -0.0616 -0.0132
    5SAPS  H16R  602   3.605   5.176   8.993  0.8283 -0.1786  0.8140
    5SAPS  H16S  603   3.743   5.284   9.030 -1.3238 -0.9277  2.9689
    5SAPS  C217  604   3.678   5.285   8.827 -0.8018 -0.2955 -0.4049
    5SAPS  H17R  605   3.767   5.220   8.815 -0.5068 -0.0334  0.3586
    5SAPS  H17S  606   3.709   5.390   8.804 -1.7901  0.3174  0.8941
    5SAPS  C218  607   3.564   5.251   8.730  0.2638 -1.0112  0.3668
    5SAPS  H18R  608   3.539   5.144   8.747 -0.7830 -0.8938 -0.3074
    5SAPS  H18S  609   3.476   5.316   8.750  1.3875  0.2134  1.5541
    5SAPS  C219  610   3.604   5.247   8.582 -0.6273 -0.2230  0.2021
    5SAPS  H19R  611   3.698   5.189   8.569  1.3223  2.3845  1.7678
    5SAPS  H19S  612   3.627   5.354   8.564  2.5249 -0.7810  0.2077
    5SAPS  C220  613   3.500   5.190   8.479  0.3195  0.6427  0.0972
    5SAPS  H20R  614   3.512   5.230   8.376 -2.8904 -0.7164 -0.9190
    5SAPS  H20S  615   3.396   5.193   8.516  0.9316  0.7837  1.9310
    5SAPS  H20T  616   3.521   5.081   8.469 -3.6737 -0.1683 -1.0241
    5SAPS   C33  617   3.199   5.661   9.999 -0.0770 -0.4908  0.2636
    5SAPS   H3X  618   3.189   5.769  10.024 -2.8346 -0.8351  0.9559
    5SAPS   H3Y  619   3.099   5.624  10.028 -1.7481  3.2411 -0.2465
    5SAPS   C34  620   3.213   5.649   9.844  0.0289 -0.1366 -0.1189
    5SAPS   H4X  621   3.123   5.663   9.781 -1.1153  1.7716  1.7755
    5SAPS   H4Y  622   3.263   5.551   9.828  1.5910  0.5601  0.2464
    5SAPS   C35  623   3.309   5.754   9.794 -0.1194  0.2355  0.5043
    5SAPS   H5X  624   3.402   5.756   9.855 -0.3408  2.4832  0.8727
    5SAPS   H5Y  625   3.258   5.852   9.806 -0.0874  0.3760 -0.4366
    5SAPS   C36  626   3.357   5.724   9.656  0.5419 -0.8790 -0.3648
    5SAPS   H6X  627   3.398   5.622   9.641  2.4792  0.3920 -6.1061
    5SAPS   H6Y  628   3.437   5.799   9.638  0.9194 -0.6644  1.8803
    5SAPS   C37  629   3.253   5.736   9.538  0.1208 -0.7728 -0.4913
    5SAPS   H7X  630   3.233   5.845   9.540 -1.1556 -0.9904  0.7548
    5SAPS   H7Y  631   3.154   5.691   9.562  1.2562 -2.6235  1.0993
    5SAPS   C38  632   3.311   5.697   9.402 -0.4187 -0.2906 -0.0022
    5SAPS   H8X  633   3.291   5.590   9.383 -0.9484  0.1138 -2.0017
    5SAPS   H8Y  634   3.421   5.708   9.413 -0.4591 -0.1252  0.2619
    5SAPS   C39  635   3.251   5.770   9.276  0.3908  1.2649  0.1082
    5SAPS   H9X  636   3.262   5.879   9.295  0.4704  1.3156 -0.2340
    5SAPS   H9Y  637   3.145   5.739   9.279  1.0731 -1.2773  1.7300
    5SAPS  C310  638   3.314   5.709   9.147 -0.2175  0.0912 -0.5701
    5SAPS  H10X  639   3.267   5.609   9.135  0.4154 -0.3810  0.6854
    5SAPS  H10Y  640   3.423   5.706   9.168 -0.7234  0.3712  2.6251
    5SAPS  C311  641   3.294   5.799   9.021 -0.5184  0.0991 -0.2186
    5SAPS  H11X  642   3.356   5.890   9.039  0.1512 -0.6223  1.3181
    5SAPS  H11Y  643   3.188   5.834   9.023 -1.2413 -1.7131 -2.2956
    5SAPS  C312  644   3.329   5.730   8.891  0.0213  0.4391  0.5159
    5SAPS  H12X  645   3.437   5.706   8.887  0.7113  3.3436 -2.2704
    5SAPS  H12Y  646   3.324   5.810   8.814 -2.1212  0.2379  0.3746
    5SAPS  C313  647   3.228   5.624   8.839 -0.7558  0.1025  0.1902
    5SAPS  H13X  648   3.127   5.669   8.829 -1.1775 -1.0989 -1.3324
    5SAPS  H13Y  649   3.229   5.535   8.905  0.1302 -0.6055 -0.7303
    5SAPS  C314  650   3.283   5.577   8.700  0.3360  0.9659 -0.2721
    5SAPS  H14X  651   3.381   5.526   8.707  0.0163  0.4533  0.5111
    5SAPS  H14Y  652   3.303   5.670   8.642  0.7244  1.7673  1.0985
    5SAPS  C315  653   3.183   5.487   8.626 -0.4547 -0.4198 -0.3483
    5SAPS  H15X  654   3.079   5.515   8.655 -0.2265 -1.0019  1.1144
    5SAPS  H15Y  655   3.199   5.381   8.656 -1.0906 -0.7981 -1.3014
    5SAPS  C316  656   3.214   5.475   8.476  0.7573  0.4741  0.6885
    5SAPS  H16X  657   3.295   5.400   8.458  0.2699  0.1225 -0.0701
    5SAPS  H16Y  658   3.240   5.575   8.435 -1.2751  1.1111  0.8385
    5SAPS  C317  659   3.096   5.411   8.398 -0.1613  0.2162  0.1316
    5SAPS  H17X  660   3.127   5.401   8.292  1.0801 -1.8858  0.6222
    5SAPS  H17Y  661   2.998   5.461   8.415 -1.0904 -0.8095 -1.9041
    5SAPS  C318  662   3.068   5.262   8.422  0.0195 -0.8474 -0.7329
    5SAPS  H18X  663   3.055   5.240   8.530  2.2942 -0.5784 -0.3558
    5SAPS  H18Y  664   3.161   5.206   8.399  0.7261  0.0031 -0.0101
    5SAPS  H18Z  665   2.978   5.218   8.374  0.1665  0.4328 -2.2593
    6SAPS     N  666   1.769   4.891  10.914 -0.0031 -0.0017 -0.0033
    6SAPS   HN1  667   1.869   4.862  10.919 -0.1327 -0.6702 -0.8507
    6SAPS   HN2  668   1.777   4.951  10.829  2.3241  3.0476  2.1391
    6SAPS   HN3  669   1.743   4.953  10.993  1.1480  1.0854 -0.4330
    6SAPS   C12  670   1.679   4.774  10.888  0.7303  0.1076  0.1443
    6SAPS  H12A  671   1.686   4.696  10.962 -0.8820 -3.1269 -2.7937
    6SAPS   C13  672   1.535   4.826  10.875  0.2717 -0.4060  0.2061
    6SAPS  O13A  673   1.502   4.934  10.926  0.6586 -0.4498 -0.0779
    6SAPS  O13B  674   1.453   4.750  10.819  0.4163 -0.0841 -0.0351
    6SAPS   C11  675   1.718   4.698  10.755  0.1391 -0.9965  0.4564
    6SAPS  H11A  676   1.712   4.769  10.669 -1.4522 -1.4190  0.1758
    6SAPS  H11B  677   1.647   4.616  10.727  1.6949 -1.9413 -0.9155
    6SAPS     P  678   1.873   4.486  10.787 -0.0396 -0.0660  0.0901
    6SAPS   O13  679   1.864   4.466  10.934  0.1229 -0.2709 -0.2916
    6SAPS   O14  680   1.796   4.400  10.694  0.1910 -0.1526  0.1251
    6SAPS   O12  681   1.848   4.641  10.762 -0.4057 -0.4404  0.2079
    6SAPS   O11  682   2.025   4.481  10.756  0.1993 -0.0131  0.3345
    6SAPS    C1  683   2.074   4.374  10.668 -0.2225  0.1127 -0.0598
    6SAPS    HA  684   2.064   4.275  10.716  0.5006  1.2547  2.6436
    6SAPS    HB  685   2.016   4.371  10.574  1.4648 -0.8292 -1.1368
    6SAPS    C2  686   2.223   4.408  10.629 -0.4664  0.4957  0.3409
    6SAPS    HS  687   2.271   4.426  10.728  1.6025  2.1909 -0.8918
    6SAPS   O21  688   2.212   4.528  10.548 -0.6838  0.4703  0.0139
    6SAPS   C21  689   2.318   4.604  10.530 -0.5168 -0.5855  0.7062
    6SAPS   O22  690   2.433   4.577  10.569  0.2009 -0.5168 -0.3438
    6SAPS   C22  691   2.288   4.721  10.430 -0.1419 -0.3626  0.2375
    6SAPS   H2R  692   2.215   4.683  10.357 -0.9027 -2.0147  1.7844
    6SAPS   H2S  693   2.238   4.803  10.487  1.3895  0.1967  0.8439
    6SAPS    C3  694   2.290   4.290  10.553  0.0249  0.3891 -0.1850
    6SAPS    HX  695   2.233   4.196  10.570  0.6589  0.2785  1.5710
    6SAPS    HY  696   2.390   4.268  10.596  0.8105  0.9515 -1.6483
    6SAPS   O31  697   2.301   4.317  10.414  0.3019  0.1554  0.6100
    6SAPS   C31  698   2.189   4.297  10.339 -0.3198 -0.1687 -0.2809
    6SAPS   O32  699   2.081   4.268  10.383 -0.4164  0.7126 -0.0548
    6SAPS   C32  700   2.224   4.337  10.192 -0.1034 -0.2079  0.1819
    6SAPS   H2X  701   2.321   4.294  10.160 -0.7578 -1.9631  0.3878
    6SAPS   H2Y  702   2.227   4.447  10.202 -0.1685 -0.1173 -0.7075
    6SAPS   C23  703   2.415   4.780  10.365 -0.4851  0.3833 -1.1256
    6SAPS   H3R  704   2.483   4.700  10.330  0.2584 -0.1515  1.3411
    6SAPS   H3S  705   2.474   4.817  10.452  0.6958 -1.4914 -1.0658
    6SAPS   C24  706   2.391   4.891  10.263 -0.5711  0.3162 -0.3978
    6SAPS   H4R  707   2.353   4.980  10.317 -0.0392  1.9616 -2.6033
    6SAPS   H4S  708   2.307   4.860  10.196 -2.1974 -0.3378  1.8138
    6SAPS   C25  709   2.517   4.923  10.183 -0.1311  0.1047  0.7022
    6SAPS   H5R  710   2.615   4.928  10.232  1.2266  1.6440 -1.9622
    6SAPS   C26  711   2.525   4.932  10.053  0.0918  0.1784 -0.2242
    6SAPS   H6R  712   2.628   4.939  10.014 -0.5615  0.7275 -1.9208
    6SAPS   C27  713   2.415   4.914   9.948 -0.1613  0.2779  0.5165
    6SAPS   H7R  714   2.425   4.987   9.865 -0.2628 -2.5338 -2.1561
    6SAPS   H7S  715   2.317   4.946   9.991  0.5023  3.4722 -0.1157
    6SAPS   C28  716   2.403   4.777   9.894 -0.5191 -0.2024 -0.0540
    6SAPS   H8R  717   2.409   4.697   9.970 -1.1356 -2.3307 -2.1184
    6SAPS   C29  718   2.392   4.735   9.765 -0.0767 -0.0587 -0.3368
    6SAPS   H9R  719   2.387   4.627   9.745 -0.5473  0.4609 -3.4159
    6SAPS  C210  720   2.388   4.819   9.643  0.3909 -0.4288 -0.7145
    6SAPS  H10R  721   2.490   4.861   9.633  0.4387 -0.5984 -0.9435
    6SAPS  H10S  722   2.325   4.907   9.669  0.8034  0.6836 -3.1919
    6SAPS  C211  723   2.334   4.759   9.513 -0.1272  1.1487  0.3570
    6SAPS  H11R  724   2.254   4.684   9.521  0.2070  0.4985 -1.8780
    6SAPS  C212  725   2.384   4.798   9.398 -0.8969  0.5944  0.2928
    6SAPS  H12R  726   2.347   4.751   9.306  0.9732 -1.8123  0.6870
    6SAPS  C213  727   2.483   4.907   9.370  0.1523 -0.5053 -1.1262
    6SAPS  H13R  728   2.583   4.870   9.399 -0.3679 -1.1163 -0.0710
    6SAPS  H13S  729   2.457   4.986   9.444  2.6914 -2.1749  1.7192
    6SAPS  C214  730   2.469   4.966   9.232 -0.0367 -0.3253  0.9871
    6SAPS  H14R  731   2.371   5.014   9.217 -0.2996 -1.7036 -2.7507
    6SAPS  C215  732   2.560   4.958   9.126 -0.2213 -0.3125 -0.8815
    6SAPS  H15R  733   2.541   5.021   9.038 -2.0302 -2.1501 -1.8877
    6SAPS  C216  734   2.698   4.887   9.135 -0.7271 -0.6471  0.0160
    6SAPS  H16R  735   2.697   4.818   9.222 -0.6002 -1.0349 -0.2859
    6SAPS  H16S  736   2.786   4.955   9.133 -2.2526  1.5106  1.5078
    6SAPS  C217  737   2.717   4.809   9.000  0.1162  0.7312  0.5949
    6SAPS  H17R  738   2.623   4.751   8.987 -0.0776  0.9251  1.0740
    6SAPS  H17S  739   2.797   4.735   9.025  0.0295 -0.5343 -2.5041
    6SAPS  C218  740   2.742   4.887   8.870  0.0673 -0.5687 -0.8541
    6SAPS  H18R  741   2.840   4.938   8.882  0.1450 -0.2668 -2.6461
    6SAPS  H18S  742   2.665   4.966   8.855  0.5816 -0.4124 -2.8830
    6SAPS  C219  743   2.747   4.807   8.746 -0.6221 -0.0936  0.4556
    6SAPS  H19R  744   2.656   4.744   8.739  0.2751 -1.4112  0.3080
    6SAPS  H19S  745   2.835   4.739   8.757  1.4254  2.1064 -1.3106
    6SAPS  C220  746   2.761   4.900   8.629  0.1962  0.3883  0.3451
    6SAPS  H20R  747   2.761   4.847   8.532  0.6358 -2.0540  1.5926
    6SAPS  H20S  748   2.856   4.956   8.620  0.6646 -0.3033  0.8980
    6SAPS  H20T  749   2.685   4.980   8.630  0.5173  0.7035 -0.2626
    6SAPS   C33  750   2.120   4.292  10.082  0.2399 -0.0258  0.4663
    6SAPS   H3X  751   2.055   4.371  10.038  0.2414 -1.5173 -2.4651
    6SAPS   H3Y  752   2.051   4.223  10.135  1.3293 -0.6186  1.1255
    6SAPS   C34  753   2.196   4.209   9.983 -0.5609 -0.4270 -0.8324
    6SAPS   H4X  754   2.262   4.137  10.037  0.3427  1.3345  0.5094
    6SAPS   H4Y  755   2.269   4.278   9.934 -0.3355 -0.2141 -0.2106
    6SAPS   C35  756   2.114   4.151   9.869 -0.4697 -0.1253 -0.9155
    6SAPS   H5X  757   2.126   4.219   9.782 -1.7716  0.2682 -0.8087
    6SAPS   H5Y  758   2.010   4.154   9.909 -0.5127  1.8228 -1.0881
    6SAPS   C36  759   2.151   4.003   9.838  0.3984  0.0164 -0.0344
    6SAPS   H6X  760   2.110   3.928   9.908  0.9563  0.3140  0.6228
    6SAPS   H6Y  761   2.261   3.999   9.826  0.7568  1.5211  2.1287
    6SAPS   C37  762   2.095   3.959   9.700 -0.3802  0.5082  0.0222
    6SAPS   H7X  763   1.992   3.999   9.687 -1.0594 -1.5058 -1.0876
    6SAPS   H7Y  764   2.117   3.853   9.678  0.4924  0.3032  1.7435
    6SAPS   C38  765   2.167   4.033   9.587 -0.2847 -0.3902 -0.2058
    6SAPS   H8X  766   2.276   4.026   9.607 -0.0725  3.1411  0.4260
    6SAPS   H8Y  767   2.143   4.141   9.590 -3.5832 -1.0184  0.0430
    6SAPS   C39  768   2.135   3.959   9.463 -0.0702 -0.1446  0.1022
    6SAPS   H9X  769   2.025   3.953   9.450 -0.0658  0.0697 -0.0389
    6SAPS   H9Y  770   2.188   3.862   9.464  1.7204  0.7913  1.2635
    6SAPS  C310  771   2.181   4.039   9.342 -0.8052 -0.4987  0.3866
    6SAPS  H10X  772   2.284   4.072   9.370  0.7739 -2.3209 -2.7511
    6SAPS  H10Y  773   2.112   4.124   9.327  0.5768  0.4448 -0.8523
    6SAPS  C311  774   2.169   3.957   9.218 -0.0619 -0.3854 -0.0731
    6SAPS  H11X  775   2.070   3.908   9.211  0.6807 -1.8490 -0.8490
    6SAPS  H11Y  776   2.244   3.877   9.234  0.3236  0.0870  0.5345
    6SAPS  C312  777   2.207   4.036   9.087 -0.0860 -0.7395  0.1610
    6SAPS  H12X  778   2.316   4.058   9.083 -0.6144  2.0703 -0.6749
    6SAPS  H12Y  779   2.158   4.135   9.097  2.2257  0.6999 -1.6336
    6SAPS  C313  780   2.155   3.967   8.970  0.9000  0.2646 -0.3915
    6SAPS  H13X  781   2.044   3.963   8.970  0.9206 -2.3308  0.5223
    6SAPS  H13Y  782   2.188   3.861   8.961 -1.6531 -0.9057  2.4620
    6SAPS  C314  783   2.202   4.041   8.844  0.6705  0.0464  0.6924
    6SAPS  H14X  784   2.193   3.969   8.759  0.0912 -0.2941  1.0339
    6SAPS  H14Y  785   2.308   4.071   8.855  0.3850  0.5675  2.2335
    6SAPS  C315  786   2.122   4.165   8.814  0.4407 -0.3757  0.3326
    6SAPS  H15X  787   2.182   4.251   8.849  0.9820 -1.7127  2.9545
    6SAPS  H15Y  788   2.019   4.179   8.856  0.3586  1.4737 -0.3770
    6SAPS  C316  789   2.100   4.196   8.665 -0.5368  0.3251 -0.3260
    6SAPS  H16X  790   2.066   4.302   8.654 -1.1238  0.0779 -0.9904
    6SAPS  H16Y  791   2.028   4.121   8.627 -0.9240  0.9441 -0.8471
    6SAPS  C317  792   2.228   4.191   8.586 -0.1347 -0.4144 -0.5647
    6SAPS  H17X  793   2.294   4.105   8.608 -0.6559 -0.4276  1.1334
    6SAPS  H17Y  794   2.277   4.291   8.589  0.5830 -0.7615 -0.4396
    6SAPS  C318  795   2.195   4.176   8.436  0.2160 -0.3989 -0.1933
    6SAPS  H18X  796   2.095   4.222   8.418 -0.2899 -0.2420  2.6086
    6SAPS  H18Y  797   2.195   4.066   8.419 -2.6310 -0.3878 -0.9003
    6SAPS  H18Z  798   2.274   4.213   8.367 -0.8485 -1.9402 -2.4035
    7SAPS     N  799   5.721   5.786  10.540  0.1300 -0.2839  0.2178
    7SAPS   HN1  800   5.642   5.835  10.588  1.0153 -0.1030  1.5280
    7SAPS   HN2  801   5.791   5.852  10.501  1.4945 -1.8792 -0.1030
    7SAPS   HN3  802   5.689   5.723  10.463  0.5895 -1.1769  0.7480
    7SAPS   C12  803   5.784   5.698  10.641 -0.1729 -0.4250 -0.0162
    7SAPS  H12A  804   5.795   5.745  10.738 -1.4007 -0.7043  0.2747
    7SAPS   C13  805   5.681   5.579  10.676  0.1998  0.9041  0.1757
    7SAPS  O13A  806   5.561   5.580  10.635 -0.6348 -0.2361 -0.2389
    7SAPS  O13B  807   5.709   5.495  10.769 -0.7273  0.4471  0.1854
    7SAPS   C11  808   5.915   5.648  10.587  0.5615  0.1973  0.1379
    7SAPS  H11A  809   5.892   5.582  10.501 -1.0927 -1.2384  1.6101
    7SAPS  H11B  810   5.960   5.589  10.670 -1.8283 -1.2942  0.4831
    7SAPS     P  811   6.114   5.818  10.630  0.0526  0.2618 -0.4369
    7SAPS   O13  812   6.059   5.903  10.739  0.0305 -0.0442 -0.4390
    7SAPS   O14  813   6.195   5.704  10.679  0.2328  0.3805  0.2039
    7SAPS   O12  814   5.994   5.761  10.546 -0.3453  0.3015 -0.5322
    7SAPS   O11  815   6.184   5.902  10.515  0.3841  0.8095  0.2349
    7SAPS    C1  816   6.204   5.853  10.385  0.0051 -0.1890 -0.1447
    7SAPS    HA  817   6.257   5.755  10.389 -0.5510 -0.5904 -1.7260
    7SAPS    HB  818   6.109   5.835  10.330 -0.1126  2.5557 -0.9532
    7SAPS    C2  819   6.295   5.951  10.305 -0.0813 -0.4641 -0.3647
    7SAPS    HS  820   6.376   5.987  10.372  0.4569  0.4024 -1.4454
    7SAPS   O21  821   6.218   6.062  10.257 -0.5045 -0.1227  0.3284
    7SAPS   C21  822   6.284   6.176  10.255  0.4733  0.6019 -0.3453
    7SAPS   O22  823   6.406   6.190  10.270 -0.4416 -0.1646  0.3497
    7SAPS   C22  824   6.190   6.294  10.241  0.1420 -0.2921 -0.0043
    7SAPS   H2R  825   6.126   6.261  10.156  1.1781  1.5057 -1.5672
    7SAPS   H2S  826   6.128   6.300  10.333 -0.0461 -0.4865 -0.1188
    7SAPS    C3  827   6.354   5.879  10.187  0.3763 -0.3245 -0.2637
    7SAPS    HX  828   6.272   5.836  10.125  0.1437 -0.3452  0.0556
    7SAPS    HY  829   6.412   5.788  10.215  0.3017 -0.3137 -0.0753
    7SAPS   O31  830   6.431   5.974  10.096  0.0344 -0.2900 -0.8640
    7SAPS   C31  831   6.557   5.988  10.133 -0.3225  0.3174  0.5473
    7SAPS   O32  832   6.612   5.928  10.223 -0.5407  0.2167  0.7183
    7SAPS   C32  833   6.619   6.091  10.042 -0.3069  0.2731 -0.2755
    7SAPS   H2X  834   6.590   6.186  10.092  0.7783 -0.6049  2.1642
    7SAPS   H2Y  835   6.584   6.076   9.937  1.8119  0.2996 -1.0279
    7SAPS   C23  836   6.254   6.430  10.206  0.2220 -0.7192 -0.0271
    7SAPS   H3R  837   6.331   6.454  10.283 -0.3541  2.1263 -0.1961
    7SAPS   H3S  838   6.180   6.511  10.224  0.0303 -1.2830  2.0086
    7SAPS   C24  839   6.310   6.436  10.062  0.3437  0.0268 -0.2055
    7SAPS   H4R  840   6.391   6.361  10.064  1.0173  0.7616  1.3991
    7SAPS   H4S  841   6.372   6.525  10.039  0.6259  0.4121  1.8544
    7SAPS   C25  842   6.205   6.407   9.951 -0.1569  0.0035  0.0878
    7SAPS   H5R  843   6.128   6.481   9.927  0.2196 -0.0517 -1.3932
    7SAPS   C26  844   6.189   6.288   9.880  0.4226 -0.1171  0.0278
    7SAPS   H6R  845   6.110   6.286   9.804  0.7154 -1.0585 -0.2577
    7SAPS   C27  846   6.275   6.162   9.887 -0.1777 -0.0503  0.0755
    7SAPS   H7R  847   6.361   6.168   9.957  0.2693 -1.5417 -0.3083
    7SAPS   H7S  848   6.335   6.152   9.795  0.1480 -0.6219  0.3444
    7SAPS   C28  849   6.191   6.034   9.910 -0.7217  0.0393 -0.8486
    7SAPS   H8R  850   6.137   6.041  10.006 -0.2173  0.2717 -0.5724
    7SAPS   C29  851   6.191   5.927   9.836  0.6535  0.2383 -0.4398
    7SAPS   H9R  852   6.128   5.838   9.851  0.7182  0.0117 -1.4806
    7SAPS  C210  853   6.266   5.907   9.711 -0.8783 -0.0682  0.2701
    7SAPS  H10R  854   6.269   6.004   9.656 -0.1869  1.3615  2.6560
    7SAPS  H10S  855   6.213   5.842   9.639 -0.5396  0.3080 -0.3256
    7SAPS  C211  856   6.409   5.859   9.730 -0.2454 -0.2084  0.0928
    7SAPS  H11R  857   6.457   5.872   9.829 -1.3345 -1.0622  0.7564
    7SAPS  C212  858   6.487   5.812   9.634  0.0460  0.4843 -0.0339
    7SAPS  H12R  859   6.587   5.774   9.661 -0.2406  1.2706  2.4441
    7SAPS  C213  860   6.453   5.789   9.487 -0.5042  0.2509 -0.0443
    7SAPS  H13R  861   6.454   5.888   9.436  0.8189  0.2002 -0.1518
    7SAPS  H13S  862   6.349   5.750   9.488 -1.5368  2.8048  1.5179
    7SAPS  C214  863   6.546   5.689   9.413  0.0741 -0.5710 -0.8197
    7SAPS  H14R  864   6.585   5.604   9.472  0.0857 -1.1232 -1.6093
    7SAPS  C215  865   6.586   5.709   9.285 -0.5034 -0.3336 -0.7708
    7SAPS  H15R  866   6.659   5.638   9.245 -0.6589  0.3902 -2.4347
    7SAPS  C216  867   6.549   5.819   9.193  0.3580 -0.2712 -0.2349
    7SAPS  H16R  868   6.641   5.857   9.144  0.2738 -0.4465 -0.5333
    7SAPS  H16S  869   6.494   5.905   9.238 -0.6115 -1.0116  0.0130
    7SAPS  C217  870   6.455   5.777   9.083 -0.1004 -0.5154  0.1468
    7SAPS  H17R  871   6.354   5.761   9.126  0.0962 -2.9738 -0.1920
    7SAPS  H17S  872   6.488   5.681   9.039  1.0130  0.0780 -0.3681
    7SAPS  C218  873   6.436   5.891   8.973 -0.8648 -0.5826  0.2294
    7SAPS  H18R  874   6.520   5.910   8.903 -1.0986  1.2769  0.4153
    7SAPS  H18S  875   6.420   5.977   9.041  0.2388  0.5186 -0.8552
    7SAPS  C219  876   6.308   5.875   8.891 -0.0776 -0.3093 -0.6735
    7SAPS  H19R  877   6.231   5.818   8.947  0.6933  0.4874  1.2748
    7SAPS  H19S  878   6.335   5.799   8.814 -0.1953 -2.5343  1.3668
    7SAPS  C220  879   6.256   6.010   8.833  0.3288 -0.5190 -0.5497
    7SAPS  H20R  880   6.341   6.072   8.794  1.0587 -1.9565 -1.3112
    7SAPS  H20S  881   6.210   6.074   8.911  2.9094  2.7047 -1.3891
    7SAPS  H20T  882   6.183   5.981   8.755  0.6833 -1.0491 -0.6915
    7SAPS   C33  883   6.774   6.086  10.041  0.2785 -0.0849  0.3675
    7SAPS   H3X  884   6.797   6.085  10.150  0.2640  1.1558  0.3924
    7SAPS   H3Y  885   6.829   6.172   9.999  2.1070 -0.6895  1.4177
    7SAPS   C34  886   6.832   5.958   9.974  0.2295  0.5596 -0.5472
    7SAPS   H4X  887   6.823   5.864  10.031  1.6171  0.4139 -0.5502
    7SAPS   H4Y  888   6.942   5.968   9.981  0.2434 -0.2137  0.3735
    7SAPS   C35  889   6.809   5.938   9.818  0.2561  0.0702 -0.0589
    7SAPS   H5X  890   6.705   5.901   9.814  0.8031 -1.7029  0.9625
    7SAPS   H5Y  891   6.878   5.858   9.783 -0.5543 -1.1898  1.1600
    7SAPS   C36  892   6.823   6.069   9.733 -0.4821 -0.1239  0.4383
    7SAPS   H6X  893   6.929   6.102   9.728 -0.8391  0.8576 -1.2440
    7SAPS   H6Y  894   6.765   6.149   9.786 -0.8599  1.5219 -2.2926
    7SAPS   C37  895   6.773   6.065   9.583  0.3076 -0.9624 -0.2831
    7SAPS   H7X  896   6.677   6.011   9.572 -0.4390 -0.3771  2.5576
    7SAPS   H7Y  897   6.858   6.028   9.522  2.1868 -0.2107  1.7407
    7SAPS   C38  898   6.747   6.204   9.530  0.0235  0.0479 -1.1135
    7SAPS   H8X  899   6.835   6.273   9.528 -0.7177  1.0054 -1.6051
    7SAPS   H8Y  900   6.668   6.257   9.587 -1.2102 -0.2866 -2.4700
    7SAPS   C39  901   6.706   6.207   9.376  0.2157  0.5513 -0.8671
    7SAPS   H9X  902   6.665   6.308   9.356 -0.9350  0.3708  0.4912
    7SAPS   H9Y  903   6.622   6.135   9.366 -1.0868  1.2659  3.2371
    7SAPS  C310  904   6.817   6.194   9.272 -0.6579  0.3998 -0.7804
    7SAPS  H10X  905   6.862   6.093   9.266  2.8292  1.6901  1.1238
    7SAPS  H10Y  906   6.901   6.247   9.320  0.2889 -1.7862  0.1212
    7SAPS  C311  907   6.791   6.244   9.134  0.1614  0.3729  0.3348
    7SAPS  H11X  908   6.883   6.262   9.075  0.9369 -0.2660  1.3134
    7SAPS  H11Y  909   6.741   6.343   9.140 -1.3510 -0.4080  1.2191
    7SAPS  C312  910   6.690   6.157   9.058 -0.3617  0.8462 -0.2415
    7SAPS  H12X  911   6.596   6.156   9.116  0.3332 -2.5800  1.0640
    7SAPS  H12Y  912   6.724   6.054   9.033 -3.0107 -0.1378 -0.0668
    7SAPS  C313  913   6.677   6.195   8.910  0.0911  0.0946 -0.1029
    7SAPS  H13X  914   6.619   6.116   8.859  0.0500 -0.0905  0.2312
    7SAPS  H13Y  915   6.775   6.207   8.860  0.4078  2.3252  0.9100
    7SAPS  C314  916   6.597   6.323   8.894 -0.6202 -0.0255 -0.0336
    7SAPS  H14X  917   6.598   6.356   8.787  1.8518 -0.7782 -0.3052
    7SAPS  H14Y  918   6.657   6.405   8.940 -0.7322  1.4936 -2.4065
    7SAPS  C315  919   6.452   6.328   8.951 -1.0709  0.8877 -0.1058
    7SAPS  H15X  920   6.450   6.366   9.056 -1.7812  1.1338 -0.2033
    7SAPS  H15Y  921   6.417   6.224   8.966 -1.2184  0.7635 -1.2916
    7SAPS  C316  922   6.355   6.415   8.876 -0.2918  0.5493  0.2651
    7SAPS  H16X  923   6.334   6.366   8.779  1.4121  1.2861 -0.5108
    7SAPS  H16Y  924   6.394   6.517   8.855  0.3910  0.4495  1.0109
    7SAPS  C317  925   6.217   6.439   8.940 -0.2613  0.6021 -0.2718
    7SAPS  H17X  926   6.225   6.463   9.048 -1.6911 -2.0574  0.5119
    7SAPS  H17Y  927   6.164   6.342   8.935 -0.6215  0.7524  0.4211
    7SAPS  C318  928   6.136   6.536   8.856  0.1986 -0.3780 -0.1702
    7SAPS  H18X  929   6.029   6.521   8.884  0.1423 -3.3457 -1.5606
    7SAPS  H18Y  930   6.138   6.507   8.748  0.5277 -1.7391  0.1767
    7SAPS  H18Z  931   6.169   6.640   8.871  3.0131 -1.0936 -0.8290
    8SAPS     N  932   3.458   5.633  11.068 -0.5232  0.2179  0.1521
    8SAPS   HN1  933   3.438   5.733  11.086 -2.4415 -0.5368  2.9113
    8SAPS   HN2  934   3.478   5.579  11.155 -3.6525  0.0945  0.9153
    8SAPS   HN3  935   3.531   5.626  10.994 -2.1168  0.4669 -1.5137
    8SAPS   C12  936   3.326   5.588  11.021 -0.3244 -0.3042 -0.1652
    8SAPS  H12A  937   3.330   5.491  10.973 -1.6348 -0.5853  0.2380
    8SAPS   C13  938   3.216   5.587  11.122  0.2903 -0.3939 -0.7580
    8SAPS  O13A  939   3.239   5.607  11.251 -0.7252 -0.1284  0.7222
    8SAPS  O13B  940   3.104   5.546  11.078  0.2781 -0.1632 -0.3835
    8SAPS   C11  941   3.289   5.685  10.911 -0.1348 -0.3686 -0.1702
    8SAPS  H11A  942   3.192   5.660  10.862 -0.7158 -1.0155  1.2519
    8SAPS  H11B  943   3.364   5.683  10.828 -0.7921 -0.2275 -0.7805
    8SAPS     P  944   3.177   5.927  10.922 -0.2048  0.4725 -0.3713
    8SAPS   O13  945   3.044   5.877  10.951  0.1672 -0.0208  0.4698
    8SAPS   O14  946   3.207   6.054  10.994  0.0347  0.2633  0.3551
    8SAPS   O12  947   3.286   5.815  10.966  0.0906 -0.1432  0.5722
    8SAPS   O11  948   3.203   5.947  10.767  0.5437  0.2082  0.2513
    8SAPS    C1  949   3.325   5.976  10.709 -0.4112 -1.1978 -0.2808
    8SAPS    HA  950   3.403   5.994  10.786  0.0987  0.5228 -1.1477
    8SAPS    HB  951   3.350   5.889  10.645  1.0420 -1.7784  1.0233
    8SAPS    C2  952   3.313   6.109  10.627 -0.2446  0.5932 -0.4885
    8SAPS    HS  953   3.257   6.184  10.687  1.1546  1.0823  0.2279
    8SAPS   O21  954   3.247   6.069  10.505  0.4541  0.6152 -0.5556
    8SAPS   C21  955   3.160   6.156  10.457  0.6030 -0.4268 -0.1167
    8SAPS   O22  956   3.117   6.258  10.514  0.2237 -0.0571  0.2161
    8SAPS   C22  957   3.102   6.099  10.331 -0.5462 -0.1348 -0.4643
    8SAPS   H2R  958   3.001   6.058  10.354  0.1758 -0.6410  2.1040
    8SAPS   H2S  959   3.089   6.179  10.256  1.4117  1.6054  0.9336
    8SAPS    C3  960   3.447   6.176  10.586 -0.0587  0.0059 -0.6571
    8SAPS    HX  961   3.518   6.106  10.535  1.4852  1.8824 -1.1970
    8SAPS    HY  962   3.499   6.200  10.681 -0.3640  0.7472 -0.6784
    8SAPS   O31  963   3.430   6.296  10.513 -0.0443 -0.1641  0.3239
    8SAPS   C31  964   3.408   6.413  10.577 -0.2652 -0.3416  0.5231
    8SAPS   O32  965   3.397   6.425  10.695 -0.7938 -0.2190 -0.7256
    8SAPS   C32  966   3.399   6.536  10.475 -0.2290  0.0156 -0.4644
    8SAPS   H2X  967   3.500   6.582  10.473 -0.0450 -0.2802  0.9942
    8SAPS   H2Y  968   3.338   6.614  10.526 -1.0371 -0.1126 -1.2166
    8SAPS   C23  969   3.185   5.982  10.253 -0.2776  0.2970  0.1723
    8SAPS   H3R  970   3.118   5.939  10.176  0.8744 -1.6488  0.2096
    8SAPS   H3S  971   3.221   5.908  10.328  0.9318  1.7562  1.1043
    8SAPS   C24  972   3.310   6.033  10.186 -0.3574 -0.3667 -0.7276
    8SAPS   H4R  973   3.359   5.944  10.142  1.2774  0.6070 -0.9441
    8SAPS   H4S  974   3.373   6.079  10.265 -1.4187 -0.5069  0.2363
    8SAPS   C25  975   3.283   6.138  10.084 -0.3021 -0.0925 -0.1640
    8SAPS   H5R  976   3.177   6.167  10.079 -0.7229 -1.0916  1.8224
    8SAPS   C26  977   3.380   6.192   9.997 -0.1649  0.1032 -0.0246
    8SAPS   H6R  978   3.344   6.268   9.926  2.6467  1.3708 -0.2377
    8SAPS   C27  979   3.529   6.160   9.985 -0.0060 -0.7531 -0.2234
    8SAPS   H7R  980   3.548   6.080  10.060  0.6806  1.9872  2.7597
    8SAPS   H7S  981   3.595   6.242  10.023  0.2135 -0.1679 -1.8153
    8SAPS   C28  982   3.570   6.128   9.841  0.3717 -0.1811 -0.4444
    8SAPS   H8R  983   3.566   6.023   9.810  0.3319  0.6198 -3.5274
    8SAPS   C29  984   3.592   6.226   9.747  0.8257  0.2705 -0.5165
    8SAPS   H9R  985   3.612   6.199   9.643 -0.4297  2.5009 -1.4103
    8SAPS  C210  986   3.584   6.377   9.757 -0.1304  0.3437  0.2272
    8SAPS  H10R  987   3.546   6.417   9.853 -0.6262 -1.8426  1.0041
    8SAPS  H10S  988   3.514   6.414   9.679  1.8584  0.7713 -1.4455
    8SAPS  C211  989   3.722   6.433   9.723  0.1812  0.1592  0.5722
    8SAPS  H11R  990   3.806   6.395   9.783  0.5840 -0.6010 -0.4446
    8SAPS  C212  991   3.756   6.528   9.633  0.3827  0.2955 -0.1838
    8SAPS  H12R  992   3.861   6.560   9.623  0.5473 -0.1682 -0.0010
    8SAPS  C213  993   3.663   6.590   9.534  0.2675  0.2242 -0.5800
    8SAPS  H13R  994   3.720   6.678   9.497  0.9043 -0.0611 -0.3034
    8SAPS  H13S  995   3.574   6.627   9.589  0.1214 -1.5272  0.4257
    8SAPS  C214  996   3.611   6.508   9.421 -0.0929 -0.3117  0.2613
    8SAPS  H14R  997   3.596   6.402   9.444 -2.5981  0.2987  1.8004
    8SAPS  C215  998   3.576   6.555   9.299  0.0785  1.1313  0.2875
    8SAPS  H15R  999   3.548   6.478   9.226 -2.7470  3.3872 -1.2475
    8SAPS  C216 1000   3.573   6.692   9.249 -0.3262 -0.1669  0.1990
    8SAPS  H16R 1001   3.652   6.745   9.306 -0.5090 -0.6466  0.9112
    8SAPS  H16S 1002   3.478   6.744   9.275 -0.7360  0.3592 -2.1657
    8SAPS  C217 1003   3.590   6.703   9.096  0.5718 -0.3655 -0.1523
    8SAPS  H17R 1004   3.678   6.643   9.065  0.0921 -2.9420  2.8687
    8SAPS  H17S 1005   3.613   6.810   9.082 -1.8518  0.8916  3.7518
    8SAPS  C218 1006   3.471   6.657   9.002 -0.6172 -0.0856  0.1896
    8SAPS  H18R 1007   3.381   6.692   9.057  0.6597 -0.6850  2.7759
    8SAPS  H18S 1008   3.469   6.546   8.999 -0.0802 -0.1544  1.8249
    8SAPS  C219 1009   3.470   6.722   8.862 -0.5577 -0.4485 -0.3016
    8SAPS  H19R 1010   3.520   6.820   8.873  1.2861 -1.4896  1.2553
    8SAPS  H19S 1011   3.361   6.732   8.845 -0.2643  1.1011 -1.4673
    8SAPS  C220 1012   3.532   6.631   8.748  0.2267  0.3520  0.7134
    8SAPS  H20R 1013   3.642   6.622   8.759  0.0610 -1.6825  1.1664
    8SAPS  H20S 1014   3.488   6.662   8.651 -0.2378  1.5800  1.2953
    8SAPS  H20T 1015   3.498   6.526   8.762  2.6218 -0.7309 -0.8658
    8SAPS   C33 1016   3.343   6.505  10.327 -0.3827 -0.2591 -0.4725
    8SAPS   H3X 1017   3.238   6.472  10.344 -0.1524 -0.4449  0.6404
    8SAPS   H3Y 1018   3.398   6.421  10.279 -1.9100 -1.2091 -0.6410
    8SAPS   C34 1019   3.366   6.623  10.234  0.1651 -0.3333  0.0400
    8SAPS   H4X 1020   3.471   6.658  10.229  0.2836 -0.6117  0.5657
    8SAPS   H4Y 1021   3.307   6.710  10.270  1.3227 -0.6432  2.9514
    8SAPS   C35 1022   3.326   6.599  10.096  0.3220 -0.4988  0.6012
    8SAPS   H5X 1023   3.221   6.565  10.112 -0.1783  0.7276  0.0483
    8SAPS   H5Y 1024   3.389   6.527  10.039 -1.4069 -1.7315  0.1705
    8SAPS   C36 1025   3.332   6.734  10.013 -0.2933 -0.0094  0.1685
    8SAPS   H6X 1026   3.436   6.771  10.003 -0.6652  0.7920 -1.0945
    8SAPS   H6Y 1027   3.264   6.808  10.061 -0.3035  0.7868 -1.0364
    8SAPS   C37 1028   3.297   6.706   9.866  0.1651 -0.5218  0.1837
    8SAPS   H7X 1029   3.194   6.668   9.849 -0.0113  0.5304 -1.3425
    8SAPS   H7Y 1030   3.373   6.629   9.841  0.6000 -0.2908  0.7736
    8SAPS   C38 1031   3.325   6.819   9.761 -0.7673  0.1182 -0.0620
    8SAPS   H8X 1032   3.433   6.821   9.735 -0.8594 -3.2936 -1.1553
    8SAPS   H8Y 1033   3.298   6.916   9.809 -2.4040 -1.3134  2.1156
    8SAPS   C39 1034   3.247   6.805   9.631 -0.7858  0.2065  0.1837
    8SAPS   H9X 1035   3.138   6.809   9.652 -0.7729 -1.0025  0.5753
    8SAPS   H9Y 1036   3.269   6.702   9.595  0.7134  0.5425  0.0748
    8SAPS  C310 1037   3.300   6.903   9.523 -0.2641  0.1427  0.5149
    8SAPS  H10X 1038   3.285   6.864   9.420 -0.3405  1.3162  0.0712
    8SAPS  H10Y 1039   3.409   6.917   9.539 -0.3229  2.1043 -0.5719
    8SAPS  C311 1040   3.235   7.036   9.522  0.1084  0.4679  0.2465
    8SAPS  H11X 1041   3.226   7.078   9.625 -0.9547 -2.9938  1.7216
    8SAPS  H11Y 1042   3.133   7.023   9.481  0.7116  1.4517 -1.6789
    8SAPS  C312 1043   3.316   7.139   9.440  0.2747  1.1305 -0.0977
    8SAPS  H12X 1044   3.414   7.135   9.491 -0.9443 -1.0535  2.3005
    8SAPS  H12Y 1045   3.278   7.241   9.464 -1.4463  0.0091  2.2851
    8SAPS  C313 1046   3.325   7.119   9.287  0.1172  0.5269 -0.1379
    8SAPS  H13X 1047   3.226   7.092   9.244  0.2144 -0.4424  0.2336
    8SAPS  H13Y 1048   3.395   7.034   9.274 -0.7995 -0.3515  0.5124
    8SAPS  C314 1049   3.389   7.236   9.223 -0.1993  0.3808 -0.2650
    8SAPS  H14X 1050   3.484   7.264   9.272  0.7652 -0.0969 -1.8083
    8SAPS  H14Y 1051   3.321   7.320   9.248  1.2637  0.5604  3.7717
    8SAPS  C315 1052   3.420   7.212   9.072  0.6679  0.3088  0.3128
    8SAPS  H15X 1053   3.335   7.159   9.024  0.3689  0.9791  0.0861
    8SAPS  H15Y 1054   3.517   7.158   9.064  1.6159  1.5598  2.4590
    8SAPS  C316 1055   3.445   7.341   8.990 -0.3473  0.6511 -0.5629
    8SAPS  H16X 1056   3.354   7.404   8.996 -0.4190  0.6480 -1.4604
    8SAPS  H16Y 1057   3.467   7.309   8.886  3.0195  0.9214 -0.0463
    8SAPS  C317 1058   3.564   7.419   9.043  0.4691 -0.6089 -0.0171
    8SAPS  H17X 1059   3.656   7.358   9.052  0.7382  0.0320  2.0816
    8SAPS  H17Y 1060   3.540   7.463   9.142  2.1979  2.2025 -0.7488
    8SAPS  C318 1061   3.582   7.548   8.957  0.2531  0.6429  0.1967
    8SAPS  H18X 1062   3.587   7.517   8.850 -0.3644  1.1724  0.0065
    8SAPS  H18Y 1063   3.677   7.599   8.984  0.6459 -0.7258  1.4773
    8SAPS  H18Z 1064   3.505   7.624   8.986  0.9606  0.6511  2.1630
    9SAPS     N 1065   1.285   1.201   5.765  0.1374 -0.0042 -0.1456
    9SAPS   HN1 1066   1.320   1.295   5.795 -0.1237 -0.2790  1.0736
    9SAPS   HN2 1067   1.346   1.121   5.789 -1.3857 -1.3464 -0.5962
    9SAPS   HN3 1068   1.273   1.210   5.662 -3.4497 -0.1215  0.1200
    9SAPS   C12 1069   1.160   1.166   5.840 -0.3179  0.6095 -0.1729
    9SAPS  H12A 1070   1.075   1.228   5.816 -0.7178 -0.7020 -2.4684
    9SAPS   C13 1071   1.118   1.029   5.791 -0.7704  0.9133 -0.2393
    9SAPS  O13A 1072   1.179   0.963   5.704  0.3038  0.5642  0.3421
    9SAPS  O13B 1073   1.019   0.973   5.848  0.1553 -0.7066 -0.2592
    9SAPS   C11 1074   1.177   1.154   5.996  0.1689 -0.0509  0.6111
    9SAPS  H11A 1075   1.246   1.067   6.007 -1.4341 -1.4412  0.0934
    9SAPS  H11B 1076   1.074   1.129   6.028  0.1751 -0.5306  0.2700
    9SAPS     P 1077   1.159   1.335   6.173  0.5915  0.1142 -0.0727
    9SAPS   O13 1078   1.235   1.454   6.216  0.1642 -0.0510  1.0095
    9SAPS   O14 1079   1.009   1.354   6.170  0.4000 -0.7033  0.0188
    9SAPS   O12 1080   1.220   1.281   6.044  0.2127 -0.4663  0.0011
    9SAPS   O11 1081   1.191   1.220   6.276  0.0032  0.2396  0.3322
    9SAPS    C1 1082   1.081   1.148   6.334 -0.0165 -0.1777  0.3063
    9SAPS    HA 1083   0.988   1.146   6.274 -0.6236  2.9613  0.9362
    9SAPS    HB 1084   1.115   1.048   6.368  0.8850 -0.3949 -1.1186
    9SAPS    C2 1085   1.038   1.213   6.469  0.2341  0.9228  0.0341
    9SAPS    HS 1086   0.992   1.313   6.449  0.2156  1.2939  1.8005
    9SAPS   O21 1087   1.155   1.214   6.557  0.0533  0.2566  0.0312
    9SAPS   C21 1088   1.175   1.329   6.634 -0.3978  0.4726  0.1221
    9SAPS   O22 1089   1.092   1.419   6.646 -0.2550 -0.1341  0.3326
    9SAPS   C22 1090   1.308   1.319   6.709  0.0291  0.0841  0.0838
    9SAPS   H2R 1091   1.299   1.216   6.751 -1.9425  0.8894  1.7871
    9SAPS   H2S 1092   1.383   1.329   6.628 -1.7417  3.5986 -1.3038
    9SAPS    C3 1093   0.923   1.124   6.534 -0.4206  0.1200 -0.6086
    9SAPS    HX 1094   0.942   1.017   6.510  1.7727  0.3062  0.1306
    9SAPS    HY 1095   0.823   1.156   6.496 -0.0158  1.1165 -0.8565
    9SAPS   O31 1096   0.919   1.133   6.676 -0.3219  0.1586  0.1556
    9SAPS   C31 1097   0.861   1.242   6.731  0.1976 -0.3669  0.6370
    9SAPS   O32 1098   0.795   1.315   6.659 -0.4728  0.1267  0.4952
    9SAPS   C32 1099   0.887   1.252   6.880 -0.4111 -0.3041  0.1087
    9SAPS   H2X 1100   0.892   1.359   6.910 -1.3693  0.0304 -0.8800
    9SAPS   H2Y 1101   0.976   1.192   6.910 -0.3159 -0.4126 -0.3793
    9SAPS   C23 1102   1.335   1.434   6.801  0.6378 -0.4548 -0.2791
    9SAPS   H3R 1103   1.317   1.531   6.749  0.7341  0.3718  1.1648
    9SAPS   H3S 1104   1.445   1.431   6.814  0.9339  1.9464 -1.4987
    9SAPS   C24 1105   1.248   1.448   6.932 -0.5346 -0.4012 -0.9195
    9SAPS   H4R 1106   1.148   1.464   6.886  0.2290  2.8444 -1.6432
    9SAPS   H4S 1107   1.275   1.544   6.981 -2.2267 -0.4638  0.2045
    9SAPS   C25 1108   1.252   1.334   7.022  0.2597 -0.2605 -0.0715
    9SAPS   H5R 1109   1.219   1.244   6.967 -0.5933  1.3083 -2.2715
    9SAPS   C26 1110   1.281   1.338   7.148  0.4214  0.1574 -0.6167
    9SAPS   H6R 1111   1.274   1.244   7.204  1.0454  0.2652 -0.3485
    9SAPS   C27 1112   1.324   1.449   7.238  0.4579 -0.4555  0.0472
    9SAPS   H7R 1113   1.236   1.485   7.295 -0.5758  1.4067 -2.5176
    9SAPS   H7S 1114   1.349   1.541   7.180 -1.7607 -0.0441 -0.3618
    9SAPS   C28 1115   1.431   1.417   7.337 -0.7300  0.7275  0.6771
    9SAPS   H8R 1116   1.534   1.419   7.298 -1.1302  0.5760 -0.4193
    9SAPS   C29 1117   1.414   1.379   7.461  0.4126 -0.8710  0.3129
    9SAPS   H9R 1118   1.502   1.362   7.525  0.6975  1.6244  0.6765
    9SAPS  C210 1119   1.279   1.370   7.541 -0.6209 -0.2523  0.3515
    9SAPS  H10R 1120   1.192   1.393   7.477 -0.9960  0.3628  1.0650
    9SAPS  H10S 1121   1.282   1.454   7.613  2.6492  0.8344 -0.8780
    9SAPS  C211 1122   1.234   1.241   7.612 -0.2304  0.2506 -0.0288
    9SAPS  H11R 1123   1.218   1.158   7.542 -1.1213  0.7001 -0.3667
    9SAPS  C212 1124   1.237   1.213   7.747  0.9464  0.0968 -0.5802
    9SAPS  H12R 1125   1.217   1.108   7.773 -0.2657  0.2134 -0.9977
    9SAPS  C213 1126   1.271   1.297   7.872  0.2876 -0.3852 -0.3558
    9SAPS  H13R 1127   1.312   1.394   7.837  1.4766 -0.5289  0.5371
    9SAPS  H13S 1128   1.354   1.242   7.923  2.3245  3.0691  0.3699
    9SAPS  C214 1129   1.157   1.325   7.971 -0.0102 -0.5050 -0.0350
    9SAPS  H14R 1130   1.066   1.371   7.931  0.8762  0.5268 -0.9065
    9SAPS  C215 1131   1.152   1.288   8.099 -0.5632 -1.0551 -0.7533
    9SAPS  H15R 1132   1.070   1.326   8.161  0.5671  0.6079 -0.2246
    9SAPS  C216 1133   1.257   1.215   8.178  0.0532  0.0210 -0.3792
    9SAPS  H16R 1134   1.344   1.200   8.111  0.5540  0.2490  0.2074
    9SAPS  H16S 1135   1.233   1.112   8.212  3.3684  0.0777  2.7413
    9SAPS  C217 1136   1.310   1.275   8.309  0.0907 -0.7633 -0.7952
    9SAPS  H17R 1137   1.372   1.364   8.286  0.6268 -0.5779  1.1379
    9SAPS  H17S 1138   1.375   1.204   8.364 -1.9889 -0.5732  2.1732
    9SAPS  C218 1139   1.202   1.327   8.410  0.1695 -0.1541 -0.1699
    9SAPS  H18R 1140   1.134   1.248   8.448 -0.0100 -0.7111 -1.5746
    9SAPS  H18S 1141   1.135   1.385   8.342  0.9702  1.3176  0.2482
    9SAPS  C219 1142   1.264   1.411   8.524 -0.6034 -0.4350 -0.3992
    9SAPS  H19R 1143   1.341   1.481   8.486  1.0308 -2.5485 -1.1970
    9SAPS  H19S 1144   1.319   1.347   8.596 -0.9278 -0.7854 -0.4599
    9SAPS  C220 1145   1.156   1.497   8.592 -0.5023  0.4538  0.3787
    9SAPS  H20R 1146   1.100   1.568   8.526  1.1232 -0.4288 -2.0852
    9SAPS  H20S 1147   1.202   1.550   8.679 -2.2917  2.7296  0.0627
    9SAPS  H20T 1148   1.081   1.431   8.641  0.4241 -1.2257 -0.3942
    9SAPS   C33 1149   0.777   1.188   6.964 -0.2546 -0.2696  0.6581
    9SAPS   H3X 1150   0.752   1.093   6.911  1.0594  0.2305 -0.9239
    9SAPS   H3Y 1151   0.689   1.255   6.970 -0.6579 -0.8583  1.5766
    9SAPS   C34 1152   0.824   1.164   7.111 -0.5139 -0.5798  0.4067
    9SAPS   H4X 1153   0.865   1.061   7.121 -0.4499 -0.5894  0.0545
    9SAPS   H4Y 1154   0.732   1.158   7.173 -1.0989 -1.1138 -0.4853
    9SAPS   C35 1155   0.912   1.279   7.177  0.2897 -0.5463 -0.2943
    9SAPS   H5X 1156   0.856   1.375   7.174  0.0492 -0.6020  1.3669
    9SAPS   H5Y 1157   0.999   1.292   7.110 -0.8381 -1.3416 -1.9855
    9SAPS   C36 1158   0.952   1.240   7.327 -0.4417  0.1067  1.4224
    9SAPS   H6X 1159   1.027   1.317   7.357  0.2757 -0.7048  1.7432
    9SAPS   H6Y 1160   0.999   1.140   7.320 -1.4900 -0.3794  1.1140
    9SAPS   C37 1161   0.849   1.228   7.431 -0.0493  0.0239  0.4191
    9SAPS   H7X 1162   0.763   1.171   7.390  0.6090 -1.7965  1.4586
    9SAPS   H7Y 1163   0.807   1.329   7.452  0.9407  0.2207  1.5992
    9SAPS   C38 1164   0.898   1.165   7.556 -1.0618  0.1375  0.0036
    9SAPS   H8X 1165   0.972   1.226   7.613 -1.5013  1.9247 -1.2376
    9SAPS   H8Y 1166   0.957   1.072   7.539  1.5232  1.3004  1.8728
    9SAPS   C39 1167   0.782   1.117   7.650  1.4951 -0.3689 -0.6330
    9SAPS   H9X 1168   0.816   1.034   7.715 -1.2676 -0.1647  1.2783
    9SAPS   H9Y 1169   0.699   1.088   7.583  0.6095  0.8230 -0.1040
    9SAPS  C310 1170   0.722   1.231   7.737  0.0063  0.0945 -0.2371
    9SAPS  H10X 1171   0.611   1.220   7.738 -0.0327  0.0997 -1.8150
    9SAPS  H10Y 1172   0.746   1.332   7.698 -1.2952  0.7988  0.7010
    9SAPS  C311 1173   0.770   1.224   7.881  0.2492  0.3395  0.8590
    9SAPS  H11X 1174   0.748   1.320   7.932  1.1183  2.8112 -2.9946
    9SAPS  H11Y 1175   0.878   1.200   7.878 -0.2843 -2.3125 -0.1708
    9SAPS  C312 1176   0.714   1.098   7.956  0.3227 -0.1871 -0.1782
    9SAPS  H12X 1177   0.711   1.011   7.887  0.6222 -0.5377  0.2435
    9SAPS  H12Y 1178   0.612   1.120   7.994  0.5292  0.4168  0.0354
    9SAPS  C313 1179   0.799   1.068   8.083 -0.7302  0.4781  0.3110
    9SAPS  H13X 1180   0.902   1.108   8.071 -0.5163  0.4067  1.7690
    9SAPS  H13Y 1181   0.803   0.958   8.099 -0.2921  0.2570 -1.1141
    9SAPS  C314 1182   0.741   1.127   8.205 -0.2928 -0.7434  0.3339
    9SAPS  H14X 1183   0.646   1.074   8.229  0.1384 -1.6729  0.0217
    9SAPS  H14Y 1184   0.720   1.235   8.190  1.6402 -0.3403  0.2887
    9SAPS  C315 1185   0.831   1.113   8.325  0.3827  0.4505  0.2327
    9SAPS  H15X 1186   0.927   1.167   8.321  0.8975 -0.4590 -0.0494
    9SAPS  H15Y 1187   0.852   1.004   8.333  0.3430  0.5347  1.6819
    9SAPS  C316 1188   0.761   1.152   8.457  0.4412  0.1814  0.5367
    9SAPS  H16X 1189   0.673   1.088   8.480 -0.2350  0.0080 -2.1213
    9SAPS  H16Y 1190   0.707   1.247   8.439 -1.1115 -0.8666 -0.6925
    9SAPS  C317 1191   0.844   1.155   8.579  0.9755  0.7766 -0.4852
    9SAPS  H17X 1192   0.933   1.221   8.568  1.5183  0.0280 -0.5902
    9SAPS  H17Y 1193   0.894   1.057   8.589 -1.7079 -0.7550 -1.0979
    9SAPS  C318 1194   0.771   1.186   8.707 -0.4612  0.7373  0.8781
    9SAPS  H18X 1195   0.699   1.107   8.736  1.1202 -1.0455  0.1495
    9SAPS  H18Y 1196   0.721   1.285   8.702  0.4184  1.1652  0.2758
    9SAPS  H18Z 1197   0.842   1.195   8.793 -1.3036  1.8762  1.4791
   10SAPS     N 1198   0.081   1.120   6.354  0.8595 -0.0342  0.3646
   10SAPS   HN1 1199   0.072   1.018   6.371 -0.3812  0.1139  0.6822
   10SAPS   HN2 1200   0.180   1.139   6.327  0.4579  0.4140 -0.8519
   10SAPS   HN3 1201   0.042   1.172   6.436  2.0959  0.5229  0.6312
   10SAPS   C12 1202   0.009   1.140   6.225  0.3122 -0.4879 -0.2120
   10SAPS  H12A 1203   0.020   1.246   6.205 -0.2779 -0.2816  0.5267
   10SAPS   C13 1204   0.048   1.054   6.099  0.3638  0.9329 -0.5145
   10SAPS  O13A 1205   0.158   0.993   6.098 -0.7559  0.4514 -0.0984
   10SAPS  O13B 1206  -0.020   1.053   5.995 -0.1416 -0.2864 -0.5988
   10SAPS   C11 1207  -0.142   1.102   6.259 -0.3758  0.0442 -0.0258
   10SAPS  H11A 1208  -0.135   0.991   6.256  2.2628  0.1671 -0.9279
   10SAPS  H11B 1209  -0.203   1.144   6.177  0.3407  1.0663 -0.0596
   10SAPS     P 1210  -0.330   1.140   6.431  0.0625  0.1062 -0.1290
   10SAPS   O13 1211  -0.409   1.245   6.363 -0.4335  0.1774  0.3018
   10SAPS   O14 1212  -0.371   1.002   6.410  0.1095  0.7279 -0.0112
   10SAPS   O12 1213  -0.184   1.160   6.385  0.7915 -0.0991  0.5890
   10SAPS   O11 1214  -0.324   1.174   6.589 -0.2424 -0.0901  0.6129
   10SAPS    C1 1215  -0.278   1.308   6.618 -0.1945  0.5410  0.0742
   10SAPS    HA 1216  -0.171   1.324   6.594  0.1725  1.8731  2.2382
   10SAPS    HB 1217  -0.342   1.376   6.557 -1.0361  0.4659  0.8508
   10SAPS    C2 1218  -0.294   1.345   6.769  0.1286 -0.4009  0.3412
   10SAPS    HS 1219  -0.224   1.428   6.792 -1.0116  0.6797  0.0181
   10SAPS   O21 1220  -0.279   1.239   6.866 -0.0199  0.0841 -0.0932
   10SAPS   C21 1221  -0.165   1.169   6.850  0.6671  0.3838  0.0531
   10SAPS   O22 1222  -0.072   1.207   6.778  0.0096 -0.3179 -0.2552
   10SAPS   C22 1223  -0.172   1.037   6.935 -0.2554  0.6257  0.3744
   10SAPS   H2R 1224  -0.274   1.017   6.973 -1.0785  1.9874 -1.0420
   10SAPS   H2S 1225  -0.144   0.951   6.870 -1.0276  0.7962 -0.1891
   10SAPS    C3 1226  -0.436   1.404   6.777  0.7809  0.5157 -0.4324
   10SAPS    HX 1227  -0.503   1.334   6.723  0.4287 -0.1900  0.8758
   10SAPS    HY 1228  -0.456   1.499   6.722 -2.0261  0.4722  0.3310
   10SAPS   O31 1229  -0.480   1.414   6.916 -0.0820 -0.2165  0.5152
   10SAPS   C31 1230  -0.454   1.522   6.985 -0.4715 -0.5144  0.4648
   10SAPS   O32 1231  -0.376   1.611   6.951 -0.2469  0.4536 -0.8712
   10SAPS   C32 1232  -0.500   1.488   7.131 -0.3001 -0.4537  0.7294
   10SAPS   H2X 1233  -0.476   1.381   7.149  0.1109 -0.9097 -2.1029
   10SAPS   H2Y 1234  -0.611   1.493   7.130 -0.4217 -2.3276 -0.1741
   10SAPS   C23 1235  -0.079   1.033   7.056 -0.1986 -0.3758  0.0451
   10SAPS   H3R 1236   0.026   1.045   7.023  0.5810 -0.6320  2.2743
   10SAPS   H3S 1237  -0.077   0.934   7.107  0.8674  0.1304  1.0208
   10SAPS   C24 1238  -0.113   1.134   7.174  0.4479  0.0318 -0.1152
   10SAPS   H4R 1239  -0.056   1.105   7.265  1.0450 -1.8278 -1.0336
   10SAPS   H4S 1240  -0.222   1.133   7.197  0.5218  0.1678  0.2567
   10SAPS   C25 1241  -0.058   1.274   7.151  0.2830  0.5306  0.0413
   10SAPS   H5R 1242  -0.018   1.296   7.051 -0.9395  2.0759 -0.1538
   10SAPS   C26 1243  -0.036   1.367   7.245 -0.8717  0.1567  0.3131
   10SAPS   H6R 1244   0.011   1.464   7.221 -0.4356  0.7543  3.2059
   10SAPS   C27 1245  -0.069   1.357   7.389 -0.5802  0.0310 -0.1303
   10SAPS   H7R 1246  -0.163   1.299   7.390 -0.6127  0.0504 -1.0609
   10SAPS   H7S 1247  -0.092   1.453   7.440  0.7536 -0.4888  1.5345
   10SAPS   C28 1248   0.053   1.295   7.467  0.1052  0.0514  0.3526
   10SAPS   H8R 1249   0.155   1.311   7.431  0.9697 -2.0345  1.6583
   10SAPS   C29 1250   0.033   1.204   7.560 -0.1026 -0.2256  0.0455
   10SAPS   H9R 1251   0.119   1.168   7.618  0.3771  1.7692  0.6777
   10SAPS  C210 1252  -0.111   1.154   7.601 -0.5496  0.7154 -0.0238
   10SAPS  H10R 1253  -0.094   1.059   7.656 -1.2487 -0.2246 -1.3823
   10SAPS  H10S 1254  -0.165   1.131   7.507  0.3118  0.7770 -0.5441
   10SAPS  C211 1255  -0.199   1.249   7.679 -0.0260  0.4520 -0.5488
   10SAPS  H11R 1256  -0.257   1.317   7.614 -2.9258 -0.4468  0.9115
   10SAPS  C212 1257  -0.207   1.258   7.816 -0.9926 -0.7735 -0.0478
   10SAPS  H12R 1258  -0.268   1.343   7.850  3.4903  2.0648  1.9688
   10SAPS  C213 1259  -0.124   1.180   7.918  0.4519  0.1353  0.7113
   10SAPS  H13R 1260  -0.039   1.124   7.873  2.0285  2.6155  0.3418
   10SAPS  H13S 1261  -0.200   1.113   7.963 -0.7712 -0.3664 -1.8781
   10SAPS  C214 1262  -0.063   1.272   8.013  0.4541  0.2701 -0.5743
   10SAPS  H14R 1263  -0.016   1.360   7.965 -0.8511  0.2412 -1.9801
   10SAPS  C215 1264  -0.076   1.284   8.148  0.9051 -0.0864 -0.2687
   10SAPS  H15R 1265  -0.015   1.362   8.196 -0.5426 -0.3599  2.1664
   10SAPS  C216 1266  -0.155   1.183   8.229 -0.1464 -0.1611  0.0528
   10SAPS  H16R 1267  -0.091   1.157   8.316 -0.9090  0.8391  0.9324
   10SAPS  H16S 1268  -0.176   1.091   8.170 -0.0364 -0.4756  0.4955
   10SAPS  C217 1269  -0.289   1.240   8.272  0.1514 -1.0637  0.1598
   10SAPS  H17R 1270  -0.278   1.329   8.338 -0.3394 -0.9018  0.0287
   10SAPS  H17S 1271  -0.348   1.166   8.330 -1.6111  0.3665  0.2971
   10SAPS  C218 1272  -0.382   1.289   8.155 -0.4728  0.4824 -0.1409
   10SAPS  H18R 1273  -0.388   1.199   8.091 -0.9536 -0.3710  1.0501
   10SAPS  H18S 1274  -0.335   1.377   8.107  0.1635  0.5241  0.5377
   10SAPS  C219 1275  -0.521   1.334   8.209  0.7108 -0.2699 -0.4985
   10SAPS  H19R 1276  -0.567   1.257   8.276  1.1147  0.6482  0.8782
   10SAPS  H19S 1277  -0.582   1.361   8.121 -0.8925  1.9457  1.1809
   10SAPS  C220 1278  -0.526   1.461   8.297  0.2318 -0.1607  0.5086
   10SAPS  H20R 1279  -0.631   1.484   8.323 -0.7980  2.8807 -4.8063
   10SAPS  H20S 1280  -0.483   1.550   8.245 -3.1484  1.5001  0.2982
   10SAPS  H20T 1281  -0.461   1.446   8.386  1.1087 -2.3674 -0.4365
   10SAPS   C33 1282  -0.435   1.578   7.234  0.1542  0.2595 -0.3875
   10SAPS   H3X 1283  -0.465   1.684   7.219  0.4842  0.6272  1.2506
   10SAPS   H3Y 1284  -0.325   1.563   7.221 -0.1744 -2.2688 -0.6183
   10SAPS   C34 1285  -0.465   1.544   7.385 -0.3810  0.0482 -0.5241
   10SAPS   H4X 1286  -0.414   1.446   7.402  1.6983  1.1692  0.0071
   10SAPS   H4Y 1287  -0.574   1.540   7.406 -0.4259 -0.0952 -0.7849
   10SAPS   C35 1288  -0.407   1.646   7.484  0.1836 -0.7645 -0.2001
   10SAPS   H5X 1289  -0.438   1.746   7.449  2.2560  1.4567  3.6738
   10SAPS   H5Y 1290  -0.296   1.641   7.487  0.1823 -0.6827  2.4674
   10SAPS   C36 1291  -0.454   1.622   7.630 -0.6653  0.0544 -0.3018
   10SAPS   H6X 1292  -0.427   1.517   7.658  2.4696  0.2920 -1.9526
   10SAPS   H6Y 1293  -0.564   1.626   7.645 -1.1585 -1.9085 -2.7550
   10SAPS   C37 1294  -0.388   1.716   7.725  0.5093 -0.1067  0.3760
   10SAPS   H7X 1295  -0.434   1.817   7.718 -1.5307 -1.0749 -1.2546
   10SAPS   H7Y 1296  -0.278   1.724   7.711  0.4252  1.5635  0.4600
   10SAPS   C38 1297  -0.414   1.676   7.869  0.3619  0.2449 -0.0864
   10SAPS   H8X 1298  -0.382   1.572   7.891 -1.5370 -0.0091  1.8239
   10SAPS   H8Y 1299  -0.522   1.686   7.894 -0.0366  1.3066 -2.0097
   10SAPS   C39 1300  -0.357   1.781   7.965 -0.6533  0.2848  0.7386
   10SAPS   H9X 1301  -0.396   1.873   7.917 -0.8562 -0.3181 -0.2780
   10SAPS   H9Y 1302  -0.246   1.787   7.963 -0.7469  2.4334 -0.2549
   10SAPS  C310 1303  -0.398   1.753   8.112  0.4547  0.1746  0.3357
   10SAPS  H10X 1304  -0.355   1.652   8.132  0.0430 -0.7471 -2.8676
   10SAPS  H10Y 1305  -0.509   1.738   8.113  0.4400  0.1780 -0.4833
   10SAPS  C311 1306  -0.355   1.862   8.209 -0.0213 -0.6291 -0.0757
   10SAPS  H11X 1307  -0.383   1.966   8.182  1.4345 -0.1021  0.3449
   10SAPS  H11Y 1308  -0.245   1.862   8.221 -0.0202  2.7340  0.8200
   10SAPS  C312 1309  -0.404   1.819   8.350  0.2143  0.1973  0.4963
   10SAPS  H12X 1310  -0.382   1.712   8.371 -0.2586 -0.1111 -0.5486
   10SAPS  H12Y 1311  -0.515   1.814   8.348  0.2649 -1.8230 -0.3819
   10SAPS  C313 1312  -0.336   1.909   8.455  0.1274  0.2100 -0.6555
   10SAPS  H13X 1313  -0.358   2.017   8.443  0.2431  0.5419  1.6950
   10SAPS  H13Y 1314  -0.228   1.886   8.469 -0.4093 -1.4676  1.3246
   10SAPS  C314 1315  -0.416   1.882   8.583 -0.8789 -0.0338  0.4011
   10SAPS  H14X 1316  -0.349   1.911   8.667 -0.2553  0.2377 -0.1763
   10SAPS  H14Y 1317  -0.436   1.774   8.599  0.9132 -0.0794  2.7790
   10SAPS  C315 1318  -0.544   1.961   8.590  0.3493 -0.1837 -0.3352
   10SAPS  H15X 1319  -0.614   1.956   8.503  0.1845  0.1423 -0.2238
   10SAPS  H15Y 1320  -0.524   2.070   8.593 -1.4334  0.1593  0.5328
   10SAPS  C316 1321  -0.627   1.924   8.715 -0.3533  0.7961 -0.5461
   10SAPS  H16X 1322  -0.565   1.932   8.806 -0.1505  1.9010 -0.7737
   10SAPS  H16Y 1323  -0.650   1.816   8.702  0.2160  0.5937  0.0934
   10SAPS  C317 1324  -0.755   2.003   8.747  0.5784 -0.6235  0.1603
   10SAPS  H17X 1325  -0.805   2.032   8.652  1.7056  0.2402 -0.1870
   10SAPS  H17Y 1326  -0.728   2.099   8.797 -1.2274  0.3409 -0.5882
   10SAPS  C318 1327  -0.856   1.950   8.854  0.8391 -0.8039 -0.0226
   10SAPS  H18X 1328  -0.925   2.035   8.874  0.8276 -1.2670  2.1364
   10SAPS  H18Y 1329  -0.806   1.929   8.951 -0.2287 -1.5509  0.3914
   10SAPS  H18Z 1330  -0.903   1.856   8.818 -0.8535  0.3406 -0.9430
   11SAPS     N 1331   2.725   5.314   5.667  0.0750  0.9757 -0.0739
   11SAPS   HN1 1332   2.807   5.351   5.720  2.5710 -1.2157 -2.0711
   11SAPS   HN2 1333   2.760   5.323   5.569  0.4910  3.2046  0.2255
   11SAPS   HN3 1334   2.646   5.381   5.676 -1.8747 -1.2015 -0.0005
   11SAPS   C12 1335   2.688   5.176   5.714  0.0269 -0.3702 -0.6689
   11SAPS  H12A 1336   2.592   5.145   5.675  0.3044 -3.5672  0.8190
   11SAPS   C13 1337   2.793   5.067   5.663  0.3052  0.8515  0.1981
   11SAPS  O13A 1338   2.871   5.096   5.574 -0.5806  0.4109 -0.0778
   11SAPS  O13B 1339   2.766   4.943   5.693 -0.0195  0.1054  0.4109
   11SAPS   C11 1340   2.680   5.180   5.869  0.4057 -0.0379  0.4552
   11SAPS  H11A 1341   2.777   5.224   5.900  0.3966  0.1524  0.2130
   11SAPS  H11B 1342   2.680   5.079   5.915  1.4257  1.4397  4.1347
   11SAPS     P 1343   2.452   5.207   5.994 -0.1177  0.3809 -0.0848
   11SAPS   O13 1344   2.397   5.319   6.068  0.8219 -0.0181  0.4440
   11SAPS   O14 1345   2.367   5.124   5.900  0.3680  0.2673 -0.6612
   11SAPS   O12 1346   2.572   5.271   5.914  0.1122 -0.6919  0.0197
   11SAPS   O11 1347   2.539   5.111   6.082  0.4392  0.0148  0.1000
   11SAPS    C1 1348   2.529   4.969   6.094 -0.7037 -0.3171 -0.0376
   11SAPS    HA 1349   2.472   4.925   6.008  0.7072  0.7953 -1.6101
   11SAPS    HB 1350   2.630   4.924   6.089 -0.4374  0.3678 -2.8519
   11SAPS    C2 1351   2.452   4.938   6.224 -0.3510  0.2721 -1.4374
   11SAPS    HS 1352   2.346   4.963   6.207 -0.3038  2.3647  0.8100
   11SAPS   O21 1353   2.516   5.022   6.325  0.1511 -0.8330 -0.8181
   11SAPS   C21 1354   2.441   5.079   6.423 -0.0276  1.3115  0.5798
   11SAPS   O22 1355   2.325   5.050   6.447 -0.7808  0.0112  0.4135
   11SAPS   C22 1356   2.525   5.169   6.503  0.4664 -0.4602 -0.4476
   11SAPS   H2R 1357   2.562   5.249   6.436 -0.6186  1.6096  1.3052
   11SAPS   H2S 1358   2.449   5.210   6.573  1.1130 -1.3696  0.8316
   11SAPS    C3 1359   2.451   4.785   6.265  0.2045  1.0538 -0.2667
   11SAPS    HX 1360   2.560   4.761   6.269  0.5318  2.0057 -2.0640
   11SAPS    HY 1361   2.416   4.717   6.184  2.0985 -0.4454  0.0920
   11SAPS   O31 1362   2.384   4.761   6.391  0.4116  0.0870  0.6493
   11SAPS   C31 1363   2.460   4.737   6.496 -0.1313 -0.0155 -0.4695
   11SAPS   O32 1364   2.582   4.733   6.502  0.6097 -1.1279 -0.2034
   11SAPS   C32 1365   2.369   4.705   6.618  0.2904 -0.7103 -0.2150
   11SAPS   H2X 1366   2.325   4.607   6.587  2.6829 -1.4750 -1.4893
   11SAPS   H2Y 1367   2.295   4.788   6.612 -0.5848 -1.4211  0.4593
   11SAPS   C23 1368   2.642   5.098   6.583  0.1675  0.6464 -0.1800
   11SAPS   H3R 1369   2.719   5.071   6.508  0.6355 -0.1153  0.5543
   11SAPS   H3S 1370   2.594   5.012   6.636  1.5738  1.3952  2.4804
   11SAPS   C24 1371   2.729   5.192   6.669 -0.1935 -0.4178 -0.4426
   11SAPS   H4R 1372   2.774   5.270   6.604 -1.2360 -0.6492 -1.4864
   11SAPS   H4S 1373   2.808   5.128   6.712  2.5196  3.0997  0.3022
   11SAPS   C25 1374   2.646   5.270   6.762  0.9532  0.6018  0.1041
   11SAPS   H5R 1375   2.573   5.336   6.713 -0.3337 -0.2362  0.8283
   11SAPS   C26 1376   2.632   5.241   6.894 -0.1728 -0.0941  0.0716
   11SAPS   H6R 1377   2.588   5.318   6.959  0.3279  0.5685 -0.3558
   11SAPS   C27 1378   2.715   5.146   6.972 -0.1644 -0.3070  0.0510
   11SAPS   H7R 1379   2.732   5.053   6.914 -1.0963 -1.4206  1.4805
   11SAPS   H7S 1380   2.643   5.112   7.049 -1.6318  1.2801 -0.5648
   11SAPS   C28 1381   2.839   5.217   7.028 -0.0296 -0.0488  0.2891
   11SAPS   H8R 1382   2.913   5.238   6.949  0.6338  1.0654  1.1687
   11SAPS   C29 1383   2.860   5.253   7.159 -0.1180  0.0381  0.0570
   11SAPS   H9R 1384   2.946   5.315   7.185 -0.5886 -0.0321  1.8843
   11SAPS  C210 1385   2.755   5.229   7.269  0.3964 -0.4072 -0.7922
   11SAPS  H10R 1386   2.707   5.128   7.269 -1.5466  0.4656  0.5509
   11SAPS  H10S 1387   2.674   5.302   7.252  0.5310  0.0517  0.4579
   11SAPS  C211 1388   2.805   5.243   7.410 -0.6362  0.1835 -0.0486
   11SAPS  H11R 1389   2.910   5.216   7.429 -0.8974  0.0754  1.3135
   11SAPS  C212 1390   2.736   5.302   7.511 -0.7650 -0.1365 -0.1793
   11SAPS  H12R 1391   2.787   5.323   7.607  0.8385  0.2505 -1.0816
   11SAPS  C213 1392   2.594   5.363   7.508 -0.1561 -0.1878 -0.2509
   11SAPS  H13R 1393   2.534   5.300   7.577 -1.3321  1.8085  0.6313
   11SAPS  H13S 1394   2.546   5.347   7.410  3.2683  2.6271 -2.6260
   11SAPS  C214 1395   2.594   5.505   7.558 -0.0354  0.1406  0.4579
   11SAPS  H14R 1396   2.618   5.500   7.665  1.1989 -1.4975  0.1465
   11SAPS  C215 1397   2.597   5.619   7.483  0.1272  0.3756 -0.7925
   11SAPS  H15R 1398   2.593   5.715   7.536 -1.8591 -0.9354  1.6747
   11SAPS  C216 1399   2.587   5.633   7.337  0.1716 -0.6055  0.4396
   11SAPS  H16R 1400   2.598   5.537   7.284  0.7858  0.1227 -0.7732
   11SAPS  H16S 1401   2.667   5.699   7.298 -1.3921  1.1939  0.1271
   11SAPS  C217 1402   2.445   5.697   7.311 -0.2176  0.1816 -0.4697
   11SAPS  H17R 1403   2.437   5.799   7.353  0.2387 -0.6373  1.7403
   11SAPS  H17S 1404   2.369   5.624   7.345  1.8805 -1.4017  1.1564
   11SAPS  C218 1405   2.425   5.728   7.159 -1.0946  0.0957  0.7693
   11SAPS  H18R 1406   2.492   5.814   7.137 -0.2248 -0.2126  2.1320
   11SAPS  H18S 1407   2.318   5.757   7.166 -0.7247  1.7912 -0.0642
   11SAPS  C219 1408   2.456   5.610   7.068  0.4481 -0.2829  0.0720
   11SAPS  H19R 1409   2.417   5.517   7.115  2.7748 -0.1238  2.5701
   11SAPS  H19S 1410   2.566   5.599   7.052  0.4503 -0.5291  0.2459
   11SAPS  C220 1411   2.405   5.635   6.924 -0.1726  0.2251  0.3482
   11SAPS  H20R 1412   2.437   5.735   6.888  2.0324 -0.4430  0.3295
   11SAPS  H20S 1413   2.295   5.637   6.912 -0.3327 -0.2260  1.6026
   11SAPS  H20T 1414   2.442   5.555   6.857  2.1252  1.4853 -0.0047
   11SAPS   C33 1415   2.444   4.690   6.750 -0.0276 -0.0586 -0.2066
   11SAPS   H3X 1416   2.521   4.769   6.762  1.4999 -1.2656 -1.5669
   11SAPS   H3Y 1417   2.502   4.595   6.754  0.6553  0.3645  0.6866
   11SAPS   C34 1418   2.367   4.696   6.882 -0.2091 -0.5554  0.4196
   11SAPS   H4X 1419   2.286   4.621   6.884  0.7866 -1.6802 -0.0108
   11SAPS   H4Y 1420   2.317   4.791   6.910  0.9453 -0.6548  3.0883
   11SAPS   C35 1421   2.469   4.687   6.994 -1.2297  0.0006  0.4069
   11SAPS   H5X 1422   2.564   4.744   6.981 -2.4782  2.3982  1.2101
   11SAPS   H5Y 1423   2.516   4.586   6.997  1.2294  1.0775  2.0403
   11SAPS   C36 1424   2.400   4.727   7.130 -0.7101 -0.2095 -0.3472
   11SAPS   H6X 1425   2.303   4.673   7.139 -0.0627 -1.2783  0.6259
   11SAPS   H6Y 1426   2.382   4.836   7.118 -1.6933 -0.4948 -1.7803
   11SAPS   C37 1427   2.479   4.683   7.258  0.1151 -0.2626 -0.5826
   11SAPS   H7X 1428   2.571   4.744   7.248  0.3254 -0.9155 -3.3432
   11SAPS   H7Y 1429   2.495   4.574   7.242  0.4682  0.0027 -2.2121
   11SAPS   C38 1430   2.411   4.709   7.389  0.7099  0.1011 -0.0288
   11SAPS   H8X 1431   2.310   4.663   7.397 -0.7695  3.1843  1.1412
   11SAPS   H8Y 1432   2.378   4.813   7.411  0.1169  0.0314 -0.5714
   11SAPS   C39 1433   2.490   4.661   7.509  0.1980  0.1639  0.2300
   11SAPS   H9X 1434   2.591   4.708   7.505  1.0869 -1.7115 -2.0845
   11SAPS   H9Y 1435   2.508   4.555   7.484  1.0848  0.3923 -0.1502
   11SAPS  C310 1436   2.418   4.668   7.641  0.4774  0.4157 -0.0216
   11SAPS  H10X 1437   2.456   4.610   7.728 -2.7612 -0.6089  0.8494
   11SAPS  H10Y 1438   2.317   4.623   7.624  0.0509  1.3789 -0.1078
   11SAPS  C311 1439   2.390   4.812   7.693 -0.2906  0.5197  0.8138
   11SAPS  H11X 1440   2.335   4.879   7.623  0.1667  0.1543  0.0997
   11SAPS  H11Y 1441   2.490   4.856   7.714  0.9392 -2.2581  1.1975
   11SAPS  C312 1442   2.317   4.822   7.823  0.3837 -0.1230 -0.3779
   11SAPS  H12X 1443   2.370   4.779   7.910  1.1039  1.2414 -0.1199
   11SAPS  H12Y 1444   2.227   4.763   7.796  0.2278  0.7950 -1.9963
   11SAPS  C313 1445   2.293   4.969   7.861  0.3912  0.1682 -0.1081
   11SAPS  H13X 1446   2.197   4.984   7.915 -0.4693 -0.6026 -1.3600
   11SAPS  H13Y 1447   2.282   5.019   7.762 -0.0687 -0.3089 -0.3109
   11SAPS  C314 1448   2.410   5.029   7.949  0.4632 -0.1757  0.1886
   11SAPS  H14X 1449   2.501   5.021   7.887  0.1943 -0.6331 -0.1574
   11SAPS  H14Y 1450   2.416   4.967   8.041  1.9182  0.1393  0.3190
   11SAPS  C315 1451   2.380   5.176   7.985  0.5778  0.4156 -0.1366
   11SAPS  H15X 1452   2.276   5.182   8.024  1.1823 -1.6674  2.0049
   11SAPS  H15Y 1453   2.374   5.223   7.884 -2.9508 -0.2985 -0.4019
   11SAPS  C316 1454   2.492   5.241   8.074 -0.5558 -0.5258  0.0482
   11SAPS  H16X 1455   2.483   5.350   8.054  0.3429 -0.3325  0.6575
   11SAPS  H16Y 1456   2.597   5.215   8.050 -0.6225  0.6698 -1.6821
   11SAPS  C317 1457   2.459   5.224   8.223  0.2976 -0.1367  0.4973
   11SAPS  H17X 1458   2.469   5.114   8.229 -0.9546 -0.6228 -3.4894
   11SAPS  H17Y 1459   2.352   5.248   8.239  0.0342 -1.1211  0.2321
   11SAPS  C318 1460   2.552   5.298   8.320 -0.0866 -0.9824  0.1578
   11SAPS  H18X 1461   2.655   5.256   8.316 -0.1762 -1.0705 -1.9602
   11SAPS  H18Y 1462   2.511   5.284   8.422 -2.1475 -0.7207 -0.5957
   11SAPS  H18Z 1463   2.539   5.408   8.311  2.2488 -0.5907  0.8435
   12SAPS     N 1464   0.899   6.286   5.673 -0.2290 -0.4851 -0.0698
   12SAPS   HN1 1465   0.872   6.383   5.646  0.5328 -0.0911  0.5393
   12SAPS   HN2 1466   1.002   6.292   5.675 -0.1470 -1.6995 -0.0915
   12SAPS   HN3 1467   0.867   6.218   5.601  4.6771 -2.8222 -0.4268
   12SAPS   C12 1468   0.828   6.252   5.802 -0.2685  0.3378  0.2554
   12SAPS  H12A 1469   0.721   6.243   5.789 -0.5427 -0.7247  2.7135
   12SAPS   C13 1470   0.873   6.111   5.843  0.3939 -0.6593 -0.4163
   12SAPS  O13A 1471   0.967   6.042   5.793 -0.0484  0.3149  0.9626
   12SAPS  O13B 1472   0.830   6.078   5.956  0.5290 -0.5364 -0.0821
   12SAPS   C11 1473   0.877   6.352   5.913  0.0705 -0.6572 -0.2620
   12SAPS  H11A 1474   0.984   6.333   5.939  0.3644 -0.9057 -1.5605
   12SAPS  H11B 1475   0.812   6.321   5.997  0.1340  1.2166  0.5406
   12SAPS     P 1476   0.723   6.565   5.894  0.2290 -0.4524 -0.3913
   12SAPS   O13 1477   0.743   6.711   5.868  0.2225  0.4470  0.9658
   12SAPS   O14 1478   0.622   6.489   5.819 -0.3182  0.3577  0.2140
   12SAPS   O12 1479   0.858   6.489   5.868  0.1182  0.7311 -0.6547
   12SAPS   O11 1480   0.697   6.543   6.037 -0.0032 -0.1063  0.0591
   12SAPS    C1 1481   0.783   6.615   6.134 -0.2158  0.8927  0.1735
   12SAPS    HA 1482   0.871   6.667   6.092 -0.8041  0.5147 -1.6473
   12SAPS    HB 1483   0.723   6.695   6.181  1.8033  0.8358  3.0772
   12SAPS    C2 1484   0.839   6.525   6.248  0.0900  0.2130  0.5592
   12SAPS    HS 1485   0.877   6.597   6.323 -2.7374  1.2303  1.1523
   12SAPS   O21 1486   0.933   6.430   6.190 -0.2015 -0.0295  0.1097
   12SAPS   C21 1487   1.047   6.428   6.259 -0.4903 -0.1548  1.0021
   12SAPS   O22 1488   1.076   6.487   6.361 -0.0245  0.1127  0.5634
   12SAPS   C22 1489   1.142   6.324   6.185  0.7775 -0.2104 -0.4571
   12SAPS   H2R 1490   1.072   6.248   6.145 -0.9100  0.8131  0.4333
   12SAPS   H2S 1491   1.190   6.367   6.095 -1.9197 -0.5733 -2.1764
   12SAPS    C3 1492   0.733   6.436   6.323 -0.1947 -0.0134 -0.1924
   12SAPS    HX 1493   0.694   6.357   6.255 -2.9389  0.7076  0.4077
   12SAPS    HY 1494   0.646   6.504   6.337  0.1162  0.3102  0.2013
   12SAPS   O31 1495   0.777   6.380   6.453  0.5650 -0.1343  0.2138
   12SAPS   C31 1496   0.781   6.475   6.546  0.2500 -0.0366 -0.4490
   12SAPS   O32 1497   0.752   6.592   6.530  0.8303  0.6084  0.1906
   12SAPS   C32 1498   0.861   6.421   6.665  0.6784 -0.3052 -0.3814
   12SAPS   H2X 1499   0.888   6.507   6.730 -0.0038 -0.4315  0.0736
   12SAPS   H2Y 1500   0.954   6.374   6.628  1.3085  2.0842 -2.0614
   12SAPS   C23 1501   1.251   6.267   6.275  0.4496  0.4687 -0.5752
   12SAPS   H3R 1502   1.295   6.323   6.361  0.0265 -1.5679  1.0499
   12SAPS   H3S 1503   1.336   6.240   6.210  1.0954  0.0420  0.4175
   12SAPS   C24 1504   1.201   6.136   6.333  0.1553  0.0593  0.0226
   12SAPS   H4R 1505   1.293   6.082   6.366  0.3123  0.6199  0.5078
   12SAPS   H4S 1506   1.157   6.079   6.248  0.1428 -1.3809  0.9643
   12SAPS   C25 1507   1.095   6.149   6.442 -0.6204 -0.2039 -0.4768
   12SAPS   H5R 1508   0.990   6.140   6.410 -1.1130  1.7161  0.5102
   12SAPS   C26 1509   1.121   6.175   6.570  0.4389 -0.5614  0.1676
   12SAPS   H6R 1510   1.031   6.179   6.633 -1.6706 -0.4126 -2.6736
   12SAPS   C27 1511   1.243   6.217   6.637  0.7826  0.0333  0.2097
   12SAPS   H7R 1512   1.333   6.176   6.587 -0.5425  0.1281 -2.4343
   12SAPS   H7S 1513   1.229   6.178   6.741 -0.9245  3.4196  1.3928
   12SAPS   C28 1514   1.261   6.366   6.645 -0.3632  0.9706 -0.8340
   12SAPS   H8R 1515   1.269   6.423   6.551  1.0367  1.9879 -0.1413
   12SAPS   C29 1516   1.282   6.432   6.758  0.5589 -0.0047 -0.7168
   12SAPS   H9R 1517   1.302   6.540   6.752  1.4595 -0.1985 -1.5212
   12SAPS  C210 1518   1.285   6.383   6.898 -0.1331  0.1485  0.7697
   12SAPS  H10R 1519   1.357   6.449   6.950  0.1539  0.7181 -0.3205
   12SAPS  H10S 1520   1.333   6.283   6.898 -0.2635  0.0195 -1.8935
   12SAPS  C211 1521   1.145   6.381   6.963  0.7844 -0.0771 -0.0461
   12SAPS  H11R 1522   1.066   6.340   6.898  1.6596 -0.5834 -0.8157
   12SAPS  C212 1523   1.107   6.400   7.090 -0.2531 -0.0591 -0.2590
   12SAPS  H12R 1524   0.999   6.397   7.111 -0.1463  0.7276  0.4926
   12SAPS  C213 1525   1.205   6.429   7.206 -0.2577  0.0593  0.0535
   12SAPS  H13R 1526   1.150   6.462   7.297 -1.1194  0.4226 -0.5857
   12SAPS  H13S 1527   1.274   6.514   7.188 -1.1014  0.7635  0.0618
   12SAPS  C214 1528   1.279   6.303   7.242  0.4280  0.0761 -0.3573
   12SAPS  H14R 1529   1.277   6.222   7.168 -1.0730 -1.0290  0.8431
   12SAPS  C215 1530   1.334   6.274   7.359  0.1609 -0.4652 -0.0910
   12SAPS  H15R 1531   1.402   6.188   7.363  0.2591 -0.4656 -1.4654
   12SAPS  C216 1532   1.332   6.363   7.481  0.5606  0.2286  0.2333
   12SAPS  H16R 1533   1.290   6.465   7.467  2.6991  0.9682 -1.4321
   12SAPS  H16S 1534   1.440   6.376   7.505  0.6514  0.7888 -0.4542
   12SAPS  C217 1535   1.253   6.290   7.588  0.2675  0.0563 -0.2348
   12SAPS  H17R 1536   1.289   6.185   7.596  0.6132  0.0729 -1.3752
   12SAPS  H17S 1537   1.144   6.273   7.575  0.0037  1.5342 -0.1048
   12SAPS  C218 1538   1.290   6.365   7.725 -0.3400 -0.0141 -0.4622
   12SAPS  H18R 1539   1.278   6.475   7.708 -1.3731  0.2342  1.6016
   12SAPS  H18S 1540   1.397   6.351   7.750 -0.5453  1.0281  1.1129
   12SAPS  C219 1541   1.185   6.341   7.832 -0.3756  0.0818 -0.1897
   12SAPS  H19R 1542   1.163   6.233   7.844  0.0896  0.0723  0.6905
   12SAPS  H19S 1543   1.090   6.392   7.805 -1.2245 -1.7427 -0.7461
   12SAPS  C220 1544   1.230   6.410   7.967 -0.2519 -0.6480  0.0442
   12SAPS  H20R 1545   1.154   6.434   8.044 -0.1397 -2.4899  0.7938
   12SAPS  H20S 1546   1.272   6.512   7.958  0.1544 -0.7252  1.0019
   12SAPS  H20T 1547   1.315   6.351   8.008  0.5357  0.6927  0.3704
   12SAPS   C33 1548   0.774   6.328   6.757  0.3436  0.7604 -0.7382
   12SAPS   H3X 1549   0.838   6.270   6.826  0.2600  0.5939 -0.7977
   12SAPS   H3Y 1550   0.737   6.238   6.702  1.3311  1.1783 -2.1207
   12SAPS   C34 1551   0.666   6.407   6.837  0.5498  0.4682 -0.4680
   12SAPS   H4X 1552   0.588   6.342   6.883 -0.0097  0.0564 -1.9339
   12SAPS   H4Y 1553   0.603   6.453   6.757  0.2389  1.6636  0.4425
   12SAPS   C35 1554   0.715   6.510   6.938  0.3002  0.0328  0.4300
   12SAPS   H5X 1555   0.677   6.612   6.918 -1.0210 -0.8331 -1.9542
   12SAPS   H5Y 1556   0.824   6.525   6.928  0.3055  0.9814  1.6251
   12SAPS   C36 1557   0.673   6.460   7.078 -0.3057  0.6697 -0.3335
   12SAPS   H6X 1558   0.701   6.355   7.101  1.3384  0.9698 -0.8184
   12SAPS   H6Y 1559   0.562   6.465   7.079 -0.4153 -0.4060 -2.2046
   12SAPS   C37 1560   0.733   6.550   7.183  0.2074 -0.1988  0.0440
   12SAPS   H7X 1561   0.721   6.657   7.158 -2.5715 -0.2075  0.9487
   12SAPS   H7Y 1562   0.843   6.537   7.187  0.3134  0.8122  3.0482
   12SAPS   C38 1563   0.677   6.524   7.321 -0.2813 -0.1995 -0.1062
   12SAPS   H8X 1564   0.566   6.527   7.321 -0.2737  0.6998  0.8753
   12SAPS   H8Y 1565   0.713   6.607   7.386 -0.7646 -0.2392  0.2153
   12SAPS   C39 1566   0.722   6.384   7.377 -0.7290 -0.3193  0.3937
   12SAPS   H9X 1567   0.832   6.376   7.379 -0.7725 -0.9868  0.3992
   12SAPS   H9Y 1568   0.683   6.308   7.306 -1.7534 -0.6578  1.2833
   12SAPS  C310 1569   0.671   6.355   7.518  0.0515  0.4690 -0.1571
   12SAPS  H10X 1570   0.560   6.351   7.513 -0.0082  1.4909  0.0329
   12SAPS  H10Y 1571   0.695   6.439   7.587 -2.4584  1.0861  0.0767
   12SAPS  C311 1572   0.718   6.220   7.577  0.5225  0.5796 -0.3624
   12SAPS  H11X 1573   0.826   6.194   7.568  1.0177  0.8033  3.3573
   12SAPS  H11Y 1574   0.667   6.141   7.517  1.5643  0.5305 -1.2236
   12SAPS  C312 1575   0.673   6.191   7.718 -0.0855  0.1086 -0.2822
   12SAPS  H12X 1576   0.681   6.082   7.740 -0.5226 -0.1625 -1.4323
   12SAPS  H12Y 1577   0.566   6.218   7.735 -0.8672 -1.6708 -1.9654
   12SAPS  C313 1578   0.771   6.258   7.820 -0.6874 -0.4427 -0.0793
   12SAPS  H13X 1579   0.790   6.365   7.799  2.8651 -1.3285 -2.1134
   12SAPS  H13Y 1580   0.870   6.210   7.804 -0.4492  0.9669 -3.9506
   12SAPS  C314 1581   0.741   6.230   7.971 -0.5600 -0.2970  0.5578
   12SAPS  H14X 1582   0.827   6.281   8.019  0.7871 -1.0425 -0.9802
   12SAPS  H14Y 1583   0.740   6.120   7.983 -0.3125 -0.2367  1.1253
   12SAPS  C315 1584   0.610   6.301   8.014  1.1145  0.6130  0.4219
   12SAPS  H15X 1585   0.532   6.271   7.941  1.7093 -3.3661  1.1855
   12SAPS  H15Y 1586   0.642   6.407   8.013 -0.2847  1.0650 -1.7425
   12SAPS  C316 1587   0.547   6.263   8.153  0.5342 -0.1106  0.3583
   12SAPS  H16X 1588   0.530   6.153   8.149 -2.0951  0.2367 -0.6213
   12SAPS  H16Y 1589   0.454   6.316   8.183  0.8079 -0.8840  2.7865
   12SAPS  C317 1590   0.646   6.274   8.271  0.5897  0.0548  0.7034
   12SAPS  H17X 1591   0.663   6.383   8.280  0.3223  0.0966  0.7139
   12SAPS  H17Y 1592   0.743   6.223   8.254  0.4056 -0.0376 -0.1030
   12SAPS  C318 1593   0.580   6.212   8.396 -1.0576  0.4401 -0.0312
   12SAPS  H18X 1594   0.636   6.236   8.489  0.1214  0.2718 -0.6744
   12SAPS  H18Y 1595   0.560   6.104   8.384  0.1489  0.3950 -2.2703
   12SAPS  H18Z 1596   0.477   6.253   8.400 -0.6242  1.5198  0.4738
   13SAPS     N 1597   1.871   2.535   6.025 -0.5670 -0.0661 -0.2622
   13SAPS   HN1 1598   1.941   2.592   5.974 -0.4746  0.0653  0.0088
   13SAPS   HN2 1599   1.775   2.548   5.987 -1.0201  4.0402  1.7317
   13SAPS   HN3 1600   1.863   2.565   6.124 -0.4065 -1.1147  0.0840
   13SAPS   C12 1601   1.924   2.394   6.012  0.6396 -0.6280 -0.4811
   13SAPS  H12A 1602   1.848   2.337   6.063  2.6164 -1.7824  1.3820
   13SAPS   C13 1603   1.936   2.364   5.862  0.1557  0.0674 -0.5242
   13SAPS  O13A 1604   1.923   2.449   5.769 -0.4819  0.1650 -0.3914
   13SAPS  O13B 1605   1.957   2.234   5.842 -0.8607 -0.1987 -0.0394
   13SAPS   C11 1606   2.065   2.382   6.085  0.0765  0.4061  0.5114
   13SAPS  H11A 1607   2.140   2.438   6.025  2.3547 -2.5157  0.3883
   13SAPS  H11B 1608   2.101   2.278   6.106  0.9878  0.6770  0.3433
   13SAPS     P 1609   2.172   2.482   6.295  0.3512 -0.1296 -0.3595
   13SAPS   O13 1610   2.286   2.390   6.275  0.1184  0.0480 -0.1943
   13SAPS   O14 1611   2.194   2.626   6.285 -0.9355  0.0122  0.6374
   13SAPS   O12 1612   2.043   2.448   6.205 -0.3552  0.3885 -0.6874
   13SAPS   O11 1613   2.117   2.468   6.439 -0.1345 -0.1845 -0.0665
   13SAPS    C1 1614   2.002   2.543   6.490 -0.3113 -0.6304  0.0169
   13SAPS    HA 1615   2.032   2.649   6.501  3.3236 -1.3790 -1.1665
   13SAPS    HB 1616   1.915   2.539   6.421 -3.0270  1.3520  3.0159
   13SAPS    C2 1617   1.952   2.504   6.627 -0.1423  0.2461 -0.5335
   13SAPS    HS 1618   1.886   2.583   6.668 -1.0254  0.5179 -2.3664
   13SAPS   O21 1619   2.059   2.481   6.721 -0.0739 -0.2347 -0.0243
   13SAPS   C21 1620   2.125   2.589   6.758 -0.6111  0.1655 -0.2150
   13SAPS   O22 1621   2.091   2.703   6.741 -0.4410  0.7661 -0.1138
   13SAPS   C22 1622   2.242   2.546   6.844 -0.4296  0.6604 -0.5328
   13SAPS   H2R 1623   2.245   2.436   6.861 -0.5170  0.4576 -1.7713
   13SAPS   H2S 1624   2.338   2.570   6.794  0.6985 -2.4094 -0.0088
   13SAPS    C3 1625   1.850   2.382   6.632  0.2942  0.3282 -0.2007
   13SAPS    HX 1626   1.912   2.299   6.591  0.0628  0.0936 -0.0802
   13SAPS    HY 1627   1.772   2.398   6.555  0.8838  2.5223 -0.3937
   13SAPS   O31 1628   1.802   2.345   6.761 -0.0227  0.0272 -0.3542
   13SAPS   C31 1629   1.702   2.424   6.802  0.1366  0.6271 -0.3457
   13SAPS   O32 1630   1.652   2.521   6.745 -0.9897 -0.8499 -0.0843
   13SAPS   C32 1631   1.645   2.366   6.929 -0.1533  0.4837  0.2700
   13SAPS   H2X 1632   1.614   2.260   6.917 -0.2754  0.4157  1.1170
   13SAPS   H2Y 1633   1.549   2.418   6.953  0.1181  1.5760 -0.8757
   13SAPS   C23 1634   2.232   2.628   6.981 -0.3446 -0.2126  0.5072
   13SAPS   H3R 1635   2.223   2.736   6.957 -0.5096 -0.4063 -0.3381
   13SAPS   H3S 1636   2.329   2.617   7.033  0.0359 -0.2497 -0.1927
   13SAPS   C24 1637   2.118   2.596   7.079 -0.6703  0.2953 -0.6560
   13SAPS   H4R 1638   2.017   2.602   7.033 -2.1309 -1.4952  1.9762
   13SAPS   H4S 1639   2.127   2.681   7.150 -0.3864 -0.8439  0.7296
   13SAPS   C25 1640   2.115   2.465   7.158 -0.7453 -0.1642 -0.8174
   13SAPS   H5R 1641   2.069   2.384   7.100 -1.1825 -0.6162  0.1389
   13SAPS   C26 1642   2.147   2.452   7.294  0.1712 -0.1277  0.4562
   13SAPS   H6R 1643   2.124   2.354   7.338 -0.6910  0.7853  2.1550
   13SAPS   C27 1644   2.208   2.555   7.389  1.0016 -0.3486  0.5780
   13SAPS   H7R 1645   2.182   2.657   7.356 -1.3856 -1.1302 -0.1113
   13SAPS   H7S 1646   2.319   2.545   7.392  0.8883 -2.1086  0.4955
   13SAPS   C28 1647   2.149   2.526   7.525 -0.0961  0.0968 -0.0637
   13SAPS   H8R 1648   2.040   2.540   7.530  0.0416  0.8527  2.8972
   13SAPS   C29 1649   2.216   2.492   7.644  0.2664  0.0626  0.3024
   13SAPS   H9R 1650   2.166   2.471   7.739  3.0010 -1.9469  1.4583
   13SAPS  C210 1651   2.360   2.479   7.661 -0.1925  0.6499  0.4900
   13SAPS  H10R 1652   2.383   2.526   7.759 -0.3219  0.2493  0.7200
   13SAPS  H10S 1653   2.420   2.534   7.587 -2.4476  3.3423  0.4996
   13SAPS  C211 1654   2.388   2.332   7.646 -0.2584 -0.6545 -0.2261
   13SAPS  H11R 1655   2.387   2.304   7.540 -2.8239 -1.1271 -0.1567
   13SAPS  C212 1656   2.411   2.237   7.737  0.1206 -0.5319 -0.1544
   13SAPS  H12R 1657   2.419   2.137   7.692  0.0232  0.3531 -2.2402
   13SAPS  C213 1658   2.409   2.260   7.890  0.3911 -0.0829 -0.6824
   13SAPS  H13R 1659   2.472   2.346   7.919 -0.7638  0.0130  1.7619
   13SAPS  H13S 1660   2.451   2.166   7.933 -0.8647  0.1206  1.0677
   13SAPS  C214 1661   2.274   2.283   7.948 -0.1627  0.0710 -0.8691
   13SAPS  H14R 1662   2.202   2.311   7.870 -1.7638  0.3099  0.6300
   13SAPS  C215 1663   2.244   2.283   8.081  0.1827 -0.2519  1.4049
   13SAPS  H15R 1664   2.143   2.286   8.123  0.5483  1.2385  2.2395
   13SAPS  C216 1665   2.345   2.255   8.185 -0.8141  0.1962 -0.6121
   13SAPS  H16R 1666   2.340   2.343   8.252 -1.5406  2.6009 -3.6218
   13SAPS  H16S 1667   2.449   2.257   8.149  0.1107 -0.3957  1.8100
   13SAPS  C217 1668   2.349   2.115   8.249 -0.5680 -0.5589  0.3260
   13SAPS  H17R 1669   2.443   2.091   8.304 -0.1475 -1.9796 -0.9430
   13SAPS  H17S 1670   2.342   2.037   8.171  1.4896  0.4464 -0.9679
   13SAPS  C218 1671   2.230   2.099   8.339  0.2053 -0.0392  0.3685
   13SAPS  H18R 1672   2.139   2.086   8.276 -0.2543 -1.6689  1.3014
   13SAPS  H18S 1673   2.216   2.191   8.398  0.7881  1.5194 -1.8004
   13SAPS  C219 1674   2.235   1.975   8.425  0.0437 -0.1218 -0.7859
   13SAPS  H19R 1675   2.310   1.993   8.505  1.2502 -0.4791 -1.7915
   13SAPS  H19S 1676   2.265   1.890   8.359 -2.1667 -1.0898 -0.6125
   13SAPS  C220 1677   2.111   1.929   8.499  0.1446  0.2963  0.3579
   13SAPS  H20R 1678   2.024   1.915   8.431  0.3695  0.0183  0.1247
   13SAPS  H20S 1679   2.078   2.007   8.570  1.0741  2.3630 -1.3820
   13SAPS  H20T 1680   2.120   1.828   8.546  1.4542  1.0263  1.7513
   13SAPS   C33 1681   1.739   2.390   7.050 -0.4472 -0.2755 -0.6410
   13SAPS   H3X 1682   1.747   2.499   7.070  1.3925 -0.7757  1.9871
   13SAPS   H3Y 1683   1.836   2.341   7.026 -0.8443 -0.4061 -2.0438
   13SAPS   C34 1684   1.683   2.330   7.182 -0.4103  0.0183  0.3325
   13SAPS   H4X 1685   1.658   2.224   7.160  0.8338 -0.3439  0.5901
   13SAPS   H4Y 1686   1.599   2.390   7.222 -0.2457  0.5983 -0.1710
   13SAPS   C35 1687   1.790   2.329   7.294  1.0479  0.8980 -0.5353
   13SAPS   H5X 1688   1.820   2.435   7.313  1.0705  0.8914 -0.5342
   13SAPS   H5Y 1689   1.883   2.275   7.268  1.0890 -0.3145  1.8962
   13SAPS   C36 1690   1.740   2.261   7.427 -0.3525 -0.4181  0.3922
   13SAPS   H6X 1691   1.721   2.152   7.416 -1.1997 -0.5102  2.3566
   13SAPS   H6Y 1692   1.643   2.310   7.447 -1.0216 -0.4732 -2.3074
   13SAPS   C37 1693   1.837   2.278   7.544  0.3941  0.2060 -0.0265
   13SAPS   H7X 1694   1.861   2.385   7.564 -0.7256  0.0904  2.2208
   13SAPS   H7Y 1695   1.934   2.234   7.512  1.1665  3.2004 -2.3766
   13SAPS   C38 1696   1.791   2.214   7.672 -0.7735  0.1327 -0.0130
   13SAPS   H8X 1697   1.763   2.109   7.646  1.7739 -0.5609 -0.1496
   13SAPS   H8Y 1698   1.710   2.274   7.719 -0.3454 -0.7950  2.0634
   13SAPS   C39 1699   1.901   2.190   7.774  0.9079 -0.0379  0.2274
   13SAPS   H9X 1700   1.930   2.287   7.819 -0.9773  0.6338  0.0931
   13SAPS   H9Y 1701   1.987   2.139   7.727  1.2356  0.7770 -0.0765
   13SAPS  C310 1702   1.858   2.122   7.901  0.2737  0.3812 -0.6136
   13SAPS  H10X 1703   1.951   2.114   7.961 -1.8241 -0.6886  2.7908
   13SAPS  H10Y 1704   1.821   2.019   7.880  2.2703 -0.7325  0.9459
   13SAPS  C311 1705   1.769   2.216   7.970 -0.4655 -0.5251  0.9724
   13SAPS  H11X 1706   1.683   2.257   7.913 -0.3453  1.6506  2.2681
   13SAPS  H11Y 1707   1.835   2.301   7.997  0.7772 -0.6692 -1.3322
   13SAPS  C312 1708   1.721   2.151   8.093 -0.0023  0.1646 -0.0138
   13SAPS  H12X 1709   1.669   2.225   8.158  0.9588 -0.2999  1.3399
   13SAPS  H12Y 1710   1.811   2.118   8.150 -1.0395 -2.1587  0.3540
   13SAPS  C313 1711   1.633   2.030   8.074  0.4235  0.0940  0.4221
   13SAPS  H13X 1712   1.700   1.946   8.046  1.1014  1.2845 -1.7740
   13SAPS  H13Y 1713   1.574   2.045   7.981  0.0081 -3.6230 -0.0504
   13SAPS  C314 1714   1.550   1.992   8.198 -0.2888  0.4500  0.4504
   13SAPS  H14X 1715   1.480   2.076   8.218 -0.1238  0.1646  2.4285
   13SAPS  H14Y 1716   1.622   1.974   8.281 -0.7712 -2.1690  0.4008
   13SAPS  C315 1717   1.463   1.868   8.177  0.0100  0.7804 -1.1389
   13SAPS  H15X 1718   1.415   1.844   8.275  0.8636  1.1403 -0.6189
   13SAPS  H15Y 1719   1.520   1.781   8.138 -0.1872  1.2238 -2.4494
   13SAPS  C316 1720   1.351   1.888   8.084 -0.4113 -0.4430  0.6236
   13SAPS  H16X 1721   1.384   1.960   8.005 -0.1276  0.2630  1.3668
   13SAPS  H16Y 1722   1.283   1.952   8.143  1.6034  1.9896  0.4942
   13SAPS  C317 1723   1.292   1.753   8.028  0.2055 -0.4679 -0.0217
   13SAPS  H17X 1724   1.367   1.694   7.971  0.2523 -1.0403  0.6124
   13SAPS  H17Y 1725   1.210   1.772   7.956  1.1668  1.7661 -0.6038
   13SAPS  C318 1726   1.251   1.663   8.146  0.5848 -0.1240  0.2203
   13SAPS  H18X 1727   1.333   1.650   8.220 -1.3323 -1.4132  2.2372
   13SAPS  H18Y 1728   1.228   1.564   8.101  1.4087 -0.4480  0.4913
   13SAPS  H18Z 1729   1.163   1.699   8.204  1.6620  1.4275  0.9553
   14SAPS     N 1730   1.404   6.048   5.493 -0.3602 -0.3245  0.1775
   14SAPS   HN1 1731   1.373   6.080   5.587 -0.9752  0.6175 -0.3331
   14SAPS   HN2 1732   1.502   6.015   5.507  0.0588  0.7696 -0.0959
   14SAPS   HN3 1733   1.390   6.120   5.420  1.1341 -3.5405 -3.6419
   14SAPS   C12 1734   1.319   5.934   5.447  0.1480 -0.5224  0.3920
   14SAPS  H12A 1735   1.225   5.985   5.437  1.8050  2.4062 -1.8119
   14SAPS   C13 1736   1.351   5.876   5.304 -0.3792 -0.2538  0.8600
   14SAPS  O13A 1737   1.465   5.884   5.257  0.0116 -0.3140 -0.0063
   14SAPS  O13B 1738   1.263   5.796   5.260 -0.1826  0.1452  0.1410
   14SAPS   C11 1739   1.319   5.810   5.540 -0.0264  0.8060 -0.2382
   14SAPS  H11A 1740   1.409   5.745   5.544 -1.0306 -0.5835  1.5032
   14SAPS  H11B 1741   1.240   5.746   5.495  0.2133  1.1899 -1.2262
   14SAPS     P 1742   1.250   5.755   5.782 -0.1889  0.1804 -0.1692
   14SAPS   O13 1743   1.186   5.833   5.890  0.2737  0.3079  0.3396
   14SAPS   O14 1744   1.177   5.640   5.727  0.3090  0.8360 -0.2890
   14SAPS   O12 1745   1.287   5.859   5.668 -0.4988  0.4971 -0.6183
   14SAPS   O11 1746   1.389   5.704   5.847 -0.0211  0.0976  0.0985
   14SAPS    C1 1747   1.515   5.783   5.836  1.0535 -0.1550 -0.1321
   14SAPS    HA 1748   1.592   5.735   5.772  2.5153  4.0152 -1.8056
   14SAPS    HB 1749   1.503   5.886   5.799  0.9047 -0.5171 -1.1228
   14SAPS    C2 1750   1.578   5.795   5.981 -0.1665 -0.1679  0.5134
   14SAPS    HS 1751   1.671   5.853   5.963  0.0191 -0.4296  0.6150
   14SAPS   O21 1752   1.623   5.667   6.030 -0.5309  0.3490  0.1675
   14SAPS   C21 1753   1.725   5.669   6.117 -0.5141  0.6524  0.6986
   14SAPS   O22 1754   1.805   5.761   6.133 -0.3130 -0.0490 -0.6189
   14SAPS   C22 1755   1.730   5.535   6.186 -0.2383 -0.1706  0.2057
   14SAPS   H2R 1756   1.624   5.508   6.207 -1.6527  4.4277  0.1814
   14SAPS   H2S 1757   1.775   5.477   6.103  0.6680  1.8268 -0.7818
   14SAPS    C3 1758   1.484   5.865   6.086 -0.3105  0.5752  0.2564
   14SAPS    HX 1759   1.445   5.774   6.136  1.9235 -0.0300  1.0060
   14SAPS    HY 1760   1.401   5.919   6.034  0.4492  0.5004 -1.0985
   14SAPS   O31 1761   1.553   5.948   6.183 -0.6773  0.5366  0.4360
   14SAPS   C31 1762   1.608   6.055   6.132 -0.0840  0.2263 -0.1506
   14SAPS   O32 1763   1.606   6.095   6.018 -0.0920 -0.3226  0.1565
   14SAPS   C32 1764   1.679   6.119   6.246  0.4018 -0.6244 -0.0237
   14SAPS   H2X 1765   1.702   6.226   6.226  2.4084 -0.8737  0.7076
   14SAPS   H2Y 1766   1.780   6.079   6.271  0.7722  0.5520  0.4519
   14SAPS   C23 1767   1.826   5.527   6.316 -0.0544  0.0486 -0.6149
   14SAPS   H3R 1768   1.928   5.559   6.283 -0.2562  0.6097 -0.7154
   14SAPS   H3S 1769   1.842   5.421   6.342 -0.6814 -0.3703 -1.8433
   14SAPS   C24 1770   1.774   5.594   6.445  0.2521 -0.2834 -0.4480
   14SAPS   H4R 1771   1.756   5.700   6.418 -0.2867 -0.5060 -0.9771
   14SAPS   H4S 1772   1.871   5.599   6.498  1.2783  3.7670 -2.3129
   14SAPS   C25 1773   1.654   5.532   6.508 -0.8792  0.1253  0.4479
   14SAPS   H5R 1774   1.659   5.437   6.562 -1.7411 -0.2741 -0.1387
   14SAPS   C26 1775   1.529   5.587   6.502 -0.0912 -0.0478 -0.3063
   14SAPS   H6R 1776   1.442   5.533   6.539  0.6319 -0.7640  0.3921
   14SAPS   C27 1777   1.483   5.720   6.446 -0.7784  0.6782  0.0433
   14SAPS   H7R 1778   1.416   5.698   6.361 -1.6108 -0.1754  0.8859
   14SAPS   H7S 1779   1.577   5.770   6.417  0.6696 -2.1735 -0.5747
   14SAPS   C28 1780   1.400   5.795   6.540 -0.4199 -0.3065  0.1026
   14SAPS   H8R 1781   1.300   5.823   6.501  1.4650  1.6787 -3.9465
   14SAPS   C29 1782   1.442   5.850   6.658  0.5786  0.8109 -0.6299
   14SAPS   H9R 1783   1.365   5.891   6.726  2.1018  1.6394  0.6537
   14SAPS  C210 1784   1.588   5.837   6.716  0.5616  0.3176  0.4732
   14SAPS  H10R 1785   1.624   5.939   6.742 -2.3447  1.6523 -0.3216
   14SAPS  H10S 1786   1.659   5.797   6.640 -1.1240 -1.8175 -0.0802
   14SAPS  C211 1787   1.589   5.750   6.836 -0.4092  0.3911 -0.2922
   14SAPS  H11R 1788   1.592   5.641   6.821  0.8333  0.1494  1.4228
   14SAPS  C212 1789   1.584   5.787   6.964  0.3297 -0.7195 -0.5798
   14SAPS  H12R 1790   1.599   5.707   7.038  1.1005 -0.4756 -0.4609
   14SAPS  C213 1791   1.571   5.931   7.020  0.1717 -0.1963 -0.1518
   14SAPS  H13R 1792   1.573   5.999   6.932 -3.2087  0.6491  0.2716
   14SAPS  H13S 1793   1.659   5.952   7.083  1.7255 -1.8044 -1.6831
   14SAPS  C214 1794   1.438   5.960   7.093 -0.4717 -0.2050  0.5867
   14SAPS  H14R 1795   1.349   5.974   7.030 -0.6683 -0.9875  0.6817
   14SAPS  C215 1796   1.425   5.953   7.224  0.1633 -0.8199  0.4077
   14SAPS  H15R 1797   1.325   5.964   7.268 -0.3800 -1.2903 -0.6606
   14SAPS  C216 1798   1.537   5.913   7.315  0.4013 -0.1111 -0.4430
   14SAPS  H16R 1799   1.591   6.006   7.344 -0.4104  0.0274  0.6600
   14SAPS  H16S 1800   1.598   5.838   7.260 -2.6708 -1.3194 -2.5045
   14SAPS  C217 1801   1.494   5.839   7.442  0.7018  0.3627 -0.1770
   14SAPS  H17R 1802   1.424   5.757   7.418  0.0004  0.4602  1.4044
   14SAPS  H17S 1803   1.443   5.904   7.517  0.2944 -0.7612  0.5465
   14SAPS  C218 1804   1.617   5.784   7.511  0.3999  0.3438 -0.0039
   14SAPS  H18R 1805   1.694   5.861   7.533  1.4958 -1.2625  2.2942
   14SAPS  H18S 1806   1.666   5.696   7.462 -2.4220 -2.0227  1.1350
   14SAPS  C219 1807   1.574   5.723   7.649  0.1314  0.4301  0.7389
   14SAPS  H19R 1808   1.495   5.648   7.627 -0.8070  1.5709  0.1150
   14SAPS  H19S 1809   1.532   5.793   7.725  1.1741 -1.2781  2.9752
   14SAPS  C220 1810   1.688   5.649   7.722 -0.2037  0.0537 -0.2299
   14SAPS  H20R 1811   1.722   5.568   7.653  1.7041  0.1703  0.4969
   14SAPS  H20S 1812   1.647   5.615   7.819 -0.1891 -1.0958 -0.6090
   14SAPS  H20T 1813   1.777   5.713   7.741 -0.6323  1.0084 -1.3498
   14SAPS   C33 1814   1.611   6.128   6.384  0.1475 -0.6118 -0.0760
   14SAPS   H3X 1815   1.568   6.029   6.409 -3.7915  0.6632 -1.1356
   14SAPS   H3Y 1816   1.522   6.195   6.381 -0.6769 -1.5123  2.2474
   14SAPS   C34 1817   1.700   6.177   6.505 -0.0058  0.7938  0.9511
   14SAPS   H4X 1818   1.740   6.276   6.475  0.8592  0.5947  1.4219
   14SAPS   H4Y 1819   1.786   6.107   6.516  1.2557  2.3457  1.2861
   14SAPS   C35 1820   1.615   6.214   6.626 -0.1664 -0.4001 -0.8216
   14SAPS   H5X 1821   1.535   6.144   6.658  0.6439 -0.9323  0.0706
   14SAPS   H5Y 1822   1.585   6.320   6.608  4.8964  1.4532  0.0598
   14SAPS   C36 1823   1.707   6.211   6.752  0.9055  0.2009 -0.3409
   14SAPS   H6X 1824   1.798   6.268   6.723  0.0339  1.8624  0.0656
   14SAPS   H6Y 1825   1.742   6.110   6.782 -2.1562 -0.2638  2.1485
   14SAPS   C37 1826   1.639   6.291   6.865  0.0233  0.3831 -0.1618
   14SAPS   H7X 1827   1.542   6.238   6.879  0.7220 -1.4064 -1.6632
   14SAPS   H7Y 1828   1.605   6.389   6.823  0.3297  0.0985 -1.0915
   14SAPS   C38 1829   1.726   6.315   6.987 -0.0551 -0.4024 -0.5901
   14SAPS   H8X 1830   1.805   6.392   6.976 -0.6832  0.4721  0.7530
   14SAPS   H8Y 1831   1.779   6.220   7.009 -0.1092  0.2856  3.2809
   14SAPS   C39 1832   1.653   6.353   7.122  0.3936  0.3841  1.0408
   14SAPS   H9X 1833   1.586   6.269   7.148 -0.3478  1.0300  1.2594
   14SAPS   H9Y 1834   1.588   6.440   7.098 -0.6835 -1.0983 -1.8278
   14SAPS  C310 1835   1.747   6.380   7.237 -0.0950  0.4133  0.9916
   14SAPS  H10X 1836   1.793   6.480   7.245  1.4411 -0.3535  2.4201
   14SAPS  H10Y 1837   1.826   6.301   7.244 -0.6828 -0.1560  1.2558
   14SAPS  C311 1838   1.672   6.379   7.371 -0.3456  0.0158  0.6825
   14SAPS  H11X 1839   1.619   6.283   7.390 -0.4220  0.1081  0.9454
   14SAPS  H11Y 1840   1.586   6.449   7.373 -1.4270 -1.3017  1.4919
   14SAPS  C312 1841   1.770   6.413   7.492 -0.1482  0.7787 -0.2818
   14SAPS  H12X 1842   1.776   6.523   7.502 -1.1131  0.8926 -0.8191
   14SAPS  H12Y 1843   1.874   6.378   7.475 -0.1018  1.7666 -2.2952
   14SAPS  C313 1844   1.722   6.363   7.625 -0.3527  0.4001 -0.1859
   14SAPS  H13X 1845   1.716   6.253   7.610 -0.3805  0.4689 -0.6932
   14SAPS  H13Y 1846   1.618   6.400   7.640 -1.9016 -1.5827 -4.5485
   14SAPS  C314 1847   1.821   6.400   7.740 -0.6173 -0.7931 -0.0336
   14SAPS  H14X 1848   1.820   6.510   7.755  1.0011 -0.5071 -1.7290
   14SAPS  H14Y 1849   1.918   6.374   7.694 -0.6881  1.1219 -1.3821
   14SAPS  C315 1850   1.792   6.329   7.868 -0.5865 -0.1679  0.6048
   14SAPS  H15X 1851   1.829   6.226   7.856  0.7977  0.4883 -1.1481
   14SAPS  H15Y 1852   1.681   6.318   7.873 -0.6962 -0.2017 -1.4010
   14SAPS  C316 1853   1.845   6.398   7.993 -0.5515  0.5587 -0.0330
   14SAPS  H16X 1854   1.799   6.498   8.004 -0.9785  0.5605 -1.5235
   14SAPS  H16Y 1855   1.954   6.420   7.987 -0.4977  0.2573 -0.1916
   14SAPS  C317 1856   1.815   6.301   8.109 -0.2356  0.9199  0.5256
   14SAPS  H17X 1857   1.888   6.313   8.192 -1.3148  0.0703  1.6318
   14SAPS  H17Y 1858   1.817   6.194   8.082  1.1817  1.5323 -2.1725
   14SAPS  C318 1859   1.672   6.337   8.157  0.2784 -0.4415  0.0158
   14SAPS  H18X 1860   1.673   6.443   8.189 -1.7193 -0.3377 -0.1462
   14SAPS  H18Y 1861   1.621   6.276   8.234  0.9865  0.0637  0.8914
   14SAPS  H18Z 1862   1.607   6.342   8.067  0.2150  0.1077  0.0933
   15SAPS     N 1863   1.140   5.471   5.945 -0.2037 -0.4515  0.4469
   15SAPS   HN1 1864   1.137   5.524   6.035  0.8315 -0.3922  0.4653
   15SAPS   HN2 1865   1.222   5.407   5.945 -1.3834 -2.0192 -0.5561
   15SAPS   HN3 1866   1.155   5.536   5.865  1.8813  1.1909  2.0295
   15SAPS   C12 1867   1.024   5.390   5.918  0.2939  0.1965  0.1568
   15SAPS  H12A 1868   1.012   5.326   6.005 -1.7691  0.9050  0.4406
   15SAPS   C13 1869   0.887   5.463   5.878 -0.0053  0.1660 -0.4735
   15SAPS  O13A 1870   0.877   5.587   5.888 -0.0128  0.3335  0.3747
   15SAPS  O13B 1871   0.780   5.394   5.877  0.3146  0.7257  0.2011
   15SAPS   C11 1872   1.046   5.300   5.794  0.6938  0.2392 -0.2135
   15SAPS  H11A 1873   1.026   5.351   5.698  2.1928  2.1289  0.4162
   15SAPS  H11B 1874   0.963   5.227   5.798  0.0275  0.9803 -0.3412
   15SAPS     P 1875   1.227   5.130   5.879  0.2430  0.1785  0.0718
   15SAPS   O13 1876   1.234   5.177   6.017  0.0113  0.4050  0.7013
   15SAPS   O14 1877   1.143   5.013   5.847  0.3512 -0.5707 -0.0232
   15SAPS   O12 1878   1.176   5.252   5.787 -0.2079  0.2980 -0.0802
   15SAPS   O11 1879   1.373   5.103   5.833  0.6954  0.3125 -0.3981
   15SAPS    C1 1880   1.419   4.968   5.848  0.2682  0.3008 -0.1483
   15SAPS    HA 1881   1.347   4.891   5.813  0.9818  0.2522 -1.5692
   15SAPS    HB 1882   1.512   4.946   5.793 -0.3878 -1.1080 -0.7386
   15SAPS    C2 1883   1.451   4.932   5.998  0.1350  0.1248  0.0986
   15SAPS    HS 1884   1.352   4.915   6.046 -0.0581 -2.5898 -1.1004
   15SAPS   O21 1885   1.537   5.030   6.066 -0.1185  0.4931  0.3230
   15SAPS   C21 1886   1.508   5.055   6.189  0.1001 -0.7367  0.2182
   15SAPS   O22 1887   1.412   5.019   6.253  0.5344  0.1883  0.3569
   15SAPS   C22 1888   1.624   5.138   6.249  0.7184 -0.1268  0.0793
   15SAPS   H2R 1889   1.712   5.071   6.257  1.4061  0.6953 -0.4343
   15SAPS   H2S 1890   1.657   5.210   6.172  1.9476 -0.7849 -0.0354
   15SAPS    C3 1891   1.526   4.795   6.004  0.8974 -0.4548 -0.8986
   15SAPS    HX 1892   1.604   4.786   5.925  2.4108 -1.2582  0.6247
   15SAPS    HY 1893   1.449   4.719   5.977 -0.8103  1.1031 -0.6390
   15SAPS   O31 1894   1.589   4.776   6.137 -0.3187  0.0582  0.0794
   15SAPS   C31 1895   1.508   4.716   6.231  0.4323  0.0448 -0.3061
   15SAPS   O32 1896   1.404   4.658   6.202  0.1298 -0.4172 -0.0527
   15SAPS   C32 1897   1.576   4.721   6.370  0.1220 -0.1421 -0.1696
   15SAPS   H2X 1898   1.628   4.817   6.393  1.6197 -1.2969  1.6307
   15SAPS   H2Y 1899   1.652   4.641   6.380  1.7926  1.5265  1.5184
   15SAPS   C23 1900   1.603   5.200   6.392 -0.3124  0.2352 -0.4534
   15SAPS   H3R 1901   1.502   5.241   6.370 -0.7888 -1.3296 -1.3737
   15SAPS   H3S 1902   1.671   5.285   6.414  2.2887 -2.1524  1.4276
   15SAPS   C24 1903   1.599   5.100   6.507  0.1832  0.0105  0.4595
   15SAPS   H4R 1904   1.531   5.014   6.489  1.9402 -1.0605 -1.5863
   15SAPS   H4S 1905   1.565   5.149   6.600  0.2316  0.5850  0.1782
   15SAPS   C25 1906   1.738   5.045   6.535  0.2579  0.1770 -0.0752
   15SAPS   H5R 1907   1.759   4.963   6.464 -2.3921  0.9880 -1.9763
   15SAPS   C26 1908   1.834   5.082   6.623 -0.0330  0.5844 -0.4063
   15SAPS   H6R 1909   1.935   5.039   6.618 -1.3356 -3.0913  1.2400
   15SAPS   C27 1910   1.807   5.195   6.723  0.5395 -0.3328  0.0948
   15SAPS   H7R 1911   1.700   5.214   6.743  0.6480  0.4638 -0.0544
   15SAPS   H7S 1912   1.857   5.287   6.686  2.6774 -1.8111 -0.9904
   15SAPS   C28 1913   1.862   5.173   6.859  0.2622  0.6486 -0.8873
   15SAPS   H8R 1914   1.789   5.146   6.937  1.2578  2.4674  0.7781
   15SAPS   C29 1915   1.983   5.213   6.908  0.9194 -0.6116  0.6135
   15SAPS   H9R 1916   2.004   5.183   7.012 -0.6839  1.1050  1.4967
   15SAPS  C210 1917   2.098   5.275   6.830  0.2489 -0.3566  0.3351
   15SAPS  H10R 1918   2.140   5.373   6.863  1.1213 -0.3909 -0.5908
   15SAPS  H10S 1919   2.070   5.286   6.723  1.5570 -1.1421 -0.1083
   15SAPS  C211 1920   2.212   5.175   6.848 -0.0621 -0.5304  0.0696
   15SAPS  H11R 1921   2.232   5.113   6.760 -0.7774  1.9061 -1.9439
   15SAPS  C212 1922   2.281   5.160   6.955  0.0173  0.3616  0.7713
   15SAPS  H12R 1923   2.345   5.071   6.949 -2.4006 -1.3709 -2.3751
   15SAPS  C213 1924   2.278   5.236   7.083 -1.0015 -0.2662  0.1689
   15SAPS  H13R 1925   2.182   5.259   7.132 -0.1752 -0.7859  2.1035
   15SAPS  H13S 1926   2.295   5.342   7.054  1.1021 -0.3600  0.8380
   15SAPS  C214 1927   2.387   5.195   7.184  0.2090 -0.0866 -0.8825
   15SAPS  H14R 1928   2.491   5.213   7.154  0.1732  0.2954 -0.7852
   15SAPS  C215 1929   2.364   5.144   7.311 -0.0322 -0.1016  0.7424
   15SAPS  H15R 1930   2.459   5.110   7.357  0.8582  0.5623 -0.5462
   15SAPS  C216 1931   2.234   5.120   7.385  0.9813  0.0896  0.5547
   15SAPS  H16R 1932   2.243   5.031   7.451  1.7283 -0.8496 -0.7811
   15SAPS  H16S 1933   2.144   5.115   7.320  2.3177  1.8004 -1.5585
   15SAPS  C217 1934   2.222   5.244   7.481  0.6466  0.1103  0.4937
   15SAPS  H17R 1935   2.191   5.329   7.417  3.4484  2.0866  1.5829
   15SAPS  H17S 1936   2.313   5.280   7.532  1.6646 -0.5129 -0.8163
   15SAPS  C218 1937   2.106   5.226   7.580 -0.2127  0.3868  0.2194
   15SAPS  H18R 1938   2.129   5.137   7.641 -1.5072 -1.0537 -1.2717
   15SAPS  H18S 1939   2.021   5.202   7.512  1.1141 -2.5318 -0.5704
   15SAPS  C219 1940   2.074   5.348   7.677 -0.3624  0.3185  0.5017
   15SAPS  H19R 1941   2.100   5.446   7.632 -0.6208  0.2501  0.2008
   15SAPS  H19S 1942   2.140   5.341   7.766  0.7445 -1.1628 -0.3975
   15SAPS  C220 1943   1.937   5.351   7.729  0.4607 -0.7375 -0.6369
   15SAPS  H20R 1944   1.911   5.270   7.800 -0.2160  2.2030  2.7669
   15SAPS  H20S 1945   1.865   5.346   7.644  0.3352 -0.0021 -0.5780
   15SAPS  H20T 1946   1.931   5.441   7.793  1.7640 -1.1398  0.0889
   15SAPS   C33 1947   1.479   4.695   6.486  0.2843  0.1145 -0.1169
   15SAPS   H3X 1948   1.421   4.605   6.457 -1.4335  1.3131 -0.5451
   15SAPS   H3Y 1949   1.412   4.783   6.487 -0.6831 -0.5815 -0.9201
   15SAPS   C34 1950   1.553   4.664   6.613  0.0990  0.0427  0.2497
   15SAPS   H4X 1951   1.650   4.716   6.617  0.4751 -0.6918  1.0802
   15SAPS   H4Y 1952   1.572   4.555   6.608  1.0336  0.2504 -1.2093
   15SAPS   C35 1953   1.488   4.700   6.749 -0.1218 -0.3780  0.5411
   15SAPS   H5X 1954   1.551   4.664   6.833 -0.8103  1.7137  2.0371
   15SAPS   H5Y 1955   1.394   4.645   6.767  1.1691 -3.4539 -1.2904
   15SAPS   C36 1956   1.466   4.855   6.764  0.0642 -0.4351 -0.1931
   15SAPS   H6X 1957   1.396   4.889   6.685  1.7306  0.1303 -1.4859
   15SAPS   H6Y 1958   1.570   4.891   6.755  0.0127  0.7171  2.6401
   15SAPS   C37 1959   1.407   4.895   6.906  0.3181  0.1358  0.9163
   15SAPS   H7X 1960   1.307   4.846   6.911 -0.1506  0.5406 -2.1445
   15SAPS   H7Y 1961   1.393   5.005   6.915 -0.0997  0.3471 -1.5324
   15SAPS   C38 1962   1.494   4.843   7.018 -0.1632  0.3070 -0.4030
   15SAPS   H8X 1963   1.600   4.876   7.006 -0.7230  2.1029 -0.7584
   15SAPS   H8Y 1964   1.476   4.735   7.037  0.4922  0.4588  1.3047
   15SAPS   C39 1965   1.442   4.908   7.147 -0.0468 -0.3663  0.1022
   15SAPS   H9X 1966   1.340   4.875   7.177 -0.2690  0.1427 -0.0860
   15SAPS   H9Y 1967   1.435   5.017   7.133 -1.2992 -0.6540 -1.9168
   15SAPS  C310 1968   1.536   4.874   7.265 -0.1092  0.0606 -0.1802
   15SAPS  H10X 1969   1.623   4.809   7.243 -1.0288 -0.9222 -1.0811
   15SAPS  H10Y 1970   1.477   4.809   7.333  0.4847  0.3298  0.6089
   15SAPS  C311 1971   1.574   5.006   7.343  0.6441  0.9308  0.5148
   15SAPS  H11X 1972   1.615   4.989   7.445 -2.1613 -3.1747  1.1978
   15SAPS  H11Y 1973   1.470   5.040   7.360  0.0244 -0.1998 -0.8513
   15SAPS  C312 1974   1.664   5.102   7.269 -0.5543 -0.4019  0.2700
   15SAPS  H12X 1975   1.623   5.129   7.170 -0.2566  2.0487  0.7442
   15SAPS  H12Y 1976   1.759   5.046   7.258 -0.5878 -0.0016 -2.9501
   15SAPS  C313 1977   1.697   5.228   7.345  0.0590 -0.1129 -0.3101
   15SAPS  H13X 1978   1.717   5.205   7.452  2.9084 -0.4628 -0.8333
   15SAPS  H13Y 1979   1.605   5.289   7.336 -0.5342 -0.9289  0.0245
   15SAPS  C314 1980   1.801   5.307   7.276 -0.1905  0.1824 -0.0537
   15SAPS  H14X 1981   1.819   5.281   7.169 -1.0136 -2.5644  0.4082
   15SAPS  H14Y 1982   1.890   5.280   7.338 -0.3141  3.5434  1.8198
   15SAPS  C315 1983   1.800   5.459   7.310  0.0404  0.3649 -0.3457
   15SAPS  H15X 1984   1.781   5.480   7.417  0.3728 -1.7064  0.1562
   15SAPS  H15Y 1985   1.724   5.503   7.242  0.0728 -0.2796 -0.8053
   15SAPS  C316 1986   1.934   5.528   7.274 -0.3262 -1.3194  0.2100
   15SAPS  H16X 1987   2.024   5.492   7.329 -0.2994 -1.9343 -0.2175
   15SAPS  H16Y 1988   1.929   5.637   7.290 -1.8299 -1.0009 -1.9408
   15SAPS  C317 1989   1.967   5.514   7.115 -0.0438 -0.3042 -0.2980
   15SAPS  H17X 1990   1.956   5.406   7.089 -2.3552 -0.1377 -0.2092
   15SAPS  H17Y 1991   2.073   5.542   7.093 -1.0132  3.7138 -0.6514
   15SAPS  C318 1992   1.884   5.610   7.028  0.2691 -0.5937 -0.7496
   15SAPS  H18X 1993   1.774   5.601   7.037 -0.2319  3.6503 -0.6647
   15SAPS  H18Y 1994   1.915   5.593   6.922  1.0955 -1.2872 -0.4134
   15SAPS  H18Z 1995   1.891   5.707   7.081 -1.7649 -0.8681  0.0913
   16SAPS     N 1996   3.520   1.877   6.419 -0.2285  0.0010  0.0918
   16SAPS   HN1 1997   3.559   1.787   6.454  0.1136  0.4436  0.9068
   16SAPS   HN2 1998   3.507   1.933   6.507 -0.9376  0.0966 -0.0699
   16SAPS   HN3 1999   3.430   1.867   6.369 -0.0424  1.4782 -0.6130
   16SAPS   C12 2000   3.603   1.957   6.330  0.1024 -0.2951  0.4115
   16SAPS  H12A 2001   3.627   1.907   6.237  0.4315 -1.6534  1.1913
   16SAPS   C13 2002   3.537   2.085   6.284  0.1286  0.4076 -0.4483
   16SAPS  O13A 2003   3.425   2.111   6.326  0.0189  0.5542  0.5406
   16SAPS  O13B 2004   3.596   2.171   6.218 -0.6555 -0.5736  0.6151
   16SAPS   C11 2005   3.738   1.988   6.403 -0.2779  0.0473 -0.2556
   16SAPS  H11A 2006   3.732   2.038   6.501 -0.8094 -1.1320  0.3269
   16SAPS  H11B 2007   3.789   2.062   6.337  0.4003  1.7996  2.0838
   16SAPS     P 2008   3.955   1.845   6.480 -0.1515 -0.3906  0.2573
   16SAPS   O13 2009   4.016   1.718   6.438  0.7855 -0.4130 -0.1845
   16SAPS   O14 2010   4.034   1.966   6.452  0.0327 -0.2046  0.0474
   16SAPS   O12 2011   3.816   1.866   6.405 -0.3516  0.5031  0.6291
   16SAPS   O11 2012   3.926   1.841   6.637 -0.0224  0.3874  0.1510
   16SAPS    C1 2013   3.843   1.745   6.690 -0.2056  0.1036 -0.3593
   16SAPS    HA 2014   3.736   1.770   6.678 -0.4839 -0.9178 -0.0868
   16SAPS    HB 2015   3.851   1.649   6.635 -3.2792 -0.6445  0.2923
   16SAPS    C2 2016   3.877   1.725   6.842 -0.1171 -0.2153  0.9804
   16SAPS    HS 2017   3.809   1.641   6.869 -0.4477 -0.0272  0.7506
   16SAPS   O21 2018   3.836   1.846   6.912  0.5004 -0.1634  0.3322
   16SAPS   C21 2019   3.710   1.866   6.939  0.4075  0.4934 -0.4865
   16SAPS   O22 2020   3.619   1.784   6.923 -0.5211 -0.4092  0.4434
   16SAPS   C22 2021   3.678   1.997   7.008 -0.8694  0.3591 -0.2108
   16SAPS   H2R 2022   3.753   2.018   7.087  1.1303 -1.0248 -1.6582
   16SAPS   H2S 2023   3.693   2.072   6.928 -1.7112 -1.7038 -2.4159
   16SAPS    C3 2024   4.022   1.694   6.893  0.0346 -0.5410  0.0678
   16SAPS    HX 2025   4.091   1.775   6.859  1.0217 -1.5899 -0.5254
   16SAPS    HY 2026   4.054   1.600   6.842  1.4924  0.3505 -0.7409
   16SAPS   O31 2027   4.035   1.702   7.039 -0.3399  0.6175 -0.1902
   16SAPS   C31 2028   4.148   1.657   7.083  0.1687 -0.1493 -1.4459
   16SAPS   O32 2029   4.230   1.596   7.019 -0.6378  0.3112 -0.3518
   16SAPS   C32 2030   4.148   1.690   7.238 -0.6756 -0.2187 -0.9641
   16SAPS   H2X 2031   4.060   1.638   7.281 -1.0507  1.5977  0.5828
   16SAPS   H2Y 2032   4.141   1.798   7.263 -0.8944 -0.9452  2.6161
   16SAPS   C23 2033   3.535   2.007   7.069  0.3641  0.2188 -0.5911
   16SAPS   H3R 2034   3.522   1.933   7.151 -1.1403  1.0027 -0.0861
   16SAPS   H3S 2035   3.463   1.980   6.989  0.3424 -0.4580 -0.3452
   16SAPS   C24 2036   3.499   2.152   7.125 -0.3002 -0.4607  1.0559
   16SAPS   H4R 2037   3.506   2.223   7.040  1.8073 -1.2512  0.4983
   16SAPS   H4S 2038   3.580   2.176   7.197  0.0276  0.1393  0.4988
   16SAPS   C25 2039   3.368   2.173   7.189  0.1723 -0.3924 -0.0693
   16SAPS   H5R 2040   3.283   2.206   7.126  0.3906  0.2498 -0.0335
   16SAPS   C26 2041   3.339   2.134   7.319 -0.3271  0.4030  0.5791
   16SAPS   H6R 2042   3.235   2.132   7.355 -1.1746  2.6200 -1.4301
   16SAPS   C27 2043   3.439   2.080   7.418 -0.1442 -0.5176 -0.0339
   16SAPS   H7R 2044   3.428   2.138   7.512  0.7685 -0.1904 -0.1154
   16SAPS   H7S 2045   3.543   2.094   7.381 -1.0066  2.5495 -1.6884
   16SAPS   C28 2046   3.422   1.931   7.432 -0.1515 -0.0913 -0.4789
   16SAPS   H8R 2047   3.402   1.874   7.340  1.0307 -0.8385 -0.2881
   16SAPS   C29 2048   3.404   1.860   7.544  0.0788  0.1624 -0.4250
   16SAPS   H9R 2049   3.400   1.750   7.535  1.8759 -0.0789  1.1511
   16SAPS  C210 2050   3.408   1.912   7.685 -0.3036 -0.0568 -0.5109
   16SAPS  H10R 2051   3.382   1.821   7.743 -1.6516  1.0744  0.7592
   16SAPS  H10S 2052   3.320   1.977   7.703  0.6915  0.4621  3.8072
   16SAPS  C211 2053   3.520   1.999   7.743 -0.3658  0.0744 -1.1812
   16SAPS  H11R 2054   3.575   2.067   7.675 -0.0938  1.0632 -0.0068
   16SAPS  C212 2055   3.563   2.010   7.870  0.6082 -0.1430  0.8142
   16SAPS  H12R 2056   3.640   2.086   7.892  1.8367 -0.4846 -1.8704
   16SAPS  C213 2057   3.509   1.939   7.992 -0.0629  0.1730  0.2672
   16SAPS  H13R 2058   3.590   1.915   8.065 -0.5117 -0.4242  0.5774
   16SAPS  H13S 2059   3.471   1.841   7.958 -0.5809  0.1731  0.8186
   16SAPS  C214 2060   3.388   2.008   8.063  0.2053  0.0620 -0.1572
   16SAPS  H14R 2061   3.381   2.116   8.045  1.6699 -0.1024 -2.1660
   16SAPS  C215 2062   3.297   1.944   8.137  0.5528 -0.4689  0.3093
   16SAPS  H15R 2063   3.213   2.004   8.175  0.5199  0.3069 -0.9362
   16SAPS  C216 2064   3.311   1.801   8.168  0.3812 -0.5168  0.4260
   16SAPS  H16R 2065   3.302   1.803   8.279 -0.4087  0.4472  0.3514
   16SAPS  H16S 2066   3.409   1.750   8.152  1.5720  1.8991 -0.4950
   16SAPS  C217 2067   3.209   1.711   8.104 -0.3283  0.3408  0.6162
   16SAPS  H17R 2068   3.233   1.713   7.995  1.0073 -0.2412  0.8826
   16SAPS  H17S 2069   3.107   1.750   8.122  0.2117  1.9598  0.3401
   16SAPS  C218 2070   3.227   1.561   8.145  0.3656 -1.5603 -0.1112
   16SAPS  H18R 2071   3.331   1.534   8.116  1.0258 -0.3935  1.0797
   16SAPS  H18S 2072   3.153   1.503   8.086 -0.7036 -1.2058  0.8511
   16SAPS  C219 2073   3.200   1.537   8.296 -0.0554 -0.2429  0.8154
   16SAPS  H19R 2074   3.092   1.548   8.317  0.0948 -1.4030  2.3969
   16SAPS  H19S 2075   3.258   1.610   8.356  2.5039  0.3624 -2.1222
   16SAPS  C220 2076   3.242   1.397   8.335  0.8560 -0.0540  0.3524
   16SAPS  H20R 2077   3.352   1.391   8.331  1.0959  3.2269 -1.9338
   16SAPS  H20S 2078   3.192   1.316   8.277  3.0193 -1.7286  0.7222
   16SAPS  H20T 2079   3.206   1.372   8.437  3.1655 -0.5763  1.0882
   16SAPS   C33 2080   4.282   1.636   7.292 -0.0769  0.2944  0.6435
   16SAPS   H3X 2081   4.363   1.671   7.225 -0.8504  0.6500 -0.1359
   16SAPS   H3Y 2082   4.295   1.526   7.285  2.3883  0.6038 -1.1823
   16SAPS   C34 2083   4.313   1.675   7.436 -0.0065  0.1164 -0.3372
   16SAPS   H4X 2084   4.272   1.775   7.461 -2.6353 -0.9099 -0.3095
   16SAPS   H4Y 2085   4.423   1.685   7.450  0.0224 -0.3205 -0.2243
   16SAPS   C35 2086   4.264   1.576   7.541  0.2687 -0.5434  0.4430
   16SAPS   H5X 2087   4.293   1.471   7.519  1.4850 -0.1737  0.2178
   16SAPS   H5Y 2088   4.154   1.592   7.547  0.3441 -0.0998  0.6761
   16SAPS   C36 2089   4.307   1.611   7.679  0.2847 -0.1641 -0.2490
   16SAPS   H6X 2090   4.273   1.709   7.721 -0.8378 -1.2889  1.6442
   16SAPS   H6Y 2091   4.418   1.609   7.680  0.2765 -1.1365 -0.8098
   16SAPS   C37 2092   4.282   1.491   7.780  0.9961  0.1496  0.4385
   16SAPS   H7X 2093   4.330   1.397   7.744 -1.3862 -1.0005  0.0781
   16SAPS   H7Y 2094   4.175   1.468   7.761  0.8075  1.6960 -0.5605
   16SAPS   C38 2095   4.324   1.520   7.923  0.7925 -0.0309  0.2541
   16SAPS   H8X 2096   4.252   1.597   7.958  0.0539  0.7712 -2.6648
   16SAPS   H8Y 2097   4.426   1.564   7.921 -0.2040  2.5150 -2.2074
   16SAPS   C39 2098   4.322   1.400   8.022 -0.5275  0.2925  0.6902
   16SAPS   H9X 2099   4.337   1.307   7.964 -2.6240  0.0183  0.5094
   16SAPS   H9Y 2100   4.225   1.401   8.075  0.3065 -1.3010  2.3375
   16SAPS  C310 2101   4.424   1.396   8.136  0.2080 -0.0910 -0.3483
   16SAPS  H10X 2102   4.523   1.425   8.095  0.0919 -2.9671 -3.0223
   16SAPS  H10Y 2103   4.432   1.293   8.179  1.8603 -0.2197 -0.8938
   16SAPS  C311 2104   4.387   1.495   8.246  0.1506  0.4358 -0.0302
   16SAPS  H11X 2105   4.297   1.461   8.302  0.6642  0.8851  1.0849
   16SAPS  H11Y 2106   4.352   1.596   8.216  0.2339  0.8093  1.0912
   16SAPS  C312 2107   4.507   1.522   8.339  0.2100 -0.3461 -0.0660
   16SAPS  H12X 2108   4.582   1.566   8.270 -0.9072  1.1013 -0.4040
   16SAPS  H12Y 2109   4.547   1.427   8.381 -0.8295 -1.3138 -1.2164
   16SAPS  C313 2110   4.487   1.624   8.456  0.0958  0.1187  0.6054
   16SAPS  H13X 2111   4.439   1.717   8.419  0.8381  0.7472  1.1840
   16SAPS  H13Y 2112   4.587   1.660   8.490  0.7880 -1.9400  0.9136
   16SAPS  C314 2113   4.393   1.566   8.556  0.4190  0.1808 -0.2623
   16SAPS  H14X 2114   4.437   1.472   8.596  0.4911  0.4527  0.3182
   16SAPS  H14Y 2115   4.302   1.538   8.500  1.0776 -0.4015 -1.0643
   16SAPS  C315 2116   4.363   1.671   8.670 -0.3153 -0.1706  0.1266
   16SAPS  H15X 2117   4.326   1.766   8.624 -0.8537 -0.8321 -0.8364
   16SAPS  H15Y 2118   4.455   1.706   8.722  0.0849  2.0311 -1.8732
   16SAPS  C316 2119   4.263   1.609   8.764 -0.4711 -0.2855 -0.2332
   16SAPS  H16X 2120   4.303   1.520   8.816  0.6664  1.1693  1.4778
   16SAPS  H16Y 2121   4.168   1.576   8.715 -1.0241 -2.0774  1.8732
   16SAPS  C317 2122   4.237   1.700   8.891  0.3462 -0.5415 -0.2599
   16SAPS  H17X 2123   4.193   1.794   8.852  0.7026  1.2629  3.2326
   16SAPS  H17Y 2124   4.335   1.712   8.942  0.4247 -1.4609 -0.1759
   16SAPS  C318 2125   4.135   1.634   8.988  0.5659 -0.1278 -0.0587
   16SAPS  H18X 2126   4.043   1.605   8.931  1.0421 -1.0262 -0.3923
   16SAPS  H18Y 2127   4.108   1.695   9.076  1.1013 -0.3434  0.2574
   16SAPS  H18Z 2128   4.184   1.542   9.028  0.4377  0.3743  1.2910
   17SAPC     N 2129   6.754   3.278  10.552 -0.6656  1.0175  0.8596
   17SAPC   C12 2130   6.868   3.355  10.613  0.2775  0.1588 -0.1211
   17SAPC  H12A 2131   6.961   3.306  10.588 -0.9000 -2.6278  0.5456
   17SAPC  H12B 2132   6.849   3.344  10.719 -0.7668 -0.3602 -0.3465
   17SAPC   C13 2133   6.749   3.143  10.612 -0.0028  0.2607 -0.1071
   17SAPC  H13A 2134   6.671   3.093  10.556 -0.5241  1.4507 -0.4861
   17SAPC  H13B 2135   6.844   3.094  10.601  0.6118  1.0353  1.4573
   17SAPC  H13C 2136   6.731   3.136  10.718  0.3864 -1.3082 -0.1158
   17SAPC   C14 2137   6.630   3.353  10.582  0.5515  0.3552 -0.5120
   17SAPC  H14A 2138   6.547   3.294  10.547  1.4238 -0.5732 -1.0774
   17SAPC  H14B 2139   6.625   3.368  10.689  1.5518  0.6625 -0.4976
   17SAPC  H14C 2140   6.636   3.447  10.529 -0.7192  0.4550 -0.5134
   17SAPC   C15 2141   6.776   3.261  10.408  0.1968  0.1103 -0.1656
   17SAPC  H15A 2142   6.705   3.185  10.375  0.2241 -1.3067  2.7021
   17SAPC  H15B 2143   6.765   3.348  10.346  0.6108  0.3925  0.1576
   17SAPC  H15C 2144   6.878   3.228  10.395 -0.2998 -1.3695 -0.5883
   17SAPC   C11 2145   6.889   3.503  10.583  0.2558 -0.4407 -0.1741
   17SAPC  H11A 2146   6.960   3.546  10.657 -0.7201 -2.6223  2.1872
   17SAPC  H11B 2147   6.802   3.570  10.600 -1.4296 -2.5916  0.1165
   17SAPC     P 2148   7.088   3.520  10.417  0.1772 -0.0680  0.1644
   17SAPC   O13 2149   7.148   3.651  10.453 -0.3713  0.2180 -0.5200
   17SAPC   O14 2150   7.158   3.397  10.448 -0.2675  0.5501  0.2137
   17SAPC   O12 2151   6.939   3.512  10.448  0.2218 -0.1740 -0.3933
   17SAPC   O11 2152   7.071   3.516  10.262  0.4607  0.5168  0.4453
   17SAPC    C1 2153   7.040   3.626  10.183 -0.7254 -0.4096  0.5816
   17SAPC    HA 2154   6.938   3.660  10.208  0.0987  0.3460  3.2581
   17SAPC    HB 2155   7.120   3.701  10.203 -1.7100  0.3283  1.8869
   17SAPC    C2 2156   7.044   3.596  10.030  0.5351 -0.3188 -0.1152
   17SAPC    HS 2157   6.978   3.510  10.007 -1.4677  0.9574  0.5694
   17SAPC   O21 2158   7.182   3.574   9.997 -0.1872 -0.5596  0.9271
   17SAPC   C21 2159   7.204   3.465   9.921  0.1192 -0.2390  0.9846
   17SAPC   O22 2160   7.120   3.398   9.867  0.3416 -0.1483  0.3729
   17SAPC   C22 2161   7.355   3.445   9.906  0.0589 -0.6922 -0.3753
   17SAPC   H2R 2162   7.403   3.514   9.979 -1.7522  0.4062 -0.1592
   17SAPC   H2S 2163   7.365   3.336   9.928 -1.5278 -0.5005  1.7393
   17SAPC    C3 2164   6.976   3.699   9.938 -0.2351  0.5755 -0.0103
   17SAPC    HX 2165   7.033   3.794   9.944 -3.0631  2.3132  1.3180
   17SAPC    HY 2166   6.875   3.724   9.977 -0.2227 -0.9166  1.0652
   17SAPC   O31 2167   6.991   3.662   9.801  0.0431 -0.0148  0.3035
   17SAPC   C31 2168   6.900   3.582   9.741  0.1942 -0.1126 -0.2191
   17SAPC   O32 2169   6.807   3.533   9.804  0.2556 -0.3028  0.4000
   17SAPC   C32 2170   6.920   3.562   9.593 -0.1692  0.4249 -0.2731
   17SAPC   H2X 2171   7.016   3.509   9.574 -1.0423 -0.5066 -2.3966
   17SAPC   H2Y 2172   6.926   3.661   9.544  2.0898  0.2075 -0.5695
   17SAPC   C23 2173   7.409   3.477   9.767 -0.1750 -0.3707 -0.0432
   17SAPC   H3R 2174   7.455   3.577   9.752  0.0135 -0.4307  0.1285
   17SAPC   H3S 2175   7.317   3.485   9.705 -0.3558 -1.5792  0.0434
   17SAPC   C24 2176   7.511   3.376   9.713 -0.5655 -0.2214 -0.0437
   17SAPC   H4R 2177   7.539   3.410   9.611  1.3662 -2.0872 -0.2093
   17SAPC   H4S 2178   7.465   3.275   9.704  1.9196 -2.1974  5.0116
   17SAPC   C25 2179   7.639   3.366   9.791 -0.2700  0.2710 -0.1791
   17SAPC   H5R 2180   7.622   3.335   9.895 -1.9324 -0.7920 -0.7241
   17SAPC   C26 2181   7.765   3.373   9.751 -0.2473  0.4316  0.1906
   17SAPC   H6R 2182   7.844   3.359   9.826 -3.0044  2.0152  3.7251
   17SAPC   C27 2183   7.815   3.388   9.607 -0.6196 -0.4624  0.1925
   17SAPC   H7R 2184   7.770   3.479   9.564  0.4042  0.0983  0.2676
   17SAPC   H7S 2185   7.782   3.301   9.546 -0.3399 -1.4154  1.3613
   17SAPC   C28 2186   7.964   3.393   9.574 -0.4563 -1.0408 -0.3379
   17SAPC   H8R 2187   8.027   3.423   9.658  0.1233  0.5927 -1.3170
   17SAPC   C29 2188   8.019   3.371   9.456 -0.4539 -0.1134  0.1455
   17SAPC   H9R 2189   8.129   3.368   9.446 -0.5030  1.4788 -1.4603
   17SAPC  C210 2190   7.963   3.334   9.323 -0.2193  0.0693  0.0904
   17SAPC  H10R 2191   7.950   3.224   9.316 -0.8146  0.2072 -1.4207
   17SAPC  H10S 2192   8.035   3.364   9.244  0.8337 -0.8586  0.6757
   17SAPC  C211 2193   7.828   3.392   9.280  0.4171  0.5181 -0.3856
   17SAPC  H11R 2194   7.797   3.488   9.325  1.5899  1.5263 -1.6396
   17SAPC  C212 2195   7.743   3.329   9.200 -0.0578  0.0498  0.0928
   17SAPC  H12R 2196   7.650   3.382   9.177 -0.2153 -0.9493 -1.7139
   17SAPC  C213 2197   7.753   3.197   9.122 -0.2293  0.0613 -0.3131
   17SAPC  H13R 2198   7.653   3.155   9.100 -0.2224  1.0387 -2.5915
   17SAPC  H13S 2199   7.811   3.125   9.182 -1.0416 -0.2118  0.1540
   17SAPC  C214 2200   7.830   3.228   8.988  0.1157  0.9073  0.3096
   17SAPC  H14R 2201   7.923   3.285   9.000 -0.9587  2.3258  2.5260
   17SAPC  C215 2202   7.784   3.182   8.869 -0.1597  0.0160  0.0409
   17SAPC  H15R 2203   7.829   3.216   8.775 -2.9118 -2.3091 -2.3225
   17SAPC  C216 2204   7.653   3.110   8.847  0.0899 -0.0264 -0.1732
   17SAPC  H16R 2205   7.566   3.174   8.873 -0.7509 -2.1180  2.5177
   17SAPC  H16S 2206   7.639   3.023   8.914  0.9808 -0.7952 -0.9538
   17SAPC  C217 2207   7.631   3.062   8.698 -0.3428 -0.3298  0.2344
   17SAPC  H17R 2208   7.712   2.987   8.685 -0.2423 -0.1608 -0.1164
   17SAPC  H17S 2209   7.652   3.148   8.631  0.3503 -0.0511  0.7982
   17SAPC  C218 2210   7.507   2.981   8.659 -0.3038  0.7853  0.4337
   17SAPC  H18R 2211   7.503   2.880   8.706 -1.4321  1.1967  1.2758
   17SAPC  H18S 2212   7.518   2.952   8.552  0.5599  1.0697  0.4441
   17SAPC  C219 2213   7.377   3.066   8.667  0.4750 -0.0408  0.6493
   17SAPC  H19R 2214   7.396   3.159   8.608 -1.3504  1.0941  1.7528
   17SAPC  H19S 2215   7.346   3.105   8.766  1.1270  0.1970  0.7639
   17SAPC  C220 2216   7.261   2.982   8.601  0.4730 -0.2662  0.0845
   17SAPC  H20R 2217   7.279   2.959   8.493  0.3384  2.6488 -0.6599
   17SAPC  H20S 2218   7.169   3.045   8.605  0.7973  0.3047 -1.0159
   17SAPC  H20T 2219   7.240   2.886   8.652  2.4788 -1.7585 -1.7379
   17SAPC   C33 2220   6.806   3.485   9.523  0.6093  0.3648  0.3994
   17SAPC   H3X 2221   6.708   3.528   9.552  0.9800 -0.6631  3.4478
   17SAPC   H3Y 2222   6.802   3.382   9.564 -0.8618  0.2041 -0.0770
   17SAPC   C34 2223   6.831   3.490   9.367 -0.7930 -0.1302 -0.4627
   17SAPC   H4X 2224   6.900   3.405   9.347 -1.4579 -0.6693 -0.5009
   17SAPC   H4Y 2225   6.873   3.587   9.332  0.6005  0.2700  2.0989
   17SAPC   C35 2226   6.704   3.443   9.293  0.3840  0.0694 -0.2355
   17SAPC   H5X 2227   6.621   3.513   9.314 -0.8039 -1.7482  1.4941
   17SAPC   H5Y 2228   6.677   3.347   9.342 -0.3343 -0.2371 -1.2040
   17SAPC   C36 2229   6.689   3.408   9.137 -0.1853 -0.1789 -0.0639
   17SAPC   H6X 2230   6.682   3.500   9.074  2.6880  0.1804  0.0245
   17SAPC   H6Y 2231   6.594   3.353   9.124 -0.4222  0.0726  0.5440
   17SAPC   C37 2232   6.810   3.330   9.091 -0.1248  0.0273  0.3428
   17SAPC   H7X 2233   6.850   3.272   9.178  1.5397  0.0812 -0.3428
   17SAPC   H7Y 2234   6.891   3.394   9.050 -0.2219 -0.4910 -0.6743
   17SAPC   C38 2235   6.764   3.246   8.968 -0.7263  0.2263  0.5168
   17SAPC   H8X 2236   6.662   3.202   8.976 -0.1286 -0.8654  2.7472
   17SAPC   H8Y 2237   6.824   3.154   8.954  0.7758  1.2076  0.3074
   17SAPC   C39 2238   6.774   3.318   8.831  0.2192 -0.2323  0.1622
   17SAPC   H9X 2239   6.874   3.366   8.820 -0.8819  2.2508  0.4149
   17SAPC   H9Y 2240   6.693   3.393   8.824  1.1569  1.0731  2.2528
   17SAPC  C310 2241   6.757   3.216   8.714  0.2334  0.1506 -0.0926
   17SAPC  H10X 2242   6.721   3.115   8.744 -1.7633  1.4352  2.2142
   17SAPC  H10Y 2243   6.858   3.212   8.669 -0.1809  1.1565 -1.1748
   17SAPC  C311 2244   6.669   3.271   8.605 -0.2311 -0.0173 -0.8450
   17SAPC  H11X 2245   6.726   3.358   8.564  1.2171  0.0242  1.1535
   17SAPC  H11Y 2246   6.573   3.299   8.653 -0.5492 -1.1613 -0.7935
   17SAPC  C312 2247   6.638   3.169   8.503 -0.1954  0.9198 -0.1403
   17SAPC  H12X 2248   6.630   3.073   8.558  3.1300  0.5791 -0.0676
   17SAPC  H12Y 2249   6.735   3.152   8.451 -0.6747 -2.6703 -0.0576
   17SAPC  C313 2250   6.521   3.204   8.417 -0.6955  1.0098 -0.1788
   17SAPC  H13X 2251   6.431   3.225   8.479 -0.7059 -1.9091  0.9341
   17SAPC  H13Y 2252   6.502   3.114   8.355  1.1349  0.6997 -0.3650
   17SAPC  C314 2253   6.545   3.324   8.323  0.0060  0.6599 -0.5173
   17SAPC  H14X 2254   6.628   3.290   8.257  0.1415 -2.1128  0.9300
   17SAPC  H14Y 2255   6.581   3.408   8.387  1.2453 -2.1898  2.8222
   17SAPC  C315 2256   6.416   3.367   8.242  0.5792  0.0330  0.3081
   17SAPC  H15X 2257   6.352   3.278   8.222  1.8192 -1.1363  1.3359
   17SAPC  H15Y 2258   6.447   3.413   8.146  1.2478 -0.6473  0.1854
   17SAPC  C316 2259   6.338   3.479   8.317 -0.0432 -0.0134 -0.4406
   17SAPC  H16X 2260   6.403   3.565   8.344 -1.4147  0.8264  0.2986
   17SAPC  H16Y 2261   6.280   3.451   8.407 -1.0404  1.4580 -0.5821
   17SAPC  C317 2262   6.216   3.533   8.236 -0.6205 -0.6312  0.2621
   17SAPC  H17X 2263   6.164   3.436   8.224  1.1511 -1.6211  0.3031
   17SAPC  H17Y 2264   6.250   3.580   8.141 -1.9415  0.6985  0.3974
   17SAPC  C318 2265   6.118   3.622   8.314  0.8771  0.5401  0.3645
   17SAPC  H18X 2266   6.152   3.727   8.325 -1.4957  1.3087  0.8790
   17SAPC  H18Y 2267   6.032   3.643   8.246  3.2869  2.2240 -2.4171
   17SAPC  H18Z 2268   6.090   3.578   8.412 -0.5062  0.0890 -0.2118
   18SAPC     N 2269   1.790   3.264  10.634 -0.0693 -0.1191  0.2426
   18SAPC   C12 2270   1.751   3.186  10.510  0.7018 -0.3932 -0.3853
   18SAPC  H12A 2271   1.762   3.255  10.427  0.6173  0.7743  0.5406
   18SAPC  H12B 2272   1.646   3.162  10.516  0.7941 -0.8004 -0.4136
   18SAPC   C13 2273   1.727   3.196  10.757 -0.0020  0.5264  0.2386
   18SAPC  H13A 2274   1.629   3.165  10.726  0.3342 -0.0022 -0.3315
   18SAPC  H13B 2275   1.790   3.115  10.792 -0.2675 -0.0127 -0.4881
   18SAPC  H13C 2276   1.718   3.267  10.838 -0.2070 -0.6773  1.3098
   18SAPC   C14 2277   1.939   3.282  10.648 -0.3562  0.0473 -0.1296
   18SAPC  H14A 2278   1.977   3.333  10.561 -0.2402  0.6399  0.2574
   18SAPC  H14B 2279   1.975   3.343  10.730  2.3516  0.4542 -1.5327
   18SAPC  H14C 2280   1.997   3.191  10.653 -0.8509 -0.2109  2.4375
   18SAPC   C15 2281   1.731   3.405  10.623  0.6471 -0.4334 -0.2426
   18SAPC  H15A 2282   1.762   3.472  10.702 -1.9532  2.7005 -1.6098
   18SAPC  H15B 2283   1.740   3.452  10.526 -4.9227  0.4205 -0.6952
   18SAPC  H15C 2284   1.624   3.392  10.631  0.6956 -0.2948  0.8203
   18SAPC   C11 2285   1.827   3.063  10.482  0.6153  0.1552  0.4283
   18SAPC  H11A 2286   1.936   3.086  10.483  0.3535  1.4179  1.9724
   18SAPC  H11B 2287   1.803   3.025  10.380  1.3730  0.0795  0.2706
   18SAPC     P 2288   1.717   2.846  10.580  0.2571  0.5954 -0.4757
   18SAPC   O13 2289   1.765   2.741  10.673  1.0822  0.5282  1.1967
   18SAPC   O14 2290   1.585   2.908  10.615 -0.0425  0.5790 -0.0044
   18SAPC   O12 2291   1.819   2.958  10.571  0.2610  0.4145 -0.0311
   18SAPC   O11 2292   1.717   2.798  10.432 -0.4399  0.2320  0.2270
   18SAPC    C1 2293   1.837   2.745  10.375 -0.8570  0.1792 -0.6484
   18SAPC    HA 2294   1.933   2.787  10.411 -0.1112  0.1415 -2.4988
   18SAPC    HB 2295   1.841   2.639  10.405  1.5600  0.3795 -0.0659
   18SAPC    C2 2296   1.829   2.769  10.226 -0.4810  0.1362  0.2411
   18SAPC    HS 2297   1.796   2.873  10.204  1.1569  0.6292  0.0096
   18SAPC   O21 2298   1.752   2.658  10.172  0.0894  0.2478 -0.0607
   18SAPC   C21 2299   1.639   2.694  10.121  0.2044 -0.2038  0.4356
   18SAPC   O22 2300   1.585   2.801  10.131 -0.4130  0.2164  0.1953
   18SAPC   C22 2301   1.580   2.568  10.054 -0.1508 -0.4196 -0.6097
   18SAPC   H2R 2302   1.656   2.487  10.047  1.1115  0.7712 -1.0314
   18SAPC   H2S 2303   1.497   2.520  10.111 -1.0008  0.4876 -1.0633
   18SAPC    C3 2304   1.971   2.760  10.164 -0.7505 -0.5911 -0.0033
   18SAPC    HX 2305   2.025   2.670  10.201  2.0168  0.7998 -0.3554
   18SAPC    HY 2306   2.038   2.842  10.197 -0.7162 -0.3951 -0.5468
   18SAPC   O31 2307   1.968   2.755  10.019  0.3535 -0.4447  0.1535
   18SAPC   C31 2308   1.940   2.868   9.957  0.4306  0.5358 -0.0559
   18SAPC   O32 2309   1.937   2.978  10.005  0.6511 -0.2172  0.4271
   18SAPC   C32 2310   1.910   2.841   9.811  0.0102  0.6193  0.0355
   18SAPC   H2X 2311   1.811   2.888   9.797 -0.2564  0.0776  0.0651
   18SAPC   H2Y 2312   1.913   2.733   9.785 -1.5698  0.7774 -0.9288
   18SAPC   C23 2313   1.523   2.595   9.917 -0.5511 -0.2878 -0.3329
   18SAPC   H3R 2314   1.594   2.638   9.844 -0.4770 -2.2089 -1.4539
   18SAPC   H3S 2315   1.453   2.681   9.926  1.3677  1.3798 -0.7519
   18SAPC   C24 2316   1.461   2.474   9.845  0.0567  0.6397  0.0333
   18SAPC   H4R 2317   1.530   2.387   9.854 -0.2107  0.6044  2.6200
   18SAPC   H4S 2318   1.446   2.517   9.744  0.5065  0.4696 -0.1067
   18SAPC   C25 2319   1.330   2.403   9.897 -0.3272  0.2798 -0.2009
   18SAPC   H5R 2320   1.355   2.348   9.989  1.1913  1.9708  0.4566
   18SAPC   C26 2321   1.212   2.391   9.837  0.0545 -0.5554 -0.3945
   18SAPC   H6R 2322   1.126   2.350   9.891 -1.6686  1.2541 -1.6401
   18SAPC   C27 2323   1.169   2.437   9.706  0.4020 -0.9112 -0.2367
   18SAPC   H7R 2324   1.218   2.534   9.680 -0.5927  0.4498  2.5539
   18SAPC   H7S 2325   1.061   2.461   9.712  0.5279 -0.1756 -0.8164
   18SAPC   C28 2326   1.180   2.331   9.601 -0.1710 -0.0801  0.7339
   18SAPC   H8R 2327   1.148   2.230   9.627  2.1392 -1.0706 -0.0094
   18SAPC   C29 2328   1.198   2.354   9.470  0.5146  0.3101  0.4620
   18SAPC   H9R 2329   1.199   2.266   9.404  1.2225 -0.8670  1.9877
   18SAPC  C210 2330   1.224   2.484   9.403 -0.6691  0.4978 -0.3315
   18SAPC  H10R 2331   1.225   2.472   9.293 -1.3508  3.8786 -0.8265
   18SAPC  H10S 2332   1.332   2.503   9.422 -0.4987 -0.0861 -0.7087
   18SAPC  C211 2333   1.123   2.598   9.416 -0.5951 -0.2295 -0.3307
   18SAPC  H11R 2334   1.035   2.568   9.474 -0.8363 -0.8578 -1.0029
   18SAPC  C212 2335   1.135   2.721   9.363 -0.2999  0.2634 -0.0227
   18SAPC  H12R 2336   1.055   2.796   9.366  0.2711  0.9976 -1.6910
   18SAPC  C213 2337   1.259   2.758   9.275 -0.2336 -0.2501 -0.2815
   18SAPC  H13R 2338   1.346   2.691   9.257  1.4691  1.2952  1.7294
   18SAPC  H13S 2339   1.303   2.841   9.334  1.8823 -2.5515  1.5796
   18SAPC  C214 2340   1.203   2.809   9.145  0.3518  0.0621 -0.2275
   18SAPC  H14R 2341   1.161   2.910   9.156 -0.1308 -0.2870  1.2900
   18SAPC  C215 2342   1.197   2.745   9.027 -0.2540  0.4311  0.3685
   18SAPC  H15R 2343   1.179   2.798   8.932  0.9676 -0.7215 -0.5436
   18SAPC  C216 2344   1.242   2.603   8.991  0.6385 -0.5916 -0.5832
   18SAPC  H16R 2345   1.162   2.554   8.931 -1.3247  0.2441  1.2315
   18SAPC  H16S 2346   1.250   2.537   9.080  1.7137  0.7725  0.3867
   18SAPC  C217 2347   1.367   2.608   8.913  0.0112 -0.6803 -0.4906
   18SAPC  H17R 2348   1.443   2.655   8.979  0.5875 -1.1943 -0.7853
   18SAPC  H17S 2349   1.352   2.672   8.823  0.2250 -1.1635 -0.8718
   18SAPC  C218 2350   1.422   2.469   8.881  0.5352  0.6178  0.0226
   18SAPC  H18R 2351   1.335   2.409   8.849 -0.2833  2.1195 -0.6504
   18SAPC  H18S 2352   1.459   2.416   8.971 -1.1907 -0.4167  0.1515
   18SAPC  C219 2353   1.532   2.474   8.779 -0.4192 -0.4707 -0.1202
   18SAPC  H19R 2354   1.506   2.527   8.685  0.5440 -0.8976 -0.6424
   18SAPC  H19S 2355   1.548   2.367   8.751  0.9874 -0.4310  0.4292
   18SAPC  C220 2356   1.664   2.505   8.844  0.7087 -0.3184 -0.4466
   18SAPC  H20R 2357   1.676   2.429   8.924 -1.1046 -0.6980 -0.4939
   18SAPC  H20S 2358   1.664   2.610   8.879  1.0371 -0.1375 -0.9727
   18SAPC  H20T 2359   1.746   2.496   8.769  1.5437 -0.2166  0.4344
   18SAPC   C33 2360   2.018   2.915   9.727 -0.6607  0.4553 -0.3373
   18SAPC   H3X 2361   2.119   2.904   9.771 -0.2269  1.0698 -1.1585
   18SAPC   H3Y 2362   1.999   3.023   9.713 -0.2094  0.7364  1.0712
   18SAPC   C34 2363   2.030   2.861   9.581  0.5484  0.2188 -0.0587
   18SAPC   H4X 2364   1.930   2.840   9.537  1.7563 -2.7177 -1.7371
   18SAPC   H4Y 2365   2.075   2.759   9.579  0.0830  0.0145 -0.4429
   18SAPC   C35 2366   2.104   2.965   9.492 -0.0342 -0.1827  0.9658
   18SAPC   H5X 2367   2.189   3.010   9.547  0.9116  0.4481 -0.9197
   18SAPC   H5Y 2368   2.039   3.051   9.466  0.5898 -0.2262 -0.8904
   18SAPC   C36 2369   2.149   2.901   9.352 -0.1013 -0.2131 -0.7300
   18SAPC   H6X 2370   2.249   2.864   9.384 -0.7611 -0.8890  0.6630
   18SAPC   H6Y 2371   2.159   2.993   9.291 -3.1278  2.1003  1.9323
   18SAPC   C37 2372   2.052   2.811   9.278 -0.3827  0.6125 -0.1548
   18SAPC   H7X 2373   1.953   2.861   9.270 -0.8501 -0.4237 -1.2011
   18SAPC   H7Y 2374   2.054   2.718   9.338  1.0877  1.4997  1.2502
   18SAPC   C38 2375   2.090   2.765   9.136 -0.2722  0.4581  0.4132
   18SAPC   H8X 2376   2.009   2.693   9.112 -1.5956  1.3125  2.1435
   18SAPC   H8Y 2377   2.190   2.718   9.148 -1.0545 -1.0172  1.4570
   18SAPC   C39 2378   2.083   2.880   9.032  0.1833  0.8341  0.7176
   18SAPC   H9X 2379   2.182   2.930   9.029 -0.0453  1.2593  0.2030
   18SAPC   H9Y 2380   1.998   2.944   9.063  0.0753  0.7844  0.5252
   18SAPC  C310 2381   2.050   2.828   8.889 -0.0317 -0.0148  0.2447
   18SAPC  H10X 2382   2.034   2.914   8.820  0.4604  0.6561  0.9445
   18SAPC  H10Y 2383   1.957   2.768   8.882 -1.1294  1.2858  2.4392
   18SAPC  C311 2384   2.161   2.738   8.818  0.8798  0.1541 -0.2403
   18SAPC  H11X 2385   2.193   2.662   8.892  0.5408 -1.9938 -2.1734
   18SAPC  H11Y 2386   2.257   2.793   8.805  1.0183  0.3276  1.4021
   18SAPC  C312 2387   2.115   2.668   8.688  0.0836 -0.6987 -0.6372
   18SAPC  H12X 2388   2.055   2.730   8.618 -1.0138 -2.6552 -1.5006
   18SAPC  H12Y 2389   2.046   2.589   8.726 -1.4043  0.7834 -0.1440
   18SAPC  C313 2390   2.225   2.610   8.599  0.1411 -0.1676 -0.6682
   18SAPC  H13X 2391   2.308   2.681   8.579  0.8014 -0.6172  0.3815
   18SAPC  H13Y 2392   2.166   2.590   8.507 -2.3610 -1.5234  1.1272
   18SAPC  C314 2393   2.275   2.485   8.661 -0.1046  0.4397  1.0545
   18SAPC  H14X 2394   2.193   2.412   8.644  0.9767 -0.2135 -2.1037
   18SAPC  H14Y 2395   2.289   2.512   8.768 -0.1234 -0.3065  1.2467
   18SAPC  C315 2396   2.406   2.431   8.594  0.3030 -0.9491 -0.5883
   18SAPC  H15X 2397   2.476   2.514   8.618 -1.5035  0.6882 -0.7911
   18SAPC  H15Y 2398   2.402   2.417   8.484  1.1215 -1.0875 -0.6105
   18SAPC  C316 2399   2.459   2.295   8.640  0.6994  0.0571  0.3121
   18SAPC  H16X 2400   2.388   2.224   8.594 -1.3681  2.1289  0.1555
   18SAPC  H16Y 2401   2.457   2.291   8.751 -0.9420  2.2903  0.4337
   18SAPC  C317 2402   2.600   2.262   8.595 -0.1494 -0.3018 -0.4849
   18SAPC  H17X 2403   2.673   2.295   8.671 -1.5965  0.8730  0.4476
   18SAPC  H17Y 2404   2.618   2.320   8.502  0.0061 -2.4510 -1.8857
   18SAPC  C318 2405   2.621   2.110   8.560  0.0659  0.3810  0.0204
   18SAPC  H18X 2406   2.542   2.087   8.486 -1.3648 -0.4114  1.7299
   18SAPC  H18Y 2407   2.623   2.037   8.643 -4.4016  0.9021  0.7908
   18SAPC  H18Z 2408   2.722   2.107   8.513  1.1418  1.1038  2.1538
   19SAPC     N 2409   1.019   5.932  10.753 -0.3036  0.1321  0.2917
   19SAPC   C12 2410   1.014   5.794  10.693  0.0092 -0.9269  0.4200
   19SAPC  H12A 2411   0.948   5.731  10.750 -3.6546  1.5448 -0.6897
   19SAPC  H12B 2412   1.115   5.757  10.700 -0.2253 -1.2899  2.3003
   19SAPC   C13 2413   1.138   5.943  10.845 -0.6439 -0.3957  0.1157
   19SAPC  H13A 2414   1.224   5.906  10.792 -0.9105  0.1907 -0.7507
   19SAPC  H13B 2415   1.165   6.045  10.867 -0.9368 -0.7724  2.4556
   19SAPC  H13C 2416   1.120   5.894  10.939  0.8642 -1.2758 -0.0280
   19SAPC   C14 2417   1.027   6.039  10.644  0.1143 -0.2801 -0.1550
   19SAPC  H14A 2418   1.118   6.026  10.587  3.5516  2.4061  4.1362
   19SAPC  H14B 2419   0.940   6.025  10.581  1.2997 -0.6318 -1.7714
   19SAPC  H14C 2420   1.018   6.138  10.686 -0.6406 -0.1750 -0.5455
   19SAPC   C15 2421   0.888   5.959  10.818  0.0404  0.3220 -0.2024
   19SAPC  H15A 2422   0.883   6.040  10.889 -1.0327  0.3210 -0.2657
   19SAPC  H15B 2423   0.810   5.978  10.745 -0.4969  2.8330  0.9251
   19SAPC  H15C 2424   0.853   5.873  10.872  0.8415 -0.1002 -0.3304
   19SAPC   C11 2425   0.954   5.781  10.555  0.1929 -0.0535 -0.7612
   19SAPC  H11A 2426   0.986   5.678  10.528 -0.7834 -0.6792  0.4026
   19SAPC  H11B 2427   0.993   5.849  10.476 -0.1647  0.6408 -0.3508
   19SAPC     P 2428   0.709   5.684  10.574 -0.1443  0.1111  0.4803
   19SAPC   O13 2429   0.752   5.575  10.662 -0.6662  0.2149  0.4721
   19SAPC   O14 2430   0.580   5.736  10.603 -0.2615 -0.2269 -0.2251
   19SAPC   O12 2431   0.814   5.800  10.581  0.1090  0.2445 -0.0859
   19SAPC   O11 2432   0.706   5.647  10.423 -0.2542 -0.2673  0.5604
   19SAPC    C1 2433   0.724   5.754  10.318  0.5367 -0.0874 -0.0715
   19SAPC    HA 2434   0.623   5.775  10.277  0.7765  2.5927  0.5653
   19SAPC    HB 2435   0.767   5.844  10.367 -1.4213  1.7183 -1.4865
   19SAPC    C2 2436   0.819   5.696  10.215  0.1184 -0.7787  0.2237
   19SAPC    HS 2437   0.918   5.693  10.265 -0.1957  0.1883  0.9497
   19SAPC   O21 2438   0.824   5.778  10.099  0.5568  0.4932  0.3579
   19SAPC   C21 2439   0.900   5.885  10.112 -0.3103 -0.6059  0.3719
   19SAPC   O22 2440   0.981   5.911  10.195 -0.5766 -0.5855  0.4144
   19SAPC   C22 2441   0.862   5.981   9.997  0.0942 -0.9062  0.3821
   19SAPC   H2R 2442   0.821   6.074  10.041  0.9472 -0.7580  0.8744
   19SAPC   H2S 2443   0.952   5.997   9.935 -1.1858 -1.0663 -1.6172
   19SAPC    C3 2444   0.791   5.551  10.177 -0.1516  0.0843  0.4040
   19SAPC    HX 2445   0.697   5.562  10.120  0.5274  2.3605 -0.3908
   19SAPC    HY 2446   0.777   5.487  10.266 -2.5170 -1.4925 -1.0127
   19SAPC   O31 2447   0.895   5.504  10.088  0.5821  0.4439 -0.1736
   19SAPC   C31 2448   0.873   5.389  10.021 -0.6067 -0.1584 -0.3984
   19SAPC   O32 2449   0.774   5.320  10.038 -0.4880 -0.2041 -0.2380
   19SAPC   C32 2450   0.992   5.366   9.922 -0.2945  0.1155  0.1813
   19SAPC   H2X 2451   1.052   5.459   9.922 -0.6100  0.3246  0.9872
   19SAPC   H2Y 2452   0.956   5.342   9.819 -0.9183 -1.3393  0.7051
   19SAPC   C23 2453   0.763   5.924   9.887  0.0216  0.2869 -0.0225
   19SAPC   H3R 2454   0.665   5.910   9.936 -0.1288  1.5017  0.0616
   19SAPC   H3S 2455   0.807   5.828   9.854 -0.6037 -0.5420  1.4749
   19SAPC   C24 2456   0.753   6.010   9.753 -0.4433  0.1939 -0.8292
   19SAPC   H4R 2457   0.701   6.107   9.770  1.1808  0.4528  4.0121
   19SAPC   H4S 2458   0.692   5.955   9.678  0.7469 -2.2257 -0.1322
   19SAPC   C25 2459   0.887   6.025   9.691 -0.5475 -0.3146 -0.0641
   19SAPC   H5R 2460   0.958   6.086   9.748  1.1588 -0.7186 -1.6888
   19SAPC   C26 2461   0.925   5.970   9.574 -0.2530 -0.1423  0.4337
   19SAPC   H6R 2462   1.027   5.996   9.543 -0.8110 -0.5268 -1.8922
   19SAPC   C27 2463   0.849   5.870   9.484  0.0577 -0.2009 -0.4073
   19SAPC   H7R 2464   0.778   5.814   9.548  2.0543 -1.0144  1.1914
   19SAPC   H7S 2465   0.916   5.786   9.455  0.4890 -0.7392  1.9794
   19SAPC   C28 2466   0.781   5.935   9.367  0.7699 -0.6223 -0.7604
   19SAPC   H8R 2467   0.722   6.025   9.393  3.0503  0.3983  1.2821
   19SAPC   C29 2468   0.752   5.883   9.243  0.2302 -0.1709 -0.7196
   19SAPC   H9R 2469   0.691   5.946   9.177  0.2982  3.9001  2.6801
   19SAPC  C210 2470   0.782   5.755   9.188 -0.1490  0.3718  0.8574
   19SAPC  H10R 2471   0.740   5.678   9.256 -0.7860  2.0429  2.4419
   19SAPC  H10S 2472   0.891   5.736   9.195 -0.2779 -1.4150 -1.0514
   19SAPC  C211 2473   0.736   5.734   9.043  0.1716 -0.1693 -0.5396
   19SAPC  H11R 2474   0.694   5.826   9.001 -1.0869  0.1646  1.3222
   19SAPC  C212 2475   0.774   5.638   8.959 -0.4712  0.3458  0.1505
   19SAPC  H12R 2476   0.733   5.628   8.858  2.3949 -0.2505 -1.0481
   19SAPC  C213 2477   0.869   5.532   9.000 -0.3680 -0.3151 -0.2325
   19SAPC  H13R 2478   0.959   5.576   9.049  0.4212 -0.5108 -1.4534
   19SAPC  H13S 2479   0.903   5.487   8.904 -0.3019  0.2051 -0.4630
   19SAPC  C214 2480   0.817   5.438   9.099 -0.8739 -0.1113  0.5707
   19SAPC  H14R 2481   0.708   5.446   9.089 -0.6193  0.6630 -3.0597
   19SAPC  C215 2482   0.880   5.366   9.195 -0.0476 -0.1642  0.0405
   19SAPC  H15R 2483   0.826   5.303   9.268  1.7611  1.2147  2.7345
   19SAPC  C216 2484   1.019   5.357   9.227 -0.2886 -0.4643 -0.2384
   19SAPC  H16R 2485   1.080   5.416   9.155 -0.1830  0.9506  0.9612
   19SAPC  H16S 2486   1.061   5.254   9.228  1.5097  0.2392 -0.3250
   19SAPC  C217 2487   1.052   5.433   9.360  0.0176 -0.1367 -0.1908
   19SAPC  H17R 2488   1.005   5.534   9.367 -0.3518 -0.3721  0.9714
   19SAPC  H17S 2489   1.160   5.457   9.351 -0.2784  1.9217  0.9583
   19SAPC  C218 2490   1.033   5.344   9.481 -0.3891  0.3310  0.7116
   19SAPC  H18R 2491   1.089   5.397   9.561  1.2604 -0.0503 -0.1623
   19SAPC  H18S 2492   1.078   5.244   9.463 -2.9692 -1.0026  1.0671
   19SAPC  C219 2493   0.886   5.329   9.536 -0.2233 -1.0978  0.3682
   19SAPC  H19R 2494   0.895   5.257   9.621  0.6289  0.6895  1.8664
   19SAPC  H19S 2495   0.834   5.278   9.452  1.8292 -1.1881 -0.9122
   19SAPC  C220 2496   0.819   5.462   9.585 -0.3117  0.5246 -0.6043
   19SAPC  H20R 2497   0.712   5.448   9.609 -0.8731  0.9511 -2.6945
   19SAPC  H20S 2498   0.817   5.540   9.506 -2.3270 -0.4670 -1.6120
   19SAPC  H20T 2499   0.873   5.506   9.672  1.5258  0.1910 -1.5183
   19SAPC   C33 2500   1.096   5.253   9.952  0.4271  0.0797 -0.1888
   19SAPC   H3X 2501   1.059   5.162  10.005  1.4656  0.2754  0.9070
   19SAPC   H3Y 2502   1.159   5.302  10.028 -0.6769 -1.3864  1.7717
   19SAPC   C34 2503   1.180   5.215   9.829 -0.1073 -0.4824 -0.0566
   19SAPC   H4X 2504   1.151   5.292   9.754  2.0735  0.7190  0.2464
   19SAPC   H4Y 2505   1.142   5.119   9.788  0.9119 -0.0822 -2.1141
   19SAPC   C35 2506   1.330   5.213   9.853 -0.0947 -0.1874 -0.5320
   19SAPC   H5X 2507   1.355   5.153   9.943 -0.7130 -0.1601 -0.3344
   19SAPC   H5Y 2508   1.353   5.320   9.869  1.9262 -0.8395  1.3710
   19SAPC   C36 2509   1.427   5.186   9.739  0.2662 -0.6194 -0.6596
   19SAPC   H6X 2510   1.396   5.092   9.688 -1.4441  0.5435 -1.8644
   19SAPC   H6Y 2511   1.532   5.181   9.774  0.9266  2.5370 -1.8473
   19SAPC   C37 2512   1.425   5.291   9.627 -0.6689  0.9428  0.2990
   19SAPC   H7X 2513   1.480   5.383   9.658 -0.2445  0.9352 -0.4112
   19SAPC   H7Y 2514   1.323   5.320   9.594 -0.4607  0.6713 -0.6095
   19SAPC   C38 2515   1.492   5.238   9.498  0.2415 -0.3804 -0.5555
   19SAPC   H8X 2516   1.507   5.128   9.498  0.7234 -0.3423  1.1814
   19SAPC   H8Y 2517   1.600   5.266   9.501  0.4973 -1.4176  0.2264
   19SAPC   C39 2518   1.419   5.277   9.369 -0.8058  0.8057  0.2770
   19SAPC   H9X 2519   1.415   5.387   9.353 -1.7291  0.5703 -1.3528
   19SAPC   H9Y 2520   1.314   5.241   9.382 -0.9004  1.1729  0.5516
   19SAPC  C310 2521   1.469   5.221   9.233  0.3564 -0.1229 -0.4771
   19SAPC  H10X 2522   1.475   5.110   9.231  1.3460 -0.1183  0.6003
   19SAPC  H10Y 2523   1.573   5.258   9.219 -1.0819  3.9966 -1.8961
   19SAPC  C311 2524   1.368   5.261   9.124 -0.8498  0.4793 -0.2872
   19SAPC  H11X 2525   1.356   5.371   9.112 -1.3108  0.6226  1.3030
   19SAPC  H11Y 2526   1.266   5.228   9.153 -2.0247  3.4518 -0.6794
   19SAPC  C312 2527   1.403   5.196   8.989  0.4735 -0.4647 -0.7128
   19SAPC  H12X 2528   1.413   5.086   9.003 -0.2410 -0.8471 -2.8727
   19SAPC  H12Y 2529   1.493   5.249   8.951 -0.7900  3.4490  1.1771
   19SAPC  C313 2530   1.289   5.222   8.889  0.1379 -0.5027 -0.8751
   19SAPC  H13X 2531   1.294   5.331   8.871  3.8366 -0.0056  1.9017
   19SAPC  H13Y 2532   1.195   5.202   8.944  0.4332 -0.2286 -0.2648
   19SAPC  C314 2533   1.298   5.131   8.759  0.5463 -0.1668 -0.0513
   19SAPC  H14X 2534   1.198   5.128   8.713 -0.1241  3.3380  0.8821
   19SAPC  H14Y 2535   1.325   5.031   8.798 -1.0847 -0.4125  0.4858
   19SAPC  C315 2536   1.383   5.194   8.647  0.3682 -0.7036 -0.1037
   19SAPC  H15X 2537   1.491   5.201   8.674  0.2148  2.5130  0.0592
   19SAPC  H15Y 2538   1.350   5.297   8.620  2.3292 -0.1236 -0.4779
   19SAPC  C316 2539   1.377   5.104   8.520 -0.3186 -0.3505  0.1324
   19SAPC  H16X 2540   1.279   5.116   8.470  0.2495 -1.1186 -1.2222
   19SAPC  H16Y 2541   1.389   5.000   8.555  2.0281  0.4507  2.0033
   19SAPC  C317 2542   1.483   5.140   8.415 -0.6092  0.6511 -0.0301
   19SAPC  H17X 2543   1.469   5.079   8.323 -0.8357 -2.5442  1.9829
   19SAPC  H17Y 2544   1.584   5.113   8.454  0.2611 -0.2119 -2.6610
   19SAPC  C318 2545   1.483   5.284   8.370 -0.3428 -0.0475 -0.3267
   19SAPC  H18X 2546   1.527   5.347   8.450  0.5571 -1.9316  0.7284
   19SAPC  H18Y 2547   1.382   5.326   8.351  0.3360  1.9293  0.2640
   19SAPC  H18Z 2548   1.535   5.303   8.273 -0.4169  1.5835 -0.0676
   20SAPC     N 2549   0.985   3.546  10.597  0.5553 -0.1054 -0.1261
   20SAPC   C12 2550   1.051   3.462  10.706 -0.0770  0.2563 -0.6704
   20SAPC  H12A 2551   1.158   3.460  10.696  0.3035  2.1005  1.9897
   20SAPC  H12B 2552   1.020   3.359  10.691 -2.1646  0.7683 -0.2627
   20SAPC   C13 2553   1.017   3.489  10.465 -0.4619 -0.7655  0.4632
   20SAPC  H13A 2554   1.122   3.471  10.453 -0.5501 -1.2987  0.4731
   20SAPC  H13B 2555   0.987   3.386  10.454 -0.4117 -0.8829  1.3253
   20SAPC  H13C 2556   0.976   3.548  10.385  0.4960 -0.9415 -0.1622
   20SAPC   C14 2557   0.835   3.549  10.620  0.2062 -0.3657 -0.1450
   20SAPC  H14A 2558   0.779   3.470  10.572 -2.4954  1.3451 -0.0770
   20SAPC  H14B 2559   0.819   3.553  10.727  0.5917  3.1261 -0.0893
   20SAPC  H14C 2560   0.794   3.640  10.577 -0.7211 -0.2365  0.9365
   20SAPC   C15 2561   1.042   3.685  10.599  0.0626  0.1552  0.4865
   20SAPC  H15A 2562   1.029   3.739  10.507  0.6993  1.4624  1.1371
   20SAPC  H15B 2563   0.996   3.744  10.677 -1.9725  1.7023 -1.7830
   20SAPC  H15C 2564   1.149   3.676  10.612  0.8549  2.7167 -2.9572
   20SAPC   C11 2565   1.013   3.498  10.853  0.2885 -0.3299  0.2501
   20SAPC  H11A 2566   1.080   3.437  10.917 -0.6676 -2.1182 -0.3738
   20SAPC  H11B 2567   0.915   3.459  10.888  1.1885 -0.8458  2.3573
   20SAPC     P 2568   1.159   3.708  10.929  0.0112  0.4076 -0.1250
   20SAPC   O13 2569   1.277   3.650  10.860 -0.1776  0.3749  0.2431
   20SAPC   O14 2570   1.150   3.855  10.916  0.6077 -0.6542 -0.3624
   20SAPC   O12 2571   1.017   3.636  10.881  0.2290  0.2959  0.5009
   20SAPC   O11 2572   1.160   3.665  11.085  0.4049  0.8129  0.5925
   20SAPC    C1 2573   1.032   3.654  11.164 -0.0887 -0.4825 -0.3461
   20SAPC    HA 2574   0.947   3.639  11.095 -0.6722  1.1792 -0.0214
   20SAPC    HB 2575   1.040   3.559  11.221  1.3916 -2.1904 -3.1386
   20SAPC    C2 2576   0.998   3.775  11.259 -0.1525  0.5700  0.2935
   20SAPC    HS 2577   0.949   3.844  11.186 -1.5055  0.8364  1.4142
   20SAPC   O21 2578   1.114   3.844  11.310 -0.2416 -0.1144  0.2266
   20SAPC   C21 2579   1.082   3.968  11.359  0.0148 -0.4059  0.5838
   20SAPC   O22 2580   0.976   4.023  11.344 -0.5982 -0.1106  0.1745
   20SAPC   C22 2581   1.201   4.029  11.422 -0.4104 -0.4075  0.2244
   20SAPC   H2R 2582   1.293   3.974  11.394 -0.5429 -0.9119  0.7651
   20SAPC   H2S 2583   1.200   4.139  11.404 -0.4914 -0.0179  2.3657
   20SAPC    C3 2584   0.895   3.720  11.358  0.3299 -0.1570 -0.4735
   20SAPC    HX 2585   0.801   3.682  11.312  0.7275 -1.8342  0.0277
   20SAPC    HY 2586   0.864   3.808  11.417 -0.1785  1.2044 -2.6678
   20SAPC   O31 2587   0.946   3.614  11.447  0.1215  0.0486  0.0324
   20SAPC   C31 2588   1.013   3.650  11.552  0.5928  0.8041 -0.5497
   20SAPC   O32 2589   1.022   3.762  11.600 -0.1772 -0.2890  0.6675
   20SAPC   C32 2590   1.083   3.527  11.605  0.4266  0.0518  0.0885
   20SAPC   H2X 2591   1.008   3.452  11.639 -1.0335  1.3603 -0.1561
   20SAPC   H2Y 2592   1.136   3.553  11.700  0.4729 -0.1496  0.1205
   20SAPC   C23 2593   1.192   4.024  11.583  0.0275  1.4124  0.4093
   20SAPC   H3R 2594   1.206   3.915  11.599 -0.7753  1.1882 -0.3298
   20SAPC   H3S 2595   1.089   4.039  11.623 -0.4273 -0.1036 -0.1383
   20SAPC   C24 2596   1.298   4.100  11.663 -0.1674 -0.6944 -0.1597
   20SAPC   H4R 2597   1.282   4.206  11.634 -0.6513 -0.5225  0.7041
   20SAPC   H4S 2598   1.400   4.073  11.629 -0.0180 -0.7565  0.3334
   20SAPC   C25 2599   1.285   4.099  11.817 -0.0549 -0.1146  0.1725
   20SAPC   H5R 2600   1.247   4.190  11.866  1.8727  0.4326  0.7301
   20SAPC   C26 2601   1.298   4.002  11.907 -0.1740 -0.1883  0.6127
   20SAPC   H6R 2602   1.271   4.028  12.010 -2.1067 -0.0425  0.1144
   20SAPC   C27 2603   1.339   3.857  11.880 -0.4875  0.7717 -0.0031
   20SAPC   H7R 2604   1.434   3.819  11.924 -0.3332  0.5349 -0.5276
   20SAPC   H7S 2605   1.351   3.850  11.769  1.1530  0.0448  0.1905
   20SAPC   C28 2606   1.228   3.760  11.904  0.0321  0.4548 -0.2657
   20SAPC   H8R 2607   1.150   3.757  11.826  0.4787  0.0878 -0.7128
   20SAPC   C29 2608   1.238   3.659  11.993  0.4054 -0.5555 -0.5346
   20SAPC   H9R 2609   1.152   3.592  12.012 -1.5701  0.9924 -3.3749
   20SAPC  C210 2610   1.355   3.635  12.087 -0.0818  0.4954  0.3292
   20SAPC  H10R 2611   1.456   3.636  12.041  1.2695 -4.1137  2.6446
   20SAPC  H10S 2612   1.349   3.530  12.123  1.9196  0.3240  0.2687
   20SAPC  C211 2613   1.355   3.731  12.209 -0.4079  0.1115 -0.4683
   20SAPC  H11R 2614   1.289   3.819  12.212 -1.4822 -0.6450 -1.0368
   20SAPC  C212 2615   1.456   3.725  12.304  0.8123 -0.0475  0.0906
   20SAPC  H12R 2616   1.446   3.793  12.390 -0.2096 -0.4587  0.3233
   20SAPC  C213 2617   1.564   3.625  12.306  0.5996  0.0883 -0.2469
   20SAPC  H13R 2618   1.570   3.575  12.207  0.5639  0.6935 -0.5528
   20SAPC  H13S 2619   1.534   3.550  12.383  0.4252  1.3520  0.9583
   20SAPC  C214 2620   1.702   3.676  12.343  0.4291  0.9312 -0.0631
   20SAPC  H14R 2621   1.729   3.649  12.446 -1.0886 -2.6037 -0.4711
   20SAPC  C215 2622   1.792   3.741  12.265  0.0811  0.6619  0.2746
   20SAPC  H15R 2623   1.892   3.767  12.303  0.8511 -0.7083 -0.6984
   20SAPC  C216 2624   1.761   3.790  12.127  0.0107 -0.2863  0.0427
   20SAPC  H16R 2625   1.658   3.829  12.115  0.0072 -0.3494 -0.1391
   20SAPC  H16S 2626   1.772   3.698  12.065  1.6757  1.0659 -1.7960
   20SAPC  C217 2627   1.852   3.902  12.081  0.4336 -0.1516 -0.2159
   20SAPC  H17R 2628   1.940   3.852  12.035  0.2867  0.5546 -1.3038
   20SAPC  H17S 2629   1.877   3.963  12.171 -2.3739  3.0372 -1.3767
   20SAPC  C218 2630   1.777   3.999  11.982 -0.7170  0.2052 -1.3782
   20SAPC  H18R 2631   1.838   4.091  11.972 -0.8851  0.3815 -0.7885
   20SAPC  H18S 2632   1.679   4.025  12.026  0.0355 -2.1247  2.1514
   20SAPC  C219 2633   1.746   3.944  11.851 -0.0052 -0.1736  0.3866
   20SAPC  H19R 2634   1.676   3.858  11.853 -0.5735  0.2889  0.7430
   20SAPC  H19S 2635   1.840   3.902  11.810  1.3222 -0.0283  3.0127
   20SAPC  C220 2636   1.687   4.052  11.763 -0.0356  0.2904  0.1474
   20SAPC  H20R 2637   1.753   4.135  11.727  2.0860 -1.7023 -0.8689
   20SAPC  H20S 2638   1.592   4.088  11.806 -0.5176 -0.6960 -0.0747
   20SAPC  H20T 2639   1.675   3.990  11.671  0.3777 -2.6768  1.9645
   20SAPC   C33 2640   1.179   3.466  11.503 -0.1866 -0.4130  0.2433
   20SAPC   H3X 2641   1.143   3.460  11.398 -0.1815  0.7046  0.1722
   20SAPC   H3Y 2642   1.205   3.366  11.546 -1.6823 -0.2353  1.6322
   20SAPC   C34 2643   1.320   3.532  11.502  0.2490  0.3650 -0.2009
   20SAPC   H4X 2644   1.317   3.633  11.457 -0.5579  2.2122  3.5866
   20SAPC   H4Y 2645   1.380   3.473  11.429 -1.0178 -0.3946 -0.6616
   20SAPC   C35 2646   1.403   3.542  11.625  0.0118 -0.1226 -0.8963
   20SAPC   H5X 2647   1.399   3.453  11.691 -0.8702 -0.0687 -0.8644
   20SAPC   H5Y 2648   1.358   3.623  11.687 -1.5468 -1.8610  0.3592
   20SAPC   C36 2649   1.546   3.569  11.579 -0.8810 -0.4014  0.1977
   20SAPC   H6X 2650   1.549   3.661  11.518 -0.9907 -1.0673 -0.8358
   20SAPC   H6Y 2651   1.571   3.487  11.509 -0.0881  1.2784 -1.5864
   20SAPC   C37 2652   1.653   3.582  11.687  0.1202  0.6844  0.5623
   20SAPC   H7X 2653   1.614   3.658  11.758 -3.3156  1.4123 -1.8521
   20SAPC   H7Y 2654   1.748   3.618  11.642  1.3305 -1.2152  1.4773
   20SAPC   C38 2655   1.688   3.454  11.758  0.1560  0.2919 -0.4298
   20SAPC   H8X 2656   1.731   3.381  11.686 -1.2657 -1.2058  0.1729
   20SAPC   H8Y 2657   1.597   3.403  11.795 -0.3055  2.6137  1.9232
   20SAPC   C39 2658   1.776   3.489  11.879 -1.0721  0.0788  0.3058
   20SAPC   H9X 2659   1.723   3.528  11.969 -3.1467 -3.0844  0.5821
   20SAPC   H9Y 2660   1.850   3.564  11.842 -0.8147 -0.0705  0.5124
   20SAPC  C310 2661   1.846   3.368  11.934 -0.0565  0.5856  0.5395
   20SAPC  H10X 2662   1.904   3.392  12.026 -1.8292  0.0909  1.8365
   20SAPC  H10Y 2663   1.912   3.311  11.864  1.8257  2.2443  0.8802
   20SAPC  C311 2664   1.754   3.248  11.967 -0.2905 -0.2830 -0.0299
   20SAPC  H11X 2665   1.822   3.160  11.977  0.0858 -0.0170 -0.1949
   20SAPC  H11Y 2666   1.681   3.225  11.886 -0.8954 -1.0396  0.7076
   20SAPC  C312 2667   1.680   3.285  12.095 -0.3703 -0.0952 -0.6337
   20SAPC  H12X 2668   1.648   3.389  12.076  0.4767  0.4755  0.8923
   20SAPC  H12Y 2669   1.745   3.297  12.184  0.2417  1.2533 -1.2250
   20SAPC  C313 2670   1.554   3.202  12.138 -0.1565  0.3224 -0.4534
   20SAPC  H13X 2671   1.584   3.096  12.154  0.5901  0.3746 -1.4318
   20SAPC  H13Y 2672   1.484   3.213  12.052 -0.6684  0.5496 -0.0140
   20SAPC  C314 2673   1.479   3.241  12.272 -0.2805  0.2806  0.0535
   20SAPC  H14X 2674   1.442   3.343  12.248  0.6578  0.2997 -1.4586
   20SAPC  H14Y 2675   1.544   3.246  12.362  0.7796  1.1083 -0.7290
   20SAPC  C315 2676   1.369   3.140  12.311 -0.1858  0.2407  0.0112
   20SAPC  H15X 2677   1.434   3.051  12.328 -1.6019 -0.5425  1.5353
   20SAPC  H15Y 2678   1.302   3.107  12.229 -0.6325 -0.5395  0.6816
   20SAPC  C316 2679   1.300   3.176  12.448  0.0820  0.0362 -0.1560
   20SAPC  H16X 2680   1.364   3.213  12.531  0.2535 -0.1657 -0.1984
   20SAPC  H16Y 2681   1.245   3.088  12.487 -0.3853 -0.0496 -0.9776
   20SAPC  C317 2682   1.196   3.285  12.423  1.0082  0.2222  0.6695
   20SAPC  H17X 2683   1.234   3.367  12.359 -0.5995  0.4850  0.0126
   20SAPC  H17Y 2684   1.164   3.331  12.519  1.3399 -0.0746  0.9266
   20SAPC  C318 2685   1.068   3.222  12.364 -0.3491  0.4981 -0.6252
   20SAPC  H18X 2686   0.989   3.299  12.352 -0.2597  0.2089 -3.6206
   20SAPC  H18Y 2687   1.036   3.136  12.427  2.4746 -0.2734 -0.0932
   20SAPC  H18Z 2688   1.087   3.198  12.258 -0.9380  2.2779 -1.1614
   21SAPC     N 2689   1.172   1.962  10.896  0.2406 -0.6234  0.3626
   21SAPC   C12 2690   1.123   2.101  10.866 -0.0583  0.2172 -0.3230
   21SAPC  H12A 2691   1.196   2.179  10.879  0.1678  0.1515 -1.1448
   21SAPC  H12B 2692   1.052   2.119  10.945  1.5264  0.5266  1.0849
   21SAPC   C13 2693   1.290   1.928  10.813  0.1898 -0.5667  0.0522
   21SAPC  H13A 2694   1.387   1.953  10.852 -0.4886  1.1227  0.7713
   21SAPC  H13B 2695   1.312   1.823  10.802  2.4659 -0.2349  0.8169
   21SAPC  H13C 2696   1.274   1.961  10.711 -1.3117 -1.2105  0.0530
   21SAPC   C14 2697   1.215   1.968  11.044 -0.5772 -0.0580  0.0733
   21SAPC  H14A 2698   1.307   2.023  11.058 -1.8300  1.8929  0.9721
   21SAPC  H14B 2699   1.138   2.014  11.103 -0.8379 -0.1589 -0.1861
   21SAPC  H14C 2700   1.239   1.868  11.077 -1.2317 -0.2033  0.1071
   21SAPC   C15 2701   1.062   1.859  10.889 -0.2842 -0.3464 -0.1709
   21SAPC  H15A 2702   1.113   1.769  10.920 -0.2417  0.1654  1.3216
   21SAPC  H15B 2703   0.986   1.876  10.965 -0.9120 -2.0200 -0.3868
   21SAPC  H15C 2704   1.024   1.842  10.789  2.0427 -0.5837 -1.0674
   21SAPC   C11 2705   1.061   2.110  10.727  0.9825  0.2572  0.0027
   21SAPC  H11A 2706   0.969   2.052  10.706 -0.3381  3.3416 -4.1215
   21SAPC  H11B 2707   1.139   2.088  10.651  1.8753 -0.3055  1.0695
   21SAPC     P 2708   1.140   2.364  10.708 -0.3505 -0.2734  0.5626
   21SAPC   O13 2709   1.080   2.490  10.675 -0.5180 -0.5777 -0.6586
   21SAPC   O14 2710   1.221   2.362  10.832 -0.0306 -0.4902 -0.4180
   21SAPC   O12 2711   1.034   2.249  10.714 -0.5305 -0.1605 -0.1577
   21SAPC   O11 2712   1.234   2.315  10.588  0.2918  0.1210 -0.1280
   21SAPC    C1 2713   1.217   2.380  10.459  0.0449 -0.2379  0.2847
   21SAPC    HA 2714   1.174   2.482  10.463 -0.0674 -0.1846 -1.2944
   21SAPC    HB 2715   1.314   2.387  10.406 -0.0140  2.9166  0.4368
   21SAPC    C2 2716   1.115   2.308  10.369 -0.6872  0.1598  0.0772
   21SAPC    HS 2717   1.023   2.301  10.430  0.1630 -3.0230  1.1691
   21SAPC   O21 2718   1.166   2.172  10.346 -0.4670 -0.2008 -0.0744
   21SAPC   C21 2719   1.063   2.084  10.337 -0.4282  0.5331  0.8789
   21SAPC   O22 2720   0.947   2.113  10.347 -0.3179  0.2917 -0.8157
   21SAPC   C22 2721   1.106   1.940  10.300  0.2011 -0.5102  1.2058
   21SAPC   H2R 2722   1.130   1.900  10.401 -1.8081 -1.3627  1.3967
   21SAPC   H2S 2723   1.027   1.873  10.259 -2.7123  3.2680 -0.0360
   21SAPC    C3 2724   1.096   2.386  10.232  0.1698 -0.5985  0.1136
   21SAPC    HX 2725   1.190   2.395  10.173  1.1992  1.0492  1.8949
   21SAPC    HY 2726   1.087   2.494  10.254  0.2324 -0.0788 -2.2039
   21SAPC   O31 2727   0.983   2.344  10.155 -0.4110  0.2522  0.0942
   21SAPC   C31 2728   0.868   2.382  10.203 -0.1531  0.1548 -0.4470
   21SAPC   O32 2729   0.845   2.471  10.287 -0.4689  0.4224  0.0471
   21SAPC   C32 2730   0.753   2.311  10.132 -0.3163 -0.2211 -0.8006
   21SAPC   H2X 2731   0.687   2.267  10.209  0.9468 -1.0861 -0.1698
   21SAPC   H2Y 2732   0.794   2.229  10.069  1.2833 -1.0933  1.2427
   21SAPC   C23 2733   1.221   1.943  10.202  0.5132  0.7487  0.3245
   21SAPC   H3R 2734   1.272   1.844  10.210  0.4868  0.5691 -1.2957
   21SAPC   H3S 2735   1.292   2.020  10.239 -0.2186  2.1256 -1.0145
   21SAPC   C24 2736   1.197   1.970  10.055  0.1198 -0.7408 -0.2909
   21SAPC   H4R 2737   1.295   1.951  10.006 -1.5915 -1.5004 -3.7630
   21SAPC   H4S 2738   1.175   2.078  10.039 -0.7117 -0.8366  0.1293
   21SAPC   C25 2739   1.104   1.869   9.992 -0.2728 -0.0863 -0.1421
   21SAPC   H5R 2740   1.087   1.777  10.049 -1.2908 -0.0219 -0.3276
   21SAPC   C26 2741   1.032   1.885   9.881 -0.4904  0.2185  0.4796
   21SAPC   H6R 2742   0.977   1.805   9.830  0.8640  2.2172 -4.7970
   21SAPC   C27 2743   1.037   2.001   9.781  0.4148 -0.7011  0.0572
   21SAPC   H7R 2744   1.084   2.090   9.828 -2.3447  0.0994  1.4745
   21SAPC   H7S 2745   0.944   2.046   9.740  0.7805  1.6044  1.5736
   21SAPC   C28 2746   1.126   1.945   9.671 -0.3119  0.4396  0.0730
   21SAPC   H8R 2747   1.215   1.883   9.691 -2.1196 -3.3732 -2.4494
   21SAPC   C29 2748   1.104   1.967   9.539  0.4118  0.5195  0.4651
   21SAPC   H9R 2749   1.166   1.914   9.466 -1.0300 -2.0840  1.0244
   21SAPC  C210 2750   0.999   2.043   9.461  0.2603 -0.2433  0.0169
   21SAPC  H10R 2751   1.014   2.147   9.425 -3.6625  0.3089 -0.5578
   21SAPC  H10S 2752   0.912   2.064   9.526 -0.4108  1.5573 -1.3824
   21SAPC  C211 2753   0.940   1.964   9.345 -0.1349  0.1671 -0.4163
   21SAPC  H11R 2754   0.851   1.901   9.364  0.7214 -1.3020 -1.0395
   21SAPC  C212 2755   1.004   1.928   9.233 -0.2437 -0.4405 -0.4956
   21SAPC  H12R 2756   0.953   1.859   9.164  0.2048 -1.3165  0.0318
   21SAPC  C213 2757   1.136   1.971   9.175  0.6139  0.0976  0.0024
   21SAPC  H13R 2758   1.162   1.909   9.086  1.3706  0.7265 -0.2265
   21SAPC  H13S 2759   1.217   1.943   9.245  0.0931 -1.4153  0.0260
   21SAPC  C214 2760   1.149   2.117   9.150 -0.1086 -0.6935  0.2361
   21SAPC  H14R 2761   1.117   2.181   9.234 -3.2547  0.3963 -1.5823
   21SAPC  C215 2762   1.191   2.173   9.029 -0.0397  0.0962 -0.6995
   21SAPC  H15R 2763   1.205   2.281   9.017 -0.3177  0.3543  1.0326
   21SAPC  C216 2764   1.235   2.118   8.895  0.0200 -0.4538 -0.0293
   21SAPC  H16R 2765   1.252   2.009   8.909 -0.1318 -0.4253  0.3934
   21SAPC  H16S 2766   1.334   2.163   8.874 -0.4277  2.6656  3.5376
   21SAPC  C217 2767   1.134   2.140   8.779  0.8023  0.4020  0.0805
   21SAPC  H17R 2768   1.100   2.246   8.782 -1.4794 -0.2828  0.2157
   21SAPC  H17S 2769   1.045   2.075   8.794 -0.9809  2.5092 -0.8712
   21SAPC  C218 2770   1.194   2.095   8.645  0.2448 -0.2023 -0.0232
   21SAPC  H18R 2771   1.276   2.169   8.630  0.3868  0.0827  1.9290
   21SAPC  H18S 2772   1.118   2.114   8.566 -1.0600 -1.5199  0.8909
   21SAPC  C219 2773   1.235   1.948   8.631  0.5104 -0.0995 -0.2850
   21SAPC  H19R 2774   1.144   1.887   8.651  0.9601 -0.6279  0.1550
   21SAPC  H19S 2775   1.312   1.926   8.708  0.3918 -0.8189 -0.3659
   21SAPC  C220 2776   1.297   1.915   8.493 -0.4544 -0.8996  0.0041
   21SAPC  H20R 2777   1.300   1.807   8.467 -0.2891 -0.8135 -0.3531
   21SAPC  H20S 2778   1.400   1.957   8.492 -0.6758 -0.3417 -0.8270
   21SAPC  H20T 2779   1.241   1.968   8.413  1.8746  1.8765  0.0526
   21SAPC   C33 2780   0.657   2.410  10.060 -0.3343  0.8410  0.0530
   21SAPC   H3X 2781   0.632   2.497  10.126  0.0480  0.4073  0.7833
   21SAPC   H3Y 2782   0.569   2.346  10.037  0.7441 -0.8005  0.3398
   21SAPC   C34 2783   0.699   2.463   9.922 -0.7886  0.3254 -0.1199
   21SAPC   H4X 2784   0.792   2.522   9.932 -1.2001  0.7071  2.0273
   21SAPC   H4Y 2785   0.616   2.518   9.872 -2.2568 -0.6405  1.1540
   21SAPC   C35 2786   0.717   2.343   9.824 -0.3114  0.6798 -0.0844
   21SAPC   H5X 2787   0.636   2.272   9.852 -0.7354  1.7282  1.5237
   21SAPC   H5Y 2788   0.813   2.292   9.851 -2.4343 -1.9517  3.3924
   21SAPC   C36 2789   0.696   2.361   9.676 -0.5377 -0.5318  0.4204
   21SAPC   H6X 2790   0.791   2.413   9.648  0.0709 -2.5320 -1.4870
   21SAPC   H6Y 2791   0.610   2.430   9.664 -0.2464  0.4373  3.2108
   21SAPC   C37 2792   0.681   2.240   9.592 -0.3645  0.2954 -1.0277
   21SAPC   H7X 2793   0.601   2.177   9.638  0.4089 -0.1189 -0.2093
   21SAPC   H7Y 2794   0.769   2.173   9.602 -1.4712 -1.1850 -0.8235
   21SAPC   C38 2795   0.645   2.261   9.449  0.0284 -0.4833  0.0983
   21SAPC   H8X 2796   0.561   2.334   9.440 -0.4471 -1.1874 -1.5788
   21SAPC   H8Y 2797   0.617   2.164   9.404  1.1129 -0.6512 -0.2314
   21SAPC   C39 2798   0.753   2.329   9.358  0.1291  0.1042  0.6406
   21SAPC   H9X 2799   0.851   2.282   9.383 -1.2902 -1.9226  2.9429
   21SAPC   H9Y 2800   0.762   2.436   9.385  1.1888  0.7553 -2.0169
   21SAPC  C310 2801   0.729   2.327   9.210  0.8169 -0.2247 -0.9164
   21SAPC  H10X 2802   0.620   2.347   9.195  0.3506 -1.0581  1.0344
   21SAPC  H10Y 2803   0.735   2.227   9.162  3.8675  0.8129 -2.9704
   21SAPC  C311 2804   0.805   2.432   9.142  0.5752  0.0762 -0.1646
   21SAPC  H11X 2805   0.911   2.428   9.174  0.3443 -2.4699  0.4745
   21SAPC  H11Y 2806   0.784   2.539   9.165  2.2240  0.2540  0.6767
   21SAPC  C312 2807   0.805   2.408   8.991 -0.3190 -0.0524  0.3138
   21SAPC  H12X 2808   0.713   2.352   8.966 -0.6718  0.3357  0.7287
   21SAPC  H12Y 2809   0.897   2.346   8.978  0.8125  1.3660  1.1456
   21SAPC  C313 2810   0.833   2.534   8.903 -0.6092 -0.6974  0.2121
   21SAPC  H13X 2811   0.912   2.587   8.961 -0.0731 -1.3319  0.0756
   21SAPC  H13Y 2812   0.738   2.591   8.914 -1.0710 -1.3414 -0.3531
   21SAPC  C314 2813   0.855   2.487   8.755 -0.1885 -0.2240 -0.4175
   21SAPC  H14X 2814   0.755   2.470   8.710 -0.0402  0.3654 -0.9922
   21SAPC  H14Y 2815   0.922   2.399   8.762 -1.1521 -1.1047 -1.9312
   21SAPC  C315 2816   0.915   2.598   8.663 -0.7521  0.2277 -0.8468
   21SAPC  H15X 2817   1.009   2.637   8.708  0.5777 -3.8569  0.3500
   21SAPC  H15Y 2818   0.836   2.677   8.667 -0.3173  0.6374  1.4610
   21SAPC  C316 2819   0.949   2.548   8.529  0.7425  0.2445 -0.3571
   21SAPC  H16X 2820   0.941   2.636   8.462  0.3842 -0.7459 -1.6489
   21SAPC  H16Y 2821   0.879   2.469   8.493  1.3721 -0.2080 -0.5999
   21SAPC  C317 2822   1.095   2.503   8.514 -0.6687 -0.9755  0.3972
   21SAPC  H17X 2823   1.111   2.475   8.407 -1.5121 -3.4008  0.8519
   21SAPC  H17Y 2824   1.119   2.412   8.573  1.4009 -0.0824  1.0174
   21SAPC  C318 2825   1.194   2.618   8.537  0.3099  0.1021 -0.1390
   21SAPC  H18X 2826   1.176   2.698   8.463  2.4029 -0.1349 -0.9723
   21SAPC  H18Y 2827   1.294   2.579   8.506  0.6023  0.4915  0.2930
   21SAPC  H18Z 2828   1.193   2.652   8.643 -1.2416  1.1407 -0.4636
   22SAPC     N 2829   0.586   0.085  10.747  0.1110 -0.2563  0.3230
   22SAPC   C12 2830   0.721   0.005  10.753  0.6694 -0.6237 -0.0672
   22SAPC  H12A 2831   0.717  -0.020  10.858  1.8345  1.0985  0.4199
   22SAPC  H12B 2832   0.799   0.077  10.736  0.0769  0.6220  2.0984
   22SAPC   C13 2833   0.584   0.211  10.834 -0.0094  0.2051 -0.2492
   22SAPC  H13A 2834   0.657   0.280  10.793 -0.5276 -0.5651 -2.6355
   22SAPC  H13B 2835   0.482   0.245  10.831 -0.1853 -0.1873  0.8586
   22SAPC  H13C 2836   0.606   0.190  10.938  0.8525  2.5882  0.1225
   22SAPC   C14 2837   0.570   0.126  10.600 -0.7042 -0.4057 -0.3048
   22SAPC  H14A 2838   0.602   0.226  10.576  1.3635 -1.0620 -0.4956
   22SAPC  H14B 2839   0.617   0.060  10.528 -1.3274  0.4832 -1.5577
   22SAPC  H14C 2840   0.467   0.129  10.569 -0.6585 -1.6515 -0.6428
   22SAPC   C15 2841   0.471   0.001  10.781  0.3618 -0.0556  0.3272
   22SAPC  H15A 2842   0.475  -0.079  10.708  2.5595  1.1080 -0.9632
   22SAPC  H15B 2843   0.474  -0.043  10.879  2.3957 -0.2799  0.2152
   22SAPC  H15C 2844   0.374   0.044  10.763 -2.7820 -6.0959  0.0939
   22SAPC   C11 2845   0.746  -0.119  10.655  0.0423  0.0214 -0.7536
   22SAPC  H11A 2846   0.849  -0.155  10.677 -0.0452  0.3297  0.1997
   22SAPC  H11B 2847   0.732  -0.075  10.553 -3.2650  1.4019  0.1688
   22SAPC     P 2848   0.642  -0.317  10.778  0.0702 -0.1055  0.6991
   22SAPC   O13 2849   0.761  -0.310  10.864  0.4074  0.0090  0.0885
   22SAPC   O14 2850   0.511  -0.313  10.844 -0.1732  0.0455  0.3484
   22SAPC   O12 2851   0.645  -0.209  10.666 -0.8971 -0.6950  0.0376
   22SAPC   O11 2852   0.658  -0.443  10.680 -0.2880 -0.8410  0.0952
   22SAPC    C1 2853   0.748  -0.448  10.574  0.0949  0.9244 -0.1721
   22SAPC    HA 2854   0.814  -0.360  10.556 -0.5625  1.5257  0.2834
   22SAPC    HB 2855   0.822  -0.527  10.596  3.0288  2.8469 -2.3474
   22SAPC    C2 2856   0.685  -0.473  10.439  0.5536 -0.4053  0.2863
   22SAPC    HS 2857   0.769  -0.493  10.369  2.0482 -3.5372  2.7108
   22SAPC   O21 2858   0.593  -0.359  10.401 -0.2594  0.5037  0.2120
   22SAPC   C21 2859   0.648  -0.258  10.340 -0.0931  0.1324  0.4664
   22SAPC   O22 2860   0.762  -0.245  10.301 -0.4924 -0.1629  0.1367
   22SAPC   C22 2861   0.546  -0.157  10.323  0.0679 -0.5701  0.5666
   22SAPC   H2R 2862   0.486  -0.153  10.416 -2.0994 -0.5905 -0.7569
   22SAPC   H2S 2863   0.589  -0.056  10.306 -1.6606 -0.1718 -2.1329
   22SAPC    C3 2864   0.596  -0.602  10.448 -0.0129  0.1005  0.3495
   22SAPC    HX 2865   0.539  -0.589  10.543  0.9263 -0.5600  1.0227
   22SAPC    HY 2866   0.656  -0.695  10.441 -1.3522 -0.7025 -1.3158
   22SAPC   O31 2867   0.491  -0.603  10.344 -0.2081  0.7595 -0.0366
   22SAPC   C31 2868   0.537  -0.635  10.229 -1.0625 -0.5990  0.1200
   22SAPC   O32 2869   0.656  -0.671  10.206  0.4025 -0.1171  0.8188
   22SAPC   C32 2870   0.427  -0.608  10.123 -0.5245  0.1244  0.3252
   22SAPC   H2X 2871   0.443  -0.508  10.078  0.9175 -1.2565 -2.5120
   22SAPC   H2Y 2872   0.326  -0.605  10.168 -1.1351 -2.4577 -0.6472
   22SAPC   C23 2873   0.447  -0.196  10.212  0.5026 -0.2031 -0.1437
   22SAPC   H3R 2874   0.359  -0.128  10.222  0.9286  0.1479  1.6481
   22SAPC   H3S 2875   0.415  -0.302  10.223 -1.9670  0.5768  0.9847
   22SAPC   C24 2876   0.489  -0.188  10.068  0.1914 -0.5693 -0.6937
   22SAPC   H4R 2877   0.577  -0.250  10.042 -0.2682 -0.7914 -1.7888
   22SAPC   H4S 2878   0.521  -0.086  10.039 -0.1330 -0.2643  0.0204
   22SAPC   C25 2879   0.382  -0.222   9.971 -0.7976 -0.1234  0.0232
   22SAPC   H5R 2880   0.285  -0.269   9.989 -1.0189 -1.5840 -4.0280
   22SAPC   C26 2881   0.413  -0.198   9.839  0.0975  0.1098 -0.1754
   22SAPC   H6R 2882   0.333  -0.213   9.765 -0.3225  2.8765 -0.3754
   22SAPC   C27 2883   0.528  -0.127   9.773 -0.0443 -0.2832  0.3713
   22SAPC   H7R 2884   0.572  -0.187   9.691  0.6128  0.6219  0.0487
   22SAPC   H7S 2885   0.612  -0.104   9.842 -0.4860 -0.8076  1.1084
   22SAPC   C28 2886   0.480   0.001   9.718  0.0714  0.4484  0.3719
   22SAPC   H8R 2887   0.413   0.056   9.784 -0.6021  1.5747 -1.1915
   22SAPC   C29 2888   0.525   0.069   9.613  0.0439 -0.1420  0.2671
   22SAPC   H9R 2889   0.486   0.169   9.587 -2.4576 -0.5472  2.1167
   22SAPC  C210 2890   0.631   0.023   9.520  0.3194  0.1708 -0.0113
   22SAPC  H10R 2891   0.706  -0.027   9.585 -0.6907 -0.1299  0.9572
   22SAPC  H10S 2892   0.677   0.112   9.472 -0.6307  1.0646  0.6856
   22SAPC  C211 2893   0.598  -0.084   9.424 -0.1609 -0.1418  0.0306
   22SAPC  H11R 2894   0.594  -0.182   9.474 -0.1025  0.8097  1.9883
   22SAPC  C212 2895   0.599  -0.069   9.290 -0.3328 -0.2180 -0.3888
   22SAPC  H12R 2896   0.579  -0.162   9.235 -0.0852 -0.5912  0.1399
   22SAPC  C213 2897   0.643   0.060   9.215 -0.1120 -0.0426 -0.6303
   22SAPC  H13R 2898   0.753   0.061   9.200 -0.2059 -1.7299 -1.7816
   22SAPC  H13S 2899   0.617   0.152   9.271 -1.3219 -0.4932 -0.4214
   22SAPC  C214 2900   0.569   0.057   9.083  0.2123  0.0923 -0.3288
   22SAPC  H14R 2901   0.487   0.130   9.070  0.7943  0.4242 -2.7289
   22SAPC  C215 2902   0.595  -0.017   8.973  1.0065 -0.1216  0.1290
   22SAPC  H15R 2903   0.551   0.014   8.877 -0.3168 -2.3055 -0.0418
   22SAPC  C216 2904   0.702  -0.120   8.972  0.1904  0.6214  0.3196
   22SAPC  H16R 2905   0.648  -0.217   8.975  0.4143  0.5107  0.8726
   22SAPC  H16S 2906   0.767  -0.117   9.061  1.6239  3.3676 -0.6838
   22SAPC  C217 2907   0.794  -0.130   8.855  0.2075  0.4113  0.2307
   22SAPC  H17R 2908   0.744  -0.121   8.756 -1.4150  0.3030  1.0262
   22SAPC  H17S 2909   0.847  -0.226   8.840  1.2879  1.4228 -3.7981
   22SAPC  C218 2910   0.901  -0.023   8.852 -0.7344  0.6770 -0.5499
   22SAPC  H18R 2911   0.942  -0.011   8.954  0.7803 -3.1619 -0.5279
   22SAPC  H18S 2912   0.862   0.077   8.823  2.3942  1.9456 -0.7135
   22SAPC  C219 2913   1.021  -0.065   8.770  0.1362 -0.5648 -0.7510
   22SAPC  H19R 2914   1.044  -0.165   8.813 -1.9035  0.0934  2.1882
   22SAPC  H19S 2915   1.107   0.000   8.796  0.4789 -0.7917 -1.2875
   22SAPC  C220 2916   1.006  -0.066   8.621 -0.6839  0.0532 -0.4271
   22SAPC  H20R 2917   1.103  -0.043   8.571 -0.8711 -0.0275 -0.8249
   22SAPC  H20S 2918   0.931   0.008   8.588  2.1983  3.1642 -0.5580
   22SAPC  H20T 2919   0.994  -0.168   8.578 -1.5898 -0.2463  0.4933
   22SAPC   C33 2920   0.443  -0.711  10.004 -0.2072 -0.6179  0.2797
   22SAPC   H3X 2921   0.420  -0.814  10.038  2.8033 -0.9526  1.7095
   22SAPC   H3Y 2922   0.549  -0.708   9.970 -0.8468  1.4979 -1.7837
   22SAPC   C34 2923   0.351  -0.672   9.889  0.1554 -0.9617 -0.5862
   22SAPC   H4X 2924   0.275  -0.603   9.934  1.1085  1.0888 -1.9571
   22SAPC   H4Y 2925   0.294  -0.755   9.842 -0.0803 -0.5514 -1.0458
   22SAPC   C35 2926   0.428  -0.604   9.777 -0.2475  0.4541 -0.2526
   22SAPC   H5X 2927   0.494  -0.677   9.726  0.9449  0.4335  1.2464
   22SAPC   H5Y 2928   0.506  -0.531   9.808  2.3589 -0.6673 -3.6280
   22SAPC   C36 2929   0.336  -0.539   9.676 -0.4137 -0.6839 -0.0117
   22SAPC   H6X 2930   0.275  -0.454   9.712  3.9318  3.0686 -0.5222
   22SAPC   H6Y 2931   0.266  -0.617   9.640 -0.7989  0.0352 -0.8307
   22SAPC   C37 2932   0.415  -0.476   9.552  0.6597  0.1968 -0.5610
   22SAPC   H7X 2933   0.477  -0.556   9.505  1.0703  1.1196 -1.6460
   22SAPC   H7Y 2934   0.485  -0.395   9.582  1.1945 -0.6235  0.4574
   22SAPC   C38 2935   0.316  -0.421   9.455 -1.0408  0.0484 -0.2342
   22SAPC   H8X 2936   0.266  -0.329   9.492 -1.0720  1.3045 -3.1902
   22SAPC   H8Y 2937   0.247  -0.490   9.403 -1.9118  1.0910 -0.5023
   22SAPC   C39 2938   0.380  -0.360   9.327 -0.3974 -0.1974 -0.8567
   22SAPC   H9X 2939   0.478  -0.410   9.316 -0.5286 -0.5545 -0.4397
   22SAPC   H9Y 2940   0.396  -0.253   9.352 -0.0585 -0.5374  0.4863
   22SAPC  C310 2941   0.292  -0.382   9.198 -0.1033 -0.1504  0.8948
   22SAPC  H10X 2942   0.192  -0.339   9.220  0.0432  0.1888  0.9013
   22SAPC  H10Y 2943   0.279  -0.491   9.184 -0.6053 -0.1058  0.9847
   22SAPC  C311 2944   0.356  -0.321   9.067 -0.0174  0.4494  0.1702
   22SAPC  H11X 2945   0.461  -0.355   9.055 -0.6978 -1.8583  0.2984
   22SAPC  H11Y 2946   0.341  -0.211   9.073 -2.1974  0.1269  2.1542
   22SAPC  C312 2947   0.274  -0.362   8.949 -0.1513 -0.4035  0.4996
   22SAPC  H12X 2948   0.167  -0.333   8.959  0.2487  0.7616  1.6334
   22SAPC  H12Y 2949   0.288  -0.472   8.939  0.2890 -0.3057  0.0759
   22SAPC  C313 2950   0.326  -0.295   8.820 -0.6506 -0.0792  0.0905
   22SAPC  H13X 2951   0.421  -0.333   8.776 -1.7098 -0.1065 -2.3420
   22SAPC  H13Y 2952   0.343  -0.188   8.844 -0.0860  0.0137 -0.6586
   22SAPC  C314 2953   0.231  -0.296   8.698  0.3180 -0.2692 -0.7893
   22SAPC  H14X 2954   0.219  -0.402   8.666  1.4542 -0.3849 -0.8733
   22SAPC  H14Y 2955   0.287  -0.250   8.614  1.3502 -1.5447 -0.8197
   22SAPC  C315 2956   0.091  -0.234   8.727  0.0840  0.7207  0.2877
   22SAPC  H15X 2957   0.114  -0.126   8.744 -0.0761  0.4162  2.8798
   22SAPC  H15Y 2958   0.043  -0.280   8.817 -0.2863 -1.0116 -0.7518
   22SAPC  C316 2959  -0.002  -0.250   8.603 -0.3464 -0.1587 -0.5153
   22SAPC  H16X 2960  -0.027  -0.353   8.570 -0.9702 -0.3382  0.4672
   22SAPC  H16Y 2961   0.048  -0.209   8.513  2.2972 -0.9991  0.4902
   22SAPC  C317 2962  -0.139  -0.184   8.643 -0.8957  0.1138  0.2872
   22SAPC  H17X 2963  -0.128  -0.077   8.671 -0.1278 -0.3881  2.0332
   22SAPC  H17Y 2964  -0.184  -0.238   8.729 -1.5559  0.5452  0.2288
   22SAPC  C318 2965  -0.251  -0.186   8.536 -0.5314  0.3794  0.4462
   22SAPC  H18X 2966  -0.234  -0.111   8.456 -1.8495  2.2518  1.8244
   22SAPC  H18Y 2967  -0.354  -0.152   8.561 -0.7315 -0.7202  1.1971
   22SAPC  H18Z 2968  -0.255  -0.288   8.493 -0.9233  1.5982 -2.6305
   23SAPC     N 2969   1.690   0.421  10.952  0.7311  0.4577  0.1398
   23SAPC   C12 2970   1.795   0.507  11.019 -0.5924 -0.2655 -0.0993
   23SAPC  H12A 2971   1.881   0.446  11.043 -0.2980  0.4054  0.5910
   23SAPC  H12B 2972   1.756   0.533  11.117  1.1956  0.2801  0.5144
   23SAPC   C13 2973   1.557   0.485  10.949 -0.2383 -0.8787  0.1309
   23SAPC  H13A 2974   1.521   0.506  11.049 -0.1504 -2.0544  0.4305
   23SAPC  H13B 2975   1.563   0.572  10.886 -0.7925  0.5396  1.9489
   23SAPC  H13C 2976   1.482   0.419  10.908 -0.9189  0.3511 -0.6481
   23SAPC   C14 2977   1.730   0.398  10.813 -1.1170 -0.2577  0.4936
   23SAPC  H14A 2978   1.828   0.355  10.801 -1.1207 -0.6509  1.6586
   23SAPC  H14B 2979   1.668   0.333  10.754  0.6155  0.4212 -2.2529
   23SAPC  H14C 2980   1.737   0.492  10.761 -1.3156 -1.3999 -1.6947
   23SAPC   C15 2981   1.668   0.287  11.030  0.0741 -0.4734 -0.6074
   23SAPC  H15A 2982   1.595   0.225  10.980  0.7931 -2.6288  0.8483
   23SAPC  H15B 2983   1.762   0.235  11.045  0.1563 -0.0041  0.6315
   23SAPC  H15C 2984   1.630   0.312  11.128  1.4588 -0.7281  0.0250
   23SAPC   C11 2985   1.849   0.634  10.950 -0.9912  0.4643  0.1698
   23SAPC  H11A 2986   1.905   0.587  10.867  1.8443  1.2589  1.5158
   23SAPC  H11B 2987   1.921   0.686  11.016  0.0928  1.0951 -1.4580
   23SAPC     P 2988   1.763   0.792  10.770  0.1989 -0.6262 -0.6346
   23SAPC   O13 2989   1.638   0.868  10.737 -0.2341  0.5539 -0.2997
   23SAPC   O14 2990   1.887   0.872  10.770  0.0661  0.0657  0.3740
   23SAPC   O12 2991   1.744   0.723  10.917  0.2062 -0.0155  0.1070
   23SAPC   O11 2992   1.778   0.674  10.668 -0.4185 -0.0811 -0.5122
   23SAPC    C1 2993   1.784   0.688  10.531 -0.7161 -0.0495 -0.3386
   23SAPC    HA 2994   1.791   0.796  10.510  1.1586  0.2155  1.3062
   23SAPC    HB 2995   1.878   0.635  10.503 -1.6670 -2.6379  1.0423
   23SAPC    C2 2996   1.680   0.611  10.453  0.3979 -0.8918 -0.3042
   23SAPC    HS 2997   1.687   0.640  10.346 -1.5364  1.5803  0.1516
   23SAPC   O21 2998   1.546   0.645  10.500 -0.7193 -0.6852 -0.2950
   23SAPC   C21 2999   1.490   0.761  10.473  0.0075 -0.1411 -0.2854
   23SAPC   O22 3000   1.550   0.855  10.422  0.4105  0.3357 -0.0531
   23SAPC   C22 3001   1.344   0.765  10.507  0.3804 -0.3756 -0.6325
   23SAPC   H2R 3002   1.304   0.666  10.539  0.2843  0.3817  1.7559
   23SAPC   H2S 3003   1.329   0.841  10.587  1.3884  0.5117 -1.2693
   23SAPC    C3 3004   1.699   0.458  10.460 -0.4202 -0.2635 -0.3103
   23SAPC    HX 3005   1.654   0.416  10.553  0.6669  0.3450  0.5164
   23SAPC    HY 3006   1.805   0.425  10.464 -0.1719  0.6294  1.5864
   23SAPC   O31 3007   1.641   0.405  10.342 -0.0432 -0.8298  0.0750
   23SAPC   C31 3008   1.523   0.361  10.345  0.2735  0.3809 -0.4643
   23SAPC   O32 3009   1.466   0.321  10.446  0.1810 -0.1922  0.1302
   23SAPC   C32 3010   1.475   0.344  10.196 -0.1372 -0.4412  0.2363
   23SAPC   H2X 3011   1.523   0.253  10.153 -0.3354 -1.2185  1.6049
   23SAPC   H2Y 3012   1.504   0.439  10.145  0.2333  1.1603  3.2106
   23SAPC   C23 3013   1.263   0.812  10.386 -1.0695 -0.2760  0.2446
   23SAPC   H3R 3014   1.312   0.901  10.341 -0.5656 -0.8017 -0.2543
   23SAPC   H3S 3015   1.164   0.834  10.433 -0.2551 -0.3776  2.0929
   23SAPC   C24 3016   1.249   0.695  10.281 -0.6249  0.1195  0.3212
   23SAPC   H4R 3017   1.150   0.706  10.231 -0.9892 -0.0057  1.0097
   23SAPC   H4S 3018   1.248   0.594  10.327  3.0291 -1.9217 -3.3899
   23SAPC   C25 3019   1.362   0.688  10.173  0.9757 -0.5388  0.5673
   23SAPC   H5R 3020   1.461   0.666  10.214  1.3307 -3.4426 -1.5385
   23SAPC   C26 3021   1.340   0.705  10.036 -0.0954  0.0420 -0.5318
   23SAPC   H6R 3022   1.425   0.717   9.967 -0.6394 -1.9157 -1.6243
   23SAPC   C27 3023   1.203   0.744   9.970  0.1547  0.3597 -0.1442
   23SAPC   H7R 3024   1.226   0.800   9.876  1.8085  0.7834  0.4756
   23SAPC   H7S 3025   1.152   0.814  10.040  2.1588  1.0418  0.7280
   23SAPC   C28 3026   1.114   0.629   9.947  0.0435  0.7227  0.1644
   23SAPC   H8R 3027   1.090   0.568  10.036  0.8752  0.6833  0.3718
   23SAPC   C29 3028   1.055   0.600   9.829  0.5236 -0.0756 -0.0586
   23SAPC   H9R 3029   0.972   0.528   9.820 -1.6167  2.2680  0.0217
   23SAPC  C210 3030   1.068   0.684   9.703 -0.0864  0.5348  0.2267
   23SAPC  H10R 3031   1.171   0.668   9.664  0.3411  0.1299  1.4922
   23SAPC  H10S 3032   1.067   0.793   9.725  1.7346  0.1973  2.2477
   23SAPC  C211 3033   0.967   0.658   9.592  0.1091 -0.2822 -0.4786
   23SAPC  H11R 3034   0.877   0.720   9.602  0.8241  0.6239  0.7407
   23SAPC  C212 3035   0.983   0.572   9.485 -0.2617  0.1205 -0.0309
   23SAPC  H12R 3036   0.899   0.554   9.417  0.7781 -1.9495 -0.8614
   23SAPC  C213 3037   1.109   0.499   9.453 -0.5462 -0.0037  0.3568
   23SAPC  H13R 3038   1.171   0.499   9.545 -1.3344 -1.0511  0.9062
   23SAPC  H13S 3039   1.168   0.555   9.377 -2.4815  2.9829  0.9144
   23SAPC  C214 3040   1.090   0.349   9.418 -0.3641 -0.5188  0.5185
   23SAPC  H14R 3041   1.088   0.283   9.506 -0.9585  1.9405  2.4816
   23SAPC  C215 3042   1.101   0.301   9.295  0.3217 -1.0672  0.1263
   23SAPC  H15R 3043   1.088   0.192   9.287  1.8738 -1.1889 -1.2386
   23SAPC  C216 3044   1.113   0.370   9.164  0.4753  0.4840 -0.8085
   23SAPC  H16R 3045   1.135   0.477   9.184  0.8033  0.0777  1.1846
   23SAPC  H16S 3046   1.014   0.367   9.114  0.4281  1.5819 -0.8035
   23SAPC  C217 3047   1.218   0.309   9.065 -0.3441 -0.0453 -0.1375
   23SAPC  H17R 3048   1.214   0.198   9.062  3.7083 -0.4127  0.8750
   23SAPC  H17S 3049   1.318   0.329   9.109  0.3741  0.1322 -1.7780
   23SAPC  C218 3050   1.220   0.379   8.925 -0.1472  0.3776 -0.5362
   23SAPC  H18R 3051   1.226   0.489   8.940 -0.6808  0.3211  0.1493
   23SAPC  H18S 3052   1.130   0.351   8.866 -0.8589 -2.6655  1.7603
   23SAPC  C219 3053   1.343   0.361   8.842 -0.3320 -0.2507  0.5242
   23SAPC  H19R 3054   1.430   0.405   8.895 -0.2746 -2.4567  2.4262
   23SAPC  H19S 3055   1.331   0.416   8.746 -0.1523  0.8603  1.1263
   23SAPC  C220 3056   1.365   0.207   8.813  0.6738 -0.2723  1.0158
   23SAPC  H20R 3057   1.269   0.155   8.793  0.5856  0.3482 -0.2549
   23SAPC  H20S 3058   1.418   0.171   8.904 -0.8610 -0.0980  2.0153
   23SAPC  H20T 3059   1.423   0.194   8.720 -0.0125  1.0230  0.3853
   23SAPC   C33 3060   1.318   0.329  10.178 -0.6449 -0.8417 -0.4060
   23SAPC   H3X 3061   1.269   0.428  10.166  2.2272  0.4989 -2.1007
   23SAPC   H3Y 3062   1.289   0.265  10.265  0.0734  0.1340  0.5727
   23SAPC   C34 3063   1.286   0.245  10.054 -0.0695  0.2719  0.5304
   23SAPC   H4X 3064   1.180   0.215  10.059 -0.1577  0.6618  1.1388
   23SAPC   H4Y 3065   1.354   0.157  10.057  0.5604  0.7300  0.0504
   23SAPC   C35 3066   1.310   0.326   9.923 -0.0021  0.8037 -0.3343
   23SAPC   H5X 3067   1.413   0.304   9.887 -0.3764 -0.2509 -0.8101
   23SAPC   H5Y 3068   1.302   0.432   9.953  1.3366  0.3403  1.8905
   23SAPC   C36 3069   1.210   0.296   9.814 -0.0651 -0.5875  0.3143
   23SAPC   H6X 3070   1.230   0.356   9.722 -1.0083  0.3770  0.7141
   23SAPC   H6Y 3071   1.109   0.336   9.837  0.2111  0.6414 -0.4986
   23SAPC   C37 3072   1.188   0.147   9.785 -0.0984 -0.5774  0.0429
   23SAPC   H7X 3073   1.103   0.139   9.714  0.6410 -0.0459 -0.9250
   23SAPC   H7Y 3074   1.136   0.104   9.874 -0.8202 -1.4278 -0.7707
   23SAPC   C38 3075   1.310   0.062   9.742 -0.7465  0.3460  0.0483
   23SAPC   H8X 3076   1.384   0.044   9.822 -2.0470  2.4343  1.8307
   23SAPC   H8Y 3077   1.353   0.129   9.665 -0.5440  0.5319  0.3227
   23SAPC   C39 3078   1.254  -0.072   9.691 -0.3568  0.5133  0.1175
   23SAPC   H9X 3079   1.175  -0.054   9.615 -1.3487 -1.1764  0.7104
   23SAPC   H9Y 3080   1.201  -0.126   9.772  0.2062 -1.8506 -0.9991
   23SAPC  C310 3081   1.355  -0.156   9.610  0.1241 -0.3322  0.7074
   23SAPC  H10X 3082   1.328  -0.262   9.591  1.4209 -0.5407 -0.1066
   23SAPC  H10Y 3083   1.450  -0.153   9.668  0.4426 -0.8088  0.2262
   23SAPC  C311 3084   1.390  -0.092   9.473  0.4960  0.3007  0.1438
   23SAPC  H11X 3085   1.381   0.019   9.480 -0.8185  0.3544 -1.6574
   23SAPC  H11Y 3086   1.323  -0.136   9.396 -1.3809  0.3226  1.6557
   23SAPC  C312 3087   1.524  -0.110   9.408  0.6143  0.3431  0.0399
   23SAPC  H12X 3088   1.566  -0.213   9.419 -0.8759 -0.2104  0.9032
   23SAPC  H12Y 3089   1.603  -0.049   9.458  1.0775 -1.2416  1.3459
   23SAPC  C313 3090   1.527  -0.070   9.261  0.9260  0.5837  0.1449
   23SAPC  H13X 3091   1.626  -0.029   9.233  1.2407 -1.5090 -2.1167
   23SAPC  H13Y 3092   1.448   0.006   9.242 -0.4360 -0.9122 -0.3938
   23SAPC  C314 3093   1.491  -0.195   9.172  0.0333  0.1496  0.0329
   23SAPC  H14X 3094   1.407  -0.250   9.220  1.4830 -2.0512  0.1699
   23SAPC  H14Y 3095   1.582  -0.258   9.160 -0.3420 -1.0618  2.8181
   23SAPC  C315 3096   1.446  -0.163   9.031 -0.2881  0.4337  0.3793
   23SAPC  H15X 3097   1.535  -0.145   8.967 -1.9704 -1.7515 -2.8335
   23SAPC  H15Y 3098   1.394  -0.065   9.035  1.1710  1.2137  1.8817
   23SAPC  C316 3099   1.352  -0.269   8.964  0.1349 -0.2093 -0.8530
   23SAPC  H16X 3100   1.255  -0.278   9.017  0.4965  0.5757 -0.0198
   23SAPC  H16Y 3101   1.398  -0.370   8.968 -0.2063 -0.3421 -0.0300
   23SAPC  C317 3102   1.333  -0.227   8.818 -1.1080 -0.5741 -0.0319
   23SAPC  H17X 3103   1.435  -0.217   8.776 -1.7516 -0.6724 -1.6598
   23SAPC  H17Y 3104   1.282  -0.128   8.812  1.5267  0.9383  0.6869
   23SAPC  C318 3105   1.259  -0.339   8.736 -0.1295  0.0857 -0.5097
   23SAPC  H18X 3106   1.155  -0.354   8.771  0.1158  1.4386  0.9185
   23SAPC  H18Y 3107   1.315  -0.435   8.730  1.1288  0.8778 -4.2609
   23SAPC  H18Z 3108   1.254  -0.300   8.632  0.1671  0.3651 -0.4205
   24SAPC     N 3109   3.311   0.236  11.125  0.2925  0.2341  0.1454
   24SAPC   C12 3110   3.229   0.352  11.056 -0.9840  0.0673 -0.8774
   24SAPC  H12A 3111   3.299   0.430  11.031 -2.7294  3.0023  2.4475
   24SAPC  H12B 3112   3.160   0.392  11.129  0.5412  2.2843 -0.5647
   24SAPC   C13 3113   3.222   0.115  11.125 -0.5964 -0.5248 -0.6305
   24SAPC  H13A 3114   3.185   0.106  11.024 -1.5787 -2.5615 -0.1247
   24SAPC  H13B 3115   3.266   0.023  11.160 -0.1989  0.5650  1.9512
   24SAPC  H13C 3116   3.136   0.143  11.183  0.5761  0.6663  0.6128
   24SAPC   C14 3117   3.430   0.204  11.049  0.5546  0.0679  0.1948
   24SAPC  H14A 3118   3.499   0.284  11.029  0.3769  0.3104  0.5480
   24SAPC  H14B 3119   3.481   0.118  11.089 -1.0612 -0.6347  0.8462
   24SAPC  H14C 3120   3.414   0.168  10.948  1.2513  0.7061 -0.1515
   24SAPC   C15 3121   3.346   0.281  11.256 -0.0593  0.1091 -0.2815
   24SAPC  H15A 3122   3.267   0.310  11.324 -0.1332  0.2954 -0.4462
   24SAPC  H15B 3123   3.388   0.200  11.313  1.4514  0.8898 -0.2246
   24SAPC  H15C 3124   3.423   0.357  11.258  1.8903 -1.6809 -2.0118
   24SAPC   C11 3125   3.157   0.315  10.927  0.7505 -0.2795 -0.9186
   24SAPC  H11A 3126   3.228   0.263  10.860 -0.0622 -2.4715 -0.1571
   24SAPC  H11B 3127   3.134   0.412  10.878  0.4221 -0.1475 -0.5108
   24SAPC     P 3128   2.913   0.289  11.020 -0.1639 -0.0341  0.1481
   24SAPC   O13 3129   2.834   0.175  11.068 -0.1705 -0.5009  0.4478
   24SAPC   O14 3130   2.957   0.391  11.116  0.1102 -0.2893  0.2787
   24SAPC   O12 3131   3.036   0.228  10.944  0.1669 -0.1488 -1.4242
   24SAPC   O11 3132   2.829   0.362  10.913 -0.2824  0.3431  0.1752
   24SAPC    C1 3133   2.775   0.285  10.798  0.0315 -0.4604 -0.3948
   24SAPC    HA 3134   2.716   0.199  10.836  0.1224  0.1997  1.3372
   24SAPC    HB 3135   2.701   0.353  10.753 -1.8143 -1.2236  1.3257
   24SAPC    C2 3136   2.881   0.229  10.696 -0.4328 -0.1125  0.8225
   24SAPC    HS 3137   2.944   0.157  10.753  1.0378 -0.1538 -0.8025
   24SAPC   O21 3138   2.961   0.331  10.643 -0.2762 -0.4522 -0.2522
   24SAPC   C21 3139   3.078   0.304  10.595  0.1454 -0.5586 -0.5661
   24SAPC   O22 3140   3.144   0.208  10.614 -0.0249  0.0076  0.3232
   24SAPC   C22 3141   3.120   0.423  10.512 -0.5517  0.2417  0.3980
   24SAPC   H2R 3142   3.036   0.494  10.493 -0.0187  1.1708  1.4716
   24SAPC   H2S 3143   3.193   0.476  10.576 -0.9555  0.1307  0.9615
   24SAPC    C3 3144   2.802   0.161  10.582  0.4035 -0.1816 -0.1112
   24SAPC    HX 3145   2.744   0.246  10.540  0.3398 -0.7847 -1.2671
   24SAPC    HY 3146   2.727   0.098  10.635 -1.4231  0.6049 -1.6598
   24SAPC   O31 3147   2.869   0.080  10.485  0.0148  0.2320  0.1484
   24SAPC   C31 3148   2.914  -0.039  10.536 -0.3812  0.2669 -0.2736
   24SAPC   O32 3149   2.894  -0.085  10.644 -0.6213 -0.1790  0.1910
   24SAPC   C32 3150   3.015  -0.116  10.437 -0.0767 -0.4592 -0.7025
   24SAPC   H2X 3151   3.032  -0.209  10.494  0.3579 -0.4868 -0.8720
   24SAPC   H2Y 3152   3.111  -0.060  10.439  1.6343 -3.1389 -1.4352
   24SAPC   C23 3153   3.177   0.374  10.380 -0.6037 -0.9222  0.0458
   24SAPC   H3R 3154   3.210   0.268  10.382 -1.0132 -1.0376  1.9288
   24SAPC   H3S 3155   3.273   0.428  10.363  0.0814 -2.1104  0.0287
   24SAPC   C24 3156   3.083   0.388  10.263 -0.5189 -0.7632  0.0941
   24SAPC   H4R 3157   3.054   0.495  10.268  2.4923  0.2367 -1.6015
   24SAPC   H4S 3158   3.000   0.316  10.279  0.0382 -1.3452  0.4292
   24SAPC   C25 3159   3.154   0.356  10.134  0.0781  0.2037 -0.3347
   24SAPC   H5R 3160   3.167   0.252  10.103 -1.3307 -0.0300 -0.2210
   24SAPC   C26 3161   3.208   0.441  10.047  0.3379  0.9222  0.6056
   24SAPC   H6R 3162   3.242   0.398   9.951  0.8470  0.5836  0.9295
   24SAPC   C27 3163   3.219   0.589  10.072  0.4219 -0.3245 -0.3895
   24SAPC   H7R 3164   3.306   0.618  10.134 -0.0141  1.6919 -0.6577
   24SAPC   H7S 3165   3.133   0.618  10.136  0.8945 -1.9628  1.0797
   24SAPC   C28 3166   3.209   0.685   9.959 -0.4379 -0.4155 -0.5406
   24SAPC   H8R 3167   3.110   0.730   9.944  0.2463  1.5937  0.5833
   24SAPC   C29 3168   3.303   0.705   9.867 -0.1214 -0.0754 -0.4593
   24SAPC   H9R 3169   3.293   0.784   9.790  1.2066 -0.2830 -0.8735
   24SAPC  C210 3170   3.440   0.652   9.871 -0.8893 -0.1586  0.5065
   24SAPC  H10R 3171   3.476   0.611   9.968  1.5567  0.1361 -0.2128
   24SAPC  H10S 3172   3.508   0.735   9.844 -1.3588  0.6787  1.7934
   24SAPC  C211 3173   3.450   0.544   9.765 -0.4443 -0.2432 -0.0041
   24SAPC  H11R 3174   3.386   0.457   9.786  0.5368 -0.9910 -0.0485
   24SAPC  C212 3175   3.531   0.546   9.657  0.4685  0.4106  0.8469
   24SAPC  H12R 3176   3.521   0.459   9.591  1.6748  0.8856  0.0031
   24SAPC  C213 3177   3.619   0.657   9.609  0.0157  0.3971  0.3674
   24SAPC  H13R 3178   3.672   0.702   9.695 -0.4966  1.8805 -0.0610
   24SAPC  H13S 3179   3.546   0.731   9.569 -0.4887  0.1287  0.7732
   24SAPC  C214 3180   3.728   0.615   9.512 -0.0510  0.4449  0.1806
   24SAPC  H14R 3181   3.790   0.539   9.562 -0.7240  1.1958  2.2977
   24SAPC  C215 3182   3.753   0.671   9.396 -0.0176  0.1778 -0.5822
   24SAPC  H15R 3183   3.846   0.633   9.352  1.0841 -0.0828  1.8624
   24SAPC  C216 3184   3.687   0.784   9.335 -0.2646 -0.3056  0.0808
   24SAPC  H16R 3185   3.678   0.867   9.408  1.4262 -1.0495  1.1789
   24SAPC  H16S 3186   3.584   0.755   9.303 -0.8814  0.3876  1.3577
   24SAPC  C217 3187   3.762   0.847   9.214 -0.5088  0.1005 -0.4457
   24SAPC  H17R 3188   3.784   0.771   9.136 -0.8510  0.0871 -0.5330
   24SAPC  H17S 3189   3.864   0.869   9.251 -1.6534 -0.3377  3.4545
   24SAPC  C218 3190   3.709   0.974   9.159  0.4671  0.1084 -0.2945
   24SAPC  H18R 3191   3.704   1.058   9.232 -0.6836  1.4983 -1.8946
   24SAPC  H18S 3192   3.602   0.954   9.137  0.8044 -1.1346 -0.8582
   24SAPC  C219 3193   3.771   1.041   9.029  0.2998  0.1378 -0.0557
   24SAPC  H19R 3194   3.785   0.956   8.959 -0.0747 -0.1615  0.2265
   24SAPC  H19S 3195   3.875   1.076   9.049  0.3885 -0.2849  0.2257
   24SAPC  C220 3196   3.687   1.147   8.971  0.1915 -0.1306  0.3274
   24SAPC  H20R 3197   3.584   1.106   8.962  0.9078 -1.8174 -0.8628
   24SAPC  H20S 3198   3.719   1.166   8.866 -2.4997 -0.0091 -0.5354
   24SAPC  H20T 3199   3.688   1.240   9.031  0.7558  0.5458 -0.6919
   24SAPC   C33 3200   2.970  -0.128  10.290  0.5350 -0.6282  0.4547
   24SAPC   H3X 3201   2.872  -0.181  10.283 -0.0693 -0.0781  3.3018
   24SAPC   H3Y 3202   3.041  -0.203  10.250 -0.5470 -1.4203 -0.0454
   24SAPC   C34 3203   2.959   0.000  10.205 -0.5941  0.4555  0.1136
   24SAPC   H4X 3204   3.046   0.068  10.220 -0.3055 -0.3838  2.6403
   24SAPC   H4Y 3205   2.874   0.068  10.223 -0.2197  0.8069  0.5785
   24SAPC   C35 3206   2.947  -0.045  10.057 -0.6367 -0.8588  0.2319
   24SAPC   H5X 3207   2.871  -0.123  10.036  0.8514 -1.4184 -4.1790
   24SAPC   H5Y 3208   3.048  -0.087  10.033 -0.2870  1.2040 -2.4323
   24SAPC   C36 3209   2.924   0.064   9.952  0.0384  0.0645  0.4782
   24SAPC   H6X 3210   3.017   0.122   9.936  0.9766 -1.4584  0.1731
   24SAPC   H6Y 3211   2.842   0.133   9.983 -1.9860 -1.3209 -1.4954
   24SAPC   C37 3212   2.886  -0.009   9.822  0.0842 -0.0977 -0.0544
   24SAPC   H7X 3213   2.796  -0.073   9.839 -0.8130  1.4261  1.2444
   24SAPC   H7Y 3214   2.961  -0.086   9.792 -0.3541 -0.4365 -0.3037
   24SAPC   C38 3215   2.854   0.085   9.711 -0.4786 -0.4556 -0.4134
   24SAPC   H8X 3216   2.935   0.161   9.704 -0.2291 -0.7915 -1.3111
   24SAPC   H8Y 3217   2.765   0.149   9.729  1.3318  1.8757  0.8720
   24SAPC   C39 3218   2.848   0.032   9.567 -0.0385  0.2309  0.7319
   24SAPC   H9X 3219   2.784  -0.058   9.571 -1.3524  1.1331  0.4714
   24SAPC   H9Y 3220   2.946  -0.007   9.532 -0.6021 -0.6917  0.1517
   24SAPC  C310 3221   2.786   0.128   9.462  0.8659  0.3297  0.5094
   24SAPC  H10X 3222   2.808   0.087   9.362 -0.4358 -1.4141  0.8938
   24SAPC  H10Y 3223   2.822   0.233   9.472  2.3477 -0.2841  2.4856
   24SAPC  C311 3224   2.630   0.131   9.472 -0.6849 -0.7721  0.2841
   24SAPC  H11X 3225   2.592   0.140   9.576 -0.5727 -1.0847  0.3527
   24SAPC  H11Y 3226   2.583   0.047   9.417 -0.3399 -0.2473 -0.8416
   24SAPC  C312 3227   2.575   0.247   9.382 -0.1338  0.1748 -0.3922
   24SAPC  H12X 3228   2.625   0.340   9.418 -1.3510  0.0898  1.6414
   24SAPC  H12Y 3229   2.469   0.255   9.413 -0.0316  1.5221 -0.3307
   24SAPC  C313 3230   2.584   0.241   9.226  0.5060  0.3458 -1.0495
   24SAPC  H13X 3231   2.523   0.154   9.193 -2.9108  2.0903  0.1405
   24SAPC  H13Y 3232   2.688   0.217   9.196  0.8718 -2.3020  1.7815
   24SAPC  C314 3233   2.532   0.374   9.165 -0.2746 -0.5747  0.8172
   24SAPC  H14X 3234   2.616   0.445   9.177  0.2150 -1.2143  1.2415
   24SAPC  H14Y 3235   2.443   0.407   9.222 -0.5114  1.9321 -0.8498
   24SAPC  C315 3236   2.501   0.349   9.012 -1.1119  0.4635 -0.0127
   24SAPC  H15X 3237   2.596   0.328   8.958 -1.8656 -0.3651 -1.0472
   24SAPC  H15Y 3238   2.477   0.447   8.965 -1.7660  0.3763  0.1289
   24SAPC  C316 3239   2.392   0.251   8.976  0.1914 -0.3948  0.5987
   24SAPC  H16X 3240   2.298   0.298   9.013 -0.7988 -1.6575 -0.2105
   24SAPC  H16Y 3241   2.390   0.152   9.027 -0.9773 -0.3963  0.5761
   24SAPC  C317 3242   2.388   0.212   8.827  0.4980  0.0558  0.2535
   24SAPC  H17X 3243   2.470   0.138   8.815  0.1739 -0.1107 -1.0291
   24SAPC  H17Y 3244   2.400   0.305   8.767 -1.9257  1.5953  1.9394
   24SAPC  C318 3245   2.253   0.152   8.793  0.8464  0.4633  0.0102
   24SAPC  H18X 3246   2.235   0.152   8.683  2.0345 -1.5736 -0.2306
   24SAPC  H18Y 3247   2.172   0.210   8.843  2.4492  1.7142  1.2706
   24SAPC  H18Z 3248   2.259   0.046   8.825  0.5684  0.5585  0.3810
   25SAPC     N 3249   1.661   3.815   5.840 -0.2005  0.3249  0.2543
   25SAPC   C12 3250   1.720   3.887   5.962 -0.5130 -0.2353 -0.2764
   25SAPC  H12A 3251   1.768   3.972   5.916  0.7169 -1.2248 -0.8751
   25SAPC  H12B 3252   1.797   3.827   6.007  0.5625  0.4864 -1.1097
   25SAPC   C13 3253   1.553   3.890   5.767 -0.4432  0.7032  0.4413
   25SAPC  H13A 3254   1.592   3.956   5.691  0.8819 -2.2714 -1.6831
   25SAPC  H13B 3255   1.474   3.827   5.728  0.2629  1.2480 -2.0290
   25SAPC  H13C 3256   1.499   3.947   5.841 -1.0644  1.1152 -0.3119
   25SAPC   C14 3257   1.765   3.787   5.736  0.0991 -0.0405 -0.3603
   25SAPC  H14A 3258   1.718   3.768   5.641 -1.7087  0.0968  0.4576
   25SAPC  H14B 3259   1.838   3.866   5.734  1.4915 -1.2838 -0.7566
   25SAPC  H14C 3260   1.830   3.704   5.760  0.0954  0.2984  0.8980
   25SAPC   C15 3261   1.599   3.683   5.877 -0.2157 -0.6047 -0.0765
   25SAPC  H15A 3262   1.667   3.632   5.944 -1.7176 -1.1610  1.0833
   25SAPC  H15B 3263   1.504   3.697   5.926 -0.1006  1.2923 -0.3357
   25SAPC  H15C 3264   1.578   3.613   5.797 -0.0933 -0.2532 -0.4184
   25SAPC   C11 3265   1.618   3.927   6.065 -0.1891 -0.3298 -1.1539
   25SAPC  H11A 3266   1.670   3.935   6.163 -1.2813 -1.1641 -0.4728
   25SAPC  H11B 3267   1.538   3.853   6.088 -0.4141  0.3256  0.2890
   25SAPC     P 3268   1.613   4.192   6.028  0.3899  0.1445  0.5416
   25SAPC   O13 3269   1.758   4.177   6.008  0.2088 -0.1006  0.1209
   25SAPC   O14 3270   1.546   4.281   5.934  0.0899  0.3413 -0.7742
   25SAPC   O12 3271   1.549   4.044   6.023 -0.1524  0.3652 -0.6355
   25SAPC   O11 3272   1.574   4.237   6.171 -1.2850 -0.0088  0.2119
   25SAPC    C1 3273   1.659   4.228   6.284 -0.1987 -0.2775  0.3609
   25SAPC    HA 3274   1.710   4.131   6.302  3.0611  0.9455 -1.4881
   25SAPC    HB 3275   1.745   4.298   6.276 -0.9852  0.6420 -0.3191
   25SAPC    C2 3276   1.577   4.265   6.412  0.3892  0.6534  0.1633
   25SAPC    HS 3277   1.540   4.369   6.406 -0.7269  0.1952 -1.5941
   25SAPC   O21 3278   1.651   4.228   6.535 -0.4274 -0.2534 -0.0847
   25SAPC   C21 3279   1.757   4.298   6.552 -0.4772  0.2413 -0.2875
   25SAPC   O22 3280   1.797   4.396   6.495 -0.1936 -0.6086 -0.2141
   25SAPC   C22 3281   1.834   4.224   6.667  0.4107 -0.9531 -0.6503
   25SAPC   H2R 3282   1.771   4.146   6.715 -1.4499  0.6558 -0.3549
   25SAPC   H2S 3283   1.934   4.187   6.637  0.9902  0.3253 -0.3654
   25SAPC    C3 3284   1.446   4.181   6.403 -0.4459  0.5826 -0.5639
   25SAPC    HX 3285   1.481   4.082   6.367  2.4731  0.2291  2.7803
   25SAPC    HY 3286   1.382   4.204   6.315 -0.9817  0.7415 -0.1381
   25SAPC   O31 3287   1.380   4.173   6.533 -0.6527 -0.1077  1.1403
   25SAPC   C31 3288   1.324   4.290   6.576 -0.2614  0.1681 -0.1285
   25SAPC   O32 3289   1.319   4.393   6.519 -0.1864 -0.7200  0.1873
   25SAPC   C32 3290   1.285   4.259   6.725 -0.1142  0.0845  0.1856
   25SAPC   H2X 3291   1.345   4.170   6.754 -0.8502 -0.9129 -1.1936
   25SAPC   H2Y 3292   1.175   4.241   6.724 -0.1550  0.3188 -0.5146
   25SAPC   C23 3293   1.854   4.328   6.783  0.3593  0.5818 -0.4250
   25SAPC   H3R 3294   1.759   4.366   6.826 -0.1259 -0.7240 -0.3277
   25SAPC   H3S 3295   1.910   4.418   6.749  2.2607  0.2475  1.6192
   25SAPC   C24 3296   1.943   4.277   6.895  0.3622 -0.1898 -0.3676
   25SAPC   H4R 3297   2.033   4.231   6.849  0.3200 -1.3140  0.6029
   25SAPC   H4S 3298   1.884   4.197   6.945  1.1991 -0.0290  0.9276
   25SAPC   C25 3299   1.982   4.391   6.989 -0.0357  0.5614  0.1840
   25SAPC   H5R 3300   2.022   4.482   6.940  0.9057 -0.3540 -0.8071
   25SAPC   C26 3301   1.944   4.392   7.118 -0.9836 -0.1955  0.3862
   25SAPC   H6R 3302   1.972   4.476   7.183  0.3042 -0.9640  0.8485
   25SAPC   C27 3303   1.884   4.283   7.191  0.2658  0.5779  0.6982
   25SAPC   H7R 3304   1.965   4.252   7.260  1.8408  2.1745 -0.3439
   25SAPC   H7S 3305   1.858   4.193   7.130  0.0241  0.8652  0.3735
   25SAPC   C28 3306   1.769   4.333   7.264 -0.5414 -0.7339 -0.4193
   25SAPC   H8R 3307   1.685   4.343   7.195 -1.0593 -1.1590  0.1366
   25SAPC   C29 3308   1.760   4.347   7.397 -0.1967 -0.4342  0.1829
   25SAPC   H9R 3309   1.682   4.405   7.448  0.1846  0.6009 -0.3912
   25SAPC  C210 3310   1.870   4.318   7.494 -0.5832  0.1754  0.4062
   25SAPC  H10R 3311   1.935   4.233   7.462  0.3147  0.4518  1.4424
   25SAPC  H10S 3312   1.830   4.298   7.595 -1.8100 -2.7143 -0.5484
   25SAPC  C211 3313   1.971   4.429   7.500 -0.9648  0.0714  0.2578
   25SAPC  H11R 3314   1.987   4.481   7.405 -2.1598  1.6411  0.8730
   25SAPC  C212 3315   2.043   4.465   7.612 -0.7360 -0.2462  0.0293
   25SAPC  H12R 3316   2.118   4.545   7.598 -1.5343  0.9275  2.0612
   25SAPC  C213 3317   2.031   4.406   7.747  0.0915 -0.5268  0.1032
   25SAPC  H13R 3318   2.121   4.349   7.780  0.2847 -1.1016 -1.3178
   25SAPC  H13S 3319   1.941   4.342   7.758 -0.4642  0.3545  0.8295
   25SAPC  C214 3320   1.994   4.509   7.852 -1.0222 -0.0058  0.2131
   25SAPC  H14R 3321   1.915   4.584   7.836 -0.9234  0.0902  0.1729
   25SAPC  C215 3322   2.039   4.508   7.979 -0.2935 -0.0759 -0.5985
   25SAPC  H15R 3323   2.011   4.598   8.036  1.1125 -0.6537  1.0818
   25SAPC  C216 3324   2.134   4.416   8.054  0.5817  0.0908  0.0446
   25SAPC  H16R 3325   2.188   4.348   7.985  1.6090  1.6868 -0.8110
   25SAPC  H16S 3326   2.071   4.352   8.118  1.3279  0.2275  0.9419
   25SAPC  C217 3327   2.222   4.514   8.131 -0.4130 -0.1352 -0.1965
   25SAPC  H17R 3328   2.162   4.552   8.216 -0.6991 -1.4766  0.2277
   25SAPC  H17S 3329   2.256   4.596   8.064 -1.9537  0.1787 -0.6223
   25SAPC  C218 3330   2.359   4.451   8.177  0.5067  0.1126  0.3587
   25SAPC  H18R 3331   2.408   4.402   8.090  1.0417 -0.7084  1.0981
   25SAPC  H18S 3332   2.337   4.367   8.246 -1.0533 -0.0784 -0.3474
   25SAPC  C219 3333   2.452   4.551   8.244 -0.1078  0.7686  0.6362
   25SAPC  H19R 3334   2.416   4.609   8.331  2.7531  1.5332  1.4346
   25SAPC  H19S 3335   2.486   4.627   8.170 -0.9483 -0.0446 -0.6324
   25SAPC  C220 3336   2.586   4.497   8.292  0.5825  0.4851  0.0216
   25SAPC  H20R 3337   2.650   4.584   8.320 -0.0295  0.5196  1.3957
   25SAPC  H20S 3338   2.626   4.433   8.210 -0.3244 -0.2334  0.1292
   25SAPC  H20T 3339   2.579   4.428   8.379  2.5247 -0.6618 -0.6712
   25SAPC   C33 3340   1.306   4.375   6.819  0.8043 -0.1714 -0.2031
   25SAPC   H3X 3341   1.252   4.461   6.775  0.8940 -0.6166 -1.2400
   25SAPC   H3Y 3342   1.411   4.409   6.810  0.3902  0.9415 -1.0438
   25SAPC   C34 3343   1.241   4.360   6.951  0.1862  0.3290 -0.3125
   25SAPC   H4X 3344   1.260   4.259   6.992 -1.6198 -0.2516 -0.7954
   25SAPC   H4Y 3345   1.130   4.356   6.940  0.3736 -1.2629 -2.2301
   25SAPC   C35 3346   1.307   4.467   7.044  0.1514  0.7475 -0.6358
   25SAPC   H5X 3347   1.233   4.548   7.062  1.1081  2.0048 -2.0628
   25SAPC   H5Y 3348   1.409   4.490   7.007  0.8754 -0.9498  0.1717
   25SAPC   C36 3349   1.309   4.412   7.189 -0.2276 -0.8274  0.6096
   25SAPC   H6X 3350   1.333   4.304   7.185 -0.4904 -0.8730 -2.4629
   25SAPC   H6Y 3351   1.205   4.408   7.227 -1.2913  0.3224 -1.9900
   25SAPC   C37 3352   1.392   4.498   7.286  0.6129 -0.7999 -0.0446
   25SAPC   H7X 3353   1.354   4.602   7.280  1.3586 -0.5663 -0.9031
   25SAPC   H7Y 3354   1.497   4.515   7.255  0.1276 -0.1305 -1.3905
   25SAPC   C38 3355   1.378   4.442   7.431  0.2326  0.3551  0.1992
   25SAPC   H8X 3356   1.430   4.344   7.427  0.5280  0.5309 -0.5150
   25SAPC   H8Y 3357   1.270   4.426   7.454  0.0045 -0.1989 -1.1622
   25SAPC   C39 3358   1.445   4.541   7.532 -0.0079 -0.0502  0.4379
   25SAPC   H9X 3359   1.367   4.616   7.555  0.1616 -0.0902  1.1692
   25SAPC   H9Y 3360   1.524   4.597   7.478 -1.2585 -1.0662 -2.6964
   25SAPC  C310 3361   1.512   4.482   7.662 -0.0535 -0.5382  0.1163
   25SAPC  H10X 3362   1.557   4.568   7.716 -0.4749 -0.7536  0.8100
   25SAPC  H10Y 3363   1.600   4.423   7.630  1.4593  1.3205  0.6738
   25SAPC  C311 3364   1.416   4.408   7.746  0.5925  0.1919 -1.1241
   25SAPC  H11X 3365   1.376   4.312   7.705 -0.2936 -0.4678  1.1382
   25SAPC  H11Y 3366   1.319   4.463   7.749  0.1446 -0.5310 -1.8102
   25SAPC  C312 3367   1.473   4.387   7.888 -0.5951 -0.5804  1.0529
   25SAPC  H12X 3368   1.580   4.359   7.877 -1.0140 -2.0938  0.5798
   25SAPC  H12Y 3369   1.421   4.297   7.929 -1.3802 -0.4776  0.3096
   25SAPC  C313 3370   1.455   4.500   7.984  0.3175 -0.1191 -0.7007
   25SAPC  H13X 3371   1.345   4.503   7.996  0.4893 -0.2547  1.1659
   25SAPC  H13Y 3372   1.487   4.600   7.948  0.8416  1.5232  3.7631
   25SAPC  C314 3373   1.523   4.464   8.118  0.0734 -0.3594 -0.1362
   25SAPC  H14X 3374   1.633   4.483   8.115  0.3577 -1.8497 -0.3752
   25SAPC  H14Y 3375   1.511   4.354   8.133  0.9612 -0.2420  1.7258
   25SAPC  C315 3376   1.451   4.544   8.232 -0.7431  0.0541 -0.7868
   25SAPC  H15X 3377   1.347   4.567   8.201 -0.4576  0.7216 -1.2923
   25SAPC  H15Y 3378   1.503   4.643   8.237  1.2297 -0.9240 -0.7594
   25SAPC  C316 3379   1.456   4.480   8.377 -0.2091 -0.3866 -0.2917
   25SAPC  H16X 3380   1.387   4.393   8.372 -0.7038  0.0819 -3.1135
   25SAPC  H16Y 3381   1.409   4.559   8.440 -0.2562 -0.9841  0.4382
   25SAPC  C317 3382   1.592   4.437   8.433 -0.6545  0.3230 -0.0669
   25SAPC  H17X 3383   1.637   4.353   8.377 -1.4324  1.3143 -2.3199
   25SAPC  H17Y 3384   1.568   4.395   8.533 -2.2616 -0.8479 -0.8901
   25SAPC  C318 3385   1.694   4.550   8.466 -0.1802 -0.3653  0.7100
   25SAPC  H18X 3386   1.643   4.637   8.512  1.0764  0.6168  0.3054
   25SAPC  H18Y 3387   1.753   4.577   8.376 -0.9188 -0.9981  0.0192
   25SAPC  H18Z 3388   1.760   4.503   8.542 -0.6035 -2.2119 -0.0044
   26SAPC     N 3389   0.460   5.625   6.074 -0.6855  0.8914  0.2713
   26SAPC   C12 3390   0.461   5.571   6.218 -0.8473 -0.3678  0.2945
   26SAPC  H12A 3391   0.551   5.599   6.271  0.3881 -2.5866 -0.4924
   26SAPC  H12B 3392   0.467   5.464   6.206  1.9293 -0.0222 -2.4052
   26SAPC   C13 3393   0.606   5.622   6.021 -1.0488  0.0399  0.2142
   26SAPC  H13A 3394   0.608   5.659   5.920 -2.1063  0.7705  0.4420
   26SAPC  H13B 3395   0.672   5.684   6.080 -3.7744  0.9652  2.5435
   26SAPC  H13C 3396   0.644   5.521   6.026 -1.7772 -0.2321  0.3762
   26SAPC   C14 3397   0.383   5.533   5.983  0.3838 -0.2447 -0.9743
   26SAPC  H14A 3398   0.389   5.559   5.879 -2.2232  0.4218 -1.0177
   26SAPC  H14B 3399   0.416   5.432   6.004  0.6006  0.2204  1.2533
   26SAPC  H14C 3400   0.278   5.549   6.004  0.0015 -2.1360 -1.3044
   26SAPC   C15 3401   0.406   5.766   6.065 -0.2470 -0.1673 -0.1976
   26SAPC  H15A 3402   0.458   5.829   5.994  1.9498  1.4425  2.6513
   26SAPC  H15B 3403   0.308   5.762   6.019  0.0036 -5.3635 -0.8618
   26SAPC  H15C 3404   0.412   5.822   6.157  0.3728  1.3662 -1.1334
   26SAPC   C11 3405   0.336   5.610   6.294 -0.2073 -0.3080 -0.1092
   26SAPC  H11A 3406   0.330   5.721   6.300  0.5879 -0.0463 -2.9254
   26SAPC  H11B 3407   0.342   5.566   6.395 -0.2492 -0.3033 -0.1048
   26SAPC     P 3408   0.157   5.418   6.251  0.2743  0.0424 -0.3282
   26SAPC   O13 3409   0.016   5.420   6.205 -0.2252  0.1252  0.6552
   26SAPC   O14 3410   0.245   5.327   6.181  0.7672  0.6557 -0.3545
   26SAPC   O12 3411   0.214   5.559   6.233 -0.0019  0.2009 -0.1455
   26SAPC   O11 3412   0.169   5.395   6.407 -0.0986  0.2027 -0.2438
   26SAPC    C1 3413   0.054   5.408   6.492 -0.6273  0.7767  0.2302
   26SAPC    HA 3414  -0.044   5.383   6.445 -0.8945  1.2094  0.5486
   26SAPC    HB 3415   0.065   5.346   6.583 -1.3561 -0.6204 -0.5972
   26SAPC    C2 3416   0.057   5.552   6.555  0.5880 -0.1391  0.1108
   26SAPC    HS 3417   0.044   5.639   6.487 -0.5631 -1.5117 -1.4923
   26SAPC   O21 3418   0.179   5.562   6.634  0.2284  0.0071  0.5947
   26SAPC   C21 3419   0.218   5.684   6.672 -0.2398  1.2050 -0.6028
   26SAPC   O22 3420   0.166   5.785   6.638 -0.0140 -0.4372 -0.1817
   26SAPC   C22 3421   0.344   5.677   6.767  0.4189 -0.0471 -0.2197
   26SAPC   H2R 3422   0.348   5.577   6.817 -0.7391 -1.0524 -2.0319
   26SAPC   H2S 3423   0.433   5.692   6.703 -1.3025  1.7769 -2.3341
   26SAPC    C3 3424  -0.063   5.571   6.655  0.3711  0.5717 -0.0679
   26SAPC    HX 3425  -0.155   5.572   6.592 -0.0141  0.1575  0.4798
   26SAPC    HY 3426  -0.057   5.670   6.705 -1.8368  0.3157  0.7972
   26SAPC   O31 3427  -0.081   5.464   6.754  0.1378 -0.3114  0.6067
   26SAPC   C31 3428  -0.157   5.497   6.857  0.1200 -0.3498  0.1133
   26SAPC   O32 3429  -0.217   5.608   6.866 -0.1569  0.5899 -0.1729
   26SAPC   C32 3430  -0.158   5.386   6.961 -0.3477  0.2023  0.5667
   26SAPC   H2X 3431  -0.066   5.327   6.940 -0.7404  0.4824 -2.3409
   26SAPC   H2Y 3432  -0.241   5.318   6.933  0.4654 -0.2877 -0.7189
   26SAPC   C23 3433   0.323   5.780   6.872 -0.1374  0.3893 -0.9458
   26SAPC   H3R 3434   0.359   5.883   6.851 -3.5585  1.6756 -1.1495
   26SAPC   H3S 3435   0.395   5.747   6.950 -2.3107 -2.2572  0.0963
   26SAPC   C24 3436   0.187   5.789   6.941  0.0925 -0.4320  0.3914
   26SAPC   H4R 3437   0.107   5.826   6.873 -0.7020  0.7827  1.9339
   26SAPC   H4S 3438   0.201   5.861   7.024  0.1043  0.4086 -0.3334
   26SAPC   C25 3439   0.149   5.653   6.990  0.1581  0.4388  0.8935
   26SAPC   H5R 3440   0.101   5.582   6.921 -0.2087  1.9978 -0.5262
   26SAPC   C26 3441   0.180   5.608   7.109 -0.2063  0.4946 -0.5739
   26SAPC   H6R 3442   0.143   5.508   7.136  0.9645 -0.8660 -3.6262
   26SAPC   C27 3443   0.251   5.693   7.212 -0.0949 -0.6099  0.6286
   26SAPC   H7R 3444   0.172   5.755   7.260  0.7054 -0.0052  1.1848
   26SAPC   H7S 3445   0.321   5.767   7.167 -0.4858 -1.0195 -0.7125
   26SAPC   C28 3446   0.328   5.613   7.313  0.5709 -0.5312 -0.2250
   26SAPC   H8R 3447   0.387   5.534   7.266  1.2424 -1.1850  1.6142
   26SAPC   C29 3448   0.331   5.628   7.447  0.3410  0.3413  0.1558
   26SAPC   H9R 3449   0.405   5.569   7.503 -1.6259 -0.1628  2.4151
   26SAPC  C210 3450   0.255   5.733   7.525  0.4936 -0.1071  0.0112
   26SAPC  H10R 3451   0.207   5.814   7.467  1.1572  0.5509  0.3737
   26SAPC  H10S 3452   0.322   5.782   7.598 -0.3934  0.1731  0.6549
   26SAPC  C211 3453   0.150   5.646   7.598 -0.3872  0.3842  0.1979
   26SAPC  H11R 3454   0.056   5.621   7.547 -1.6076  1.1571  1.9579
   26SAPC  C212 3455   0.169   5.599   7.722  0.2427 -0.0511  0.4759
   26SAPC  H12R 3456   0.078   5.551   7.762 -0.7655 -0.2938 -1.9202
   26SAPC  C213 3457   0.288   5.623   7.812 -0.4080  0.0107  0.1057
   26SAPC  H13R 3458   0.388   5.608   7.766  0.0748  2.3246  0.2685
   26SAPC  H13S 3459   0.274   5.551   7.895  0.2627 -0.5943 -0.2989
   26SAPC  C214 3460   0.286   5.767   7.864 -0.6010  1.0379  0.6073
   26SAPC  H14R 3461   0.224   5.835   7.804  0.0043 -0.0104 -1.2880
   26SAPC  C215 3462   0.347   5.822   7.965 -0.5934  0.4625 -0.2863
   26SAPC  H15R 3463   0.340   5.931   7.978 -2.4022  0.2485  0.9443
   26SAPC  C216 3464   0.441   5.758   8.061  1.0321  0.5842 -0.2503
   26SAPC  H16R 3465   0.524   5.830   8.080 -0.5345  2.2885  0.4154
   26SAPC  H16S 3466   0.483   5.674   8.001  1.0582  1.1443 -1.0331
   26SAPC  C217 3467   0.396   5.701   8.198  0.0489 -0.3159 -1.0653
   26SAPC  H17R 3468   0.492   5.667   8.243  0.5613  0.9988 -1.1225
   26SAPC  H17S 3469   0.326   5.617   8.180 -1.8558  1.0014 -0.1602
   26SAPC  C218 3470   0.333   5.805   8.289 -0.2753  0.4403 -0.2277
   26SAPC  H18R 3471   0.226   5.813   8.263 -0.4330 -2.8191 -0.9985
   26SAPC  H18S 3472   0.396   5.893   8.265  2.0455 -1.9215 -3.8563
   26SAPC  C219 3473   0.336   5.764   8.432 -0.1260 -0.1393 -0.6972
   26SAPC  H19R 3474   0.299   5.840   8.503  2.2690 -2.1391  3.0452
   26SAPC  H19S 3475   0.442   5.744   8.459 -0.9179 -2.2322  1.2195
   26SAPC  C220 3476   0.253   5.638   8.455 -0.4364 -0.6032 -0.5545
   26SAPC  H20R 3477   0.307   5.553   8.408 -0.0371 -0.7232  0.1149
   26SAPC  H20S 3478   0.145   5.636   8.433 -0.6989  0.6078  0.4901
   26SAPC  H20T 3479   0.255   5.597   8.558  3.7569 -3.8109 -1.6109
   26SAPC   C33 3480  -0.144   5.436   7.106  0.4504 -0.2142  0.1630
   26SAPC   H3X 3481  -0.079   5.526   7.116  0.1611 -0.0808  0.9044
   26SAPC   H3Y 3482  -0.097   5.353   7.162  0.5170 -0.3418 -0.0836
   26SAPC   C34 3483  -0.287   5.460   7.149  0.1780 -0.4379 -0.0659
   26SAPC   H4X 3484  -0.356   5.373   7.154  2.0667 -1.9453  2.1598
   26SAPC   H4Y 3485  -0.323   5.538   7.079  1.2817 -0.0098 -0.1789
   26SAPC   C35 3486  -0.298   5.529   7.280 -0.1238 -0.5150 -0.1940
   26SAPC   H5X 3487  -0.402   5.565   7.296  0.1074  0.0667  0.0602
   26SAPC   H5Y 3488  -0.226   5.613   7.266 -0.8311  0.0590 -0.4996
   26SAPC   C36 3489  -0.241   5.454   7.407 -0.4387  0.4079 -0.1517
   26SAPC   H6X 3490  -0.141   5.409   7.387 -0.7691 -1.2559  1.6896
   26SAPC   H6Y 3491  -0.301   5.361   7.419 -0.8421  0.9735  2.9709
   26SAPC   C37 3492  -0.249   5.548   7.525 -0.0512  0.2154  0.1637
   26SAPC   H7X 3493  -0.355   5.579   7.537  0.1408  0.5467  1.1571
   26SAPC   H7Y 3494  -0.186   5.634   7.493  0.6021 -0.5114 -0.5237
   26SAPC   C38 3495  -0.205   5.490   7.666  0.1131  0.0611  0.2281
   26SAPC   H8X 3496  -0.105   5.442   7.672  0.0002 -0.3443 -0.9238
   26SAPC   H8Y 3497  -0.271   5.401   7.674  0.7098 -0.3182  1.1200
   26SAPC   C39 3498  -0.226   5.587   7.782  0.9483  0.4311  0.6508
   26SAPC   H9X 3499  -0.317   5.647   7.761  1.6988  1.4104  0.1091
   26SAPC   H9Y 3500  -0.147   5.665   7.792  0.9888  0.2942  1.4611
   26SAPC  C310 3501  -0.246   5.538   7.924  0.7457 -0.0098 -0.5910
   26SAPC  H10X 3502  -0.148   5.508   7.968  0.2347 -0.7148  0.0760
   26SAPC  H10Y 3503  -0.309   5.447   7.927  1.0954 -0.2806 -1.1153
   26SAPC  C311 3504  -0.295   5.660   8.005 -0.4650  0.0467  0.2268
   26SAPC  H11X 3505  -0.404   5.672   7.989 -0.5697 -0.1332  0.7950
   26SAPC  H11Y 3506  -0.236   5.747   7.968  0.7509 -1.3869 -1.3719
   26SAPC  C312 3507  -0.279   5.626   8.160  0.0723 -0.1907  0.5923
   26SAPC  H12X 3508  -0.172   5.596   8.162  0.1343  0.0690  1.3746
   26SAPC  H12Y 3509  -0.344   5.536   8.170 -2.2924  1.2720 -0.5430
   26SAPC  C313 3510  -0.323   5.737   8.256  0.3163  0.5601  0.3949
   26SAPC  H13X 3511  -0.428   5.761   8.232  0.4955 -1.1657 -2.6878
   26SAPC  H13Y 3512  -0.252   5.819   8.235  0.7940 -0.1240 -0.7675
   26SAPC  C314 3513  -0.316   5.711   8.409  0.0634  0.9889 -0.3739
   26SAPC  H14X 3514  -0.357   5.613   8.443 -0.5658  1.5743  0.5694
   26SAPC  H14Y 3515  -0.367   5.791   8.465 -0.6422 -0.1112  0.6004
   26SAPC  C315 3516  -0.164   5.694   8.438  0.4131 -1.1457  0.1158
   26SAPC  H15X 3517  -0.103   5.776   8.394 -1.8609  0.3485 -0.3927
   26SAPC  H15Y 3518  -0.128   5.597   8.397  1.5178 -0.2400 -1.1450
   26SAPC  C316 3519  -0.145   5.686   8.591  0.2375  1.1544  0.3870
   26SAPC  H16X 3520  -0.054   5.627   8.618 -1.0007 -1.7915 -1.4784
   26SAPC  H16Y 3521  -0.230   5.625   8.627  0.5574 -0.0138 -0.7546
   26SAPC  C317 3522  -0.132   5.817   8.667  0.2546 -0.1715 -0.3450
   26SAPC  H17X 3523  -0.120   5.792   8.775  1.2404  0.7315 -0.2231
   26SAPC  H17Y 3524  -0.228   5.870   8.655  0.3218  0.2093  0.6729
   26SAPC  C318 3525  -0.025   5.910   8.603 -0.0637  0.3803 -0.1255
   26SAPC  H18X 3526  -0.030   6.003   8.663 -0.9773  0.5780 -0.4981
   26SAPC  H18Y 3527  -0.053   5.928   8.497  0.8346 -1.6065 -0.7557
   26SAPC  H18Z 3528   0.074   5.861   8.620 -0.3110 -1.8750 -3.9765
   27SAPC     N 3529   4.773   0.256   6.307 -1.0464 -0.2526  0.0958
   27SAPC   C12 3530   4.676   0.170   6.386  0.3157 -0.3532 -0.1791
   27SAPC  H12A 3531   4.722   0.075   6.404  2.2792  0.5728 -0.1025
   27SAPC  H12B 3532   4.580   0.163   6.335 -0.4456 -1.0057  1.2865
   27SAPC   C13 3533   4.768   0.199   6.162  0.2157  0.0382 -0.3051
   27SAPC  H13A 3534   4.668   0.202   6.122 -0.3789 -0.1947  1.1163
   27SAPC  H13B 3535   4.836   0.250   6.095  1.2003 -0.5962  0.1893
   27SAPC  H13C 3536   4.805   0.098   6.168  0.3456  0.0843 -0.3287
   27SAPC   C14 3537   4.709   0.394   6.299  0.0508 -0.4960 -0.0043
   27SAPC  H14A 3538   4.776   0.458   6.245 -0.4148 -1.5570 -1.9397
   27SAPC  H14B 3539   4.609   0.391   6.257  0.7626  0.1460 -1.8462
   27SAPC  H14C 3540   4.693   0.438   6.396 -1.3030  0.3896 -0.5995
   27SAPC   C15 3541   4.913   0.247   6.364  0.4443 -0.2997 -0.1529
   27SAPC  H15A 3542   4.971   0.330   6.329 -1.4819  1.5849  0.8870
   27SAPC  H15B 3543   4.909   0.262   6.471 -1.2607  2.2144 -0.4902
   27SAPC  H15C 3544   4.950   0.147   6.347  0.5055 -0.3527  0.2894
   27SAPC   C11 3545   4.639   0.219   6.534  0.3476  0.4911 -0.3509
   27SAPC  H11A 3546   4.574   0.142   6.578  0.8680  0.4615  0.3871
   27SAPC  H11B 3547   4.578   0.313   6.533  0.4853  0.6059  0.8834
   27SAPC     P 3548   4.763   0.327   6.739  0.1503  0.2098 -0.0787
   27SAPC   O13 3549   4.803   0.258   6.859 -0.7162 -0.4850 -0.3887
   27SAPC   O14 3550   4.855   0.439   6.706  0.4807  0.8428 -0.2515
   27SAPC   O12 3551   4.759   0.230   6.616  0.2730 -0.2268  0.0014
   27SAPC   O11 3552   4.613   0.372   6.748 -0.3864  0.4395 -0.0228
   27SAPC    C1 3553   4.563   0.425   6.867  0.1833 -0.2093  0.0123
   27SAPC    HA 3554   4.468   0.376   6.898 -0.8280  1.4088 -0.4090
   27SAPC    HB 3555   4.634   0.418   6.952 -1.0123 -1.2266  0.9759
   27SAPC    C2 3556   4.521   0.576   6.843 -0.6257 -0.0221  0.3285
   27SAPC    HS 3557   4.602   0.629   6.789 -0.5721 -1.0701 -0.6635
   27SAPC   O21 3558   4.486   0.636   6.970  0.0822 -0.1860 -0.5009
   27SAPC   C21 3559   4.577   0.647   7.063  0.5501  0.8425  0.4748
   27SAPC   O22 3560   4.694   0.632   7.045  0.2969 -0.1053 -0.2622
   27SAPC   C22 3561   4.509   0.679   7.197  0.2286 -0.3680 -0.3958
   27SAPC   H2R 3562   4.555   0.775   7.229  1.7008 -1.1588 -0.0571
   27SAPC   H2S 3563   4.401   0.694   7.175  0.4699 -0.9643 -2.1607
   27SAPC    C3 3564   4.399   0.573   6.745 -0.3675  0.4079  0.7713
   27SAPC    HX 3565   4.440   0.541   6.646 -1.5927  0.0787  0.3501
   27SAPC    HY 3566   4.359   0.676   6.727  1.7563  1.2866  0.7568
   27SAPC   O31 3567   4.302   0.477   6.783  0.5460 -0.9311  0.2035
   27SAPC   C31 3568   4.214   0.520   6.873 -0.3123  0.5443  0.4861
   27SAPC   O32 3569   4.200   0.633   6.909  0.5929 -0.5789 -0.0790
   27SAPC   C32 3570   4.116   0.412   6.909 -0.0746 -0.1923 -0.0362
   27SAPC   H2X 3571   4.057   0.389   6.818 -1.7512 -0.4425  1.0682
   27SAPC   H2Y 3572   4.060   0.455   6.995 -0.7456 -2.1032  0.5197
   27SAPC   C23 3573   4.539   0.570   7.302 -0.5465 -0.2772  0.5209
   27SAPC   H3R 3574   4.648   0.556   7.290 -0.9544 -1.5608 -3.1296
   27SAPC   H3S 3575   4.489   0.479   7.263  0.3009 -0.4041 -0.2989
   27SAPC   C24 3576   4.504   0.598   7.445  0.1285  0.2640 -0.2451
   27SAPC   H4R 3577   4.563   0.688   7.470  0.1614 -0.1713  1.3203
   27SAPC   H4S 3578   4.556   0.532   7.517 -0.0697  2.1375  1.6956
   27SAPC   C25 3579   4.351   0.605   7.455 -0.0630  0.2179 -0.3917
   27SAPC   H5R 3580   4.298   0.678   7.393 -2.3193  0.1150  1.2914
   27SAPC   C26 3581   4.281   0.515   7.526  0.4763 -0.3773  0.4415
   27SAPC   H6R 3582   4.177   0.538   7.551  0.7755 -0.6888  2.1001
   27SAPC   C27 3583   4.330   0.395   7.604  0.6080 -0.1444  0.3196
   27SAPC   H7R 3584   4.371   0.327   7.526  0.0091 -0.0308 -0.1042
   27SAPC   H7S 3585   4.241   0.335   7.634  1.0273 -1.2319 -0.5161
   27SAPC   C28 3586   4.419   0.413   7.724  0.2334 -1.1782  0.2805
   27SAPC   H8R 3587   4.527   0.405   7.708  0.4633  0.2542  0.9628
   27SAPC   C29 3588   4.372   0.439   7.848 -0.0369  1.0747  0.1540
   27SAPC   H9R 3589   4.446   0.442   7.929 -0.5306 -5.5289  1.4511
   27SAPC  C210 3590   4.226   0.450   7.894 -0.3766  0.0159 -0.5546
   27SAPC  H10R 3591   4.166   0.512   7.824  1.0278  0.6002 -1.2790
   27SAPC  H10S 3592   4.230   0.504   7.991  2.3248 -1.9439  0.5642
   27SAPC  C211 3593   4.177   0.305   7.914  0.5507  0.2052 -0.0073
   27SAPC  H11R 3594   4.174   0.237   7.827  1.1727 -0.7981  0.7398
   27SAPC  C212 3595   4.124   0.264   8.030 -0.0815  0.3960 -0.4130
   27SAPC  H12R 3596   4.099   0.158   8.042  1.3192  0.0154 -0.6207
   27SAPC  C213 3597   4.119   0.345   8.161  0.3346  0.4459 -0.2064
   27SAPC  H13R 3598   4.062   0.436   8.134 -0.0947 -0.4137 -2.3415
   27SAPC  H13S 3599   4.219   0.382   8.192 -0.5351  1.8186  1.1227
   27SAPC  C214 3600   4.068   0.271   8.287 -0.0146 -0.6923 -0.3058
   27SAPC  H14R 3601   4.048   0.166   8.262 -0.6140 -1.6297  3.5031
   27SAPC  C215 3602   4.023   0.323   8.406 -0.4012  1.1592  0.1152
   27SAPC  H15R 3603   3.995   0.248   8.482  0.8857  1.9296  1.3933
   27SAPC  C216 3604   4.018   0.472   8.442 -0.0918 -0.0613 -0.0091
   27SAPC  H16R 3605   3.910   0.495   8.459 -0.4354 -0.2489 -1.7089
   27SAPC  H16S 3606   4.038   0.529   8.349 -1.0570 -0.5578 -0.5385
   27SAPC  C217 3607   4.105   0.514   8.565  0.3142  0.4728 -0.3769
   27SAPC  H17R 3608   4.213   0.513   8.540  1.0794  0.5223  2.5187
   27SAPC  H17S 3609   4.106   0.432   8.640  1.6877  0.8806  0.0703
   27SAPC  C218 3610   4.052   0.648   8.613 -0.3726  0.1163 -0.3162
   27SAPC  H18R 3611   3.942   0.629   8.621 -0.2357 -0.6793 -0.1714
   27SAPC  H18S 3612   4.069   0.720   8.530  2.5157 -2.3828 -2.1021
   27SAPC  C219 3613   4.117   0.686   8.749 -0.3535  0.3926 -0.2721
   27SAPC  H19R 3614   4.226   0.685   8.728 -0.0329  0.9340  1.2132
   27SAPC  H19S 3615   4.096   0.611   8.829 -0.1304 -0.5714 -1.0970
   27SAPC  C220 3616   4.076   0.824   8.801  0.3684 -0.1217  0.1512
   27SAPC  H20R 3617   3.967   0.838   8.812  0.4012  1.3790 -1.0470
   27SAPC  H20S 3618   4.113   0.898   8.727 -1.6345  0.6501 -0.1227
   27SAPC  H20T 3619   4.122   0.839   8.902  1.1785 -1.1956 -0.0407
   27SAPC   C33 3620   4.188   0.293   6.961 -0.6386  0.9075 -0.4864
   27SAPC   H3X 3621   4.272   0.256   6.899 -0.0588 -0.2307  0.9299
   27SAPC   H3Y 3622   4.123   0.203   6.970  0.6137 -0.0818 -1.1172
   27SAPC   C34 3623   4.260   0.316   7.098  0.1872  0.1367 -0.2804
   27SAPC   H4X 3624   4.193   0.361   7.174  1.0861 -0.9361  1.2046
   27SAPC   H4Y 3625   4.329   0.402   7.085 -1.5732  1.2613 -2.8754
   27SAPC   C35 3626   4.312   0.191   7.166  0.0183  0.3098 -0.0540
   27SAPC   H5X 3627   4.248   0.102   7.148  1.7908 -0.9005 -0.6920
   27SAPC   H5Y 3628   4.289   0.202   7.275  0.8243  1.0958  0.0535
   27SAPC   C36 3629   4.456   0.153   7.138 -0.0051  0.4027  0.3895
   27SAPC   H6X 3630   4.516   0.241   7.169 -1.7749  2.0918 -0.7415
   27SAPC   H6Y 3631   4.477   0.150   7.029  4.4673 -3.7855  1.0240
   27SAPC   C37 3632   4.499   0.018   7.202 -0.9281 -1.0764 -0.0294
   27SAPC   H7X 3633   4.601  -0.015   7.174 -0.3045  0.4474  0.3572
   27SAPC   H7Y 3634   4.435  -0.065   7.165 -1.3279 -0.7513 -0.0736
   27SAPC   C38 3635   4.501   0.039   7.357  1.4699 -0.4792  0.0797
   27SAPC   H8X 3636   4.397   0.066   7.382  0.8119 -2.8802  0.1908
   27SAPC   H8Y 3637   4.559   0.128   7.387 -0.7408  0.7170  1.0116
   27SAPC   C39 3638   4.532  -0.087   7.435 -0.0500  0.3523  0.1629
   27SAPC   H9X 3639   4.621  -0.065   7.498 -0.1417 -0.7553  0.7013
   27SAPC   H9Y 3640   4.567  -0.155   7.355  1.3827  0.6020  0.5398
   27SAPC  C310 3641   4.407  -0.146   7.509 -0.3381 -0.1821 -0.1411
   27SAPC  H10X 3642   4.436  -0.244   7.553  2.9944  1.7841  2.5276
   27SAPC  H10Y 3643   4.318  -0.169   7.447  0.2642 -0.1940 -1.0185
   27SAPC  C311 3644   4.365  -0.052   7.627 -0.2498 -0.2504 -0.0965
   27SAPC  H11X 3645   4.328   0.043   7.583  1.4918  0.5126 -0.0172
   27SAPC  H11Y 3646   4.452  -0.048   7.696 -2.0529 -1.1166  2.3416
   27SAPC  C312 3647   4.239  -0.108   7.694  0.1786 -0.2906 -0.4494
   27SAPC  H12X 3648   4.153  -0.094   7.625 -2.2741  1.0008  2.6252
   27SAPC  H12Y 3649   4.224  -0.035   7.776  0.5868 -0.2363 -0.4183
   27SAPC  C313 3650   4.249  -0.253   7.753 -1.2685  0.0332 -0.0020
   27SAPC  H13X 3651   4.256  -0.326   7.670  0.0000  0.3529 -0.1926
   27SAPC  H13Y 3652   4.164  -0.282   7.818 -1.1471 -0.1196  0.0879
   27SAPC  C314 3653   4.381  -0.269   7.841 -0.1216 -0.3231 -0.0600
   27SAPC  H14X 3654   4.370  -0.186   7.914 -1.7665 -0.7167  0.1860
   27SAPC  H14Y 3655   4.472  -0.254   7.780 -1.2884  0.6728 -1.6117
   27SAPC  C315 3656   4.383  -0.409   7.914  0.8714  0.1475  0.5649
   27SAPC  H15X 3657   4.376  -0.486   7.834 -1.6330  0.5377  0.3207
   27SAPC  H15Y 3658   4.298  -0.394   7.984  0.7150  3.6856 -0.2232
   27SAPC  C316 3659   4.500  -0.425   8.000  0.0353 -0.1464  0.0604
   27SAPC  H16X 3660   4.496  -0.353   8.083  0.0317 -0.4207  0.3007
   27SAPC  H16Y 3661   4.593  -0.397   7.946 -0.4483  2.5689  0.4975
   27SAPC  C317 3662   4.514  -0.570   8.050  0.7526  0.6282  0.2766
   27SAPC  H17X 3663   4.422  -0.599   8.105  0.2383 -2.1290 -1.7908
   27SAPC  H17Y 3664   4.609  -0.569   8.107  2.2890 -0.7280 -2.0978
   27SAPC  C318 3665   4.545  -0.681   7.950  0.2935 -0.7502 -0.5457
   27SAPC  H18X 3666   4.456  -0.702   7.886  0.1771  1.8422 -1.3687
   27SAPC  H18Y 3667   4.586  -0.770   8.002  5.7684  0.0469 -2.7419
   27SAPC  H18Z 3668   4.630  -0.643   7.889 -0.0457 -1.1872 -1.3157
   28SAPC     N 3669   4.001   3.385   6.378 -0.7838  0.1185  0.4477
   28SAPC   C12 3670   3.952   3.510   6.311  0.5632 -0.3316 -0.1903
   28SAPC  H12A 3671   3.957   3.595   6.377  1.1042 -1.0167  0.6892
   28SAPC  H12B 3672   3.846   3.494   6.299  0.0625  1.6353  1.0612
   28SAPC   C13 3673   3.926   3.360   6.505 -0.0779  0.2414  0.3571
   28SAPC  H13A 3674   3.821   3.371   6.486 -0.2541  1.1483  1.7466
   28SAPC  H13B 3675   3.953   3.262   6.539  2.0894  0.0012 -1.7738
   28SAPC  H13C 3676   3.962   3.421   6.587  0.3649  0.0844  0.2817
   28SAPC   C14 3677   3.973   3.264   6.290 -0.1053 -0.5080  0.0708
   28SAPC  H14A 3678   4.045   3.254   6.210  1.0973 -2.6868  1.3279
   28SAPC  H14B 3679   3.979   3.174   6.350  1.0667 -0.4653  0.0471
   28SAPC  H14C 3680   3.879   3.269   6.238  0.5645 -0.9304 -1.2242
   28SAPC   C15 3681   4.147   3.395   6.404  0.1665  0.5742  0.6931
   28SAPC  H15A 3682   4.200   3.444   6.324  2.0666 -1.3275  0.7016
   28SAPC  H15B 3683   4.163   3.464   6.486 -0.9746 -0.3809  1.7681
   28SAPC  H15C 3684   4.204   3.305   6.424 -0.2059 -0.2331 -1.6525
   28SAPC   C11 3685   4.014   3.555   6.174  0.4779 -0.0833 -0.6325
   28SAPC  H11A 3686   3.955   3.642   6.137 -0.0434 -0.1193  0.1112
   28SAPC  H11B 3687   3.994   3.467   6.110  0.1637  0.5888 -1.4808
   28SAPC     P 3688   4.223   3.698   6.248  0.2956  0.2643 -0.2402
   28SAPC   O13 3689   4.364   3.666   6.272 -0.1241  0.2879 -0.2335
   28SAPC   O14 3690   4.197   3.816   6.165  0.1456 -0.1171 -0.1036
   28SAPC   O12 3691   4.152   3.572   6.178  0.2624  0.4943  0.7870
   28SAPC   O11 3692   4.151   3.729   6.383  0.1384  0.1696 -0.2107
   28SAPC    C1 3693   4.209   3.839   6.453 -0.0811  0.5575  0.6664
   28SAPC    HA 3694   4.319   3.839   6.466 -0.0509  0.1737  0.4127
   28SAPC    HB 3695   4.186   3.932   6.396  0.7875  0.6009  0.3751
   28SAPC    C2 3696   4.134   3.859   6.593 -0.2070  0.0563 -0.2913
   28SAPC    HS 3697   4.171   3.954   6.637  3.1527 -1.8448  1.4607
   28SAPC   O21 3698   4.158   3.750   6.685 -0.2982  0.1351  1.0553
   28SAPC   C21 3699   4.284   3.760   6.737  0.0787  0.3862 -0.5604
   28SAPC   O22 3700   4.350   3.859   6.722 -0.1252 -0.6672 -0.3265
   28SAPC   C22 3701   4.305   3.633   6.832  0.2967 -0.4674  0.3045
   28SAPC   H2R 3702   4.275   3.551   6.763 -1.1400  2.1332 -2.4026
   28SAPC   H2S 3703   4.413   3.623   6.855  0.3045 -1.1454 -0.0052
   28SAPC    C3 3704   3.979   3.853   6.579 -0.1781 -0.2899  0.3775
   28SAPC    HX 3705   3.956   3.752   6.540 -0.4884 -0.3651  0.7490
   28SAPC    HY 3706   3.944   3.922   6.499  2.1113  0.8673  0.2984
   28SAPC   O31 3707   3.907   3.869   6.704 -0.6371  0.9826  0.0737
   28SAPC   C31 3708   3.920   3.985   6.762  0.5372  0.2181 -0.0723
   28SAPC   O32 3709   3.971   4.084   6.714 -0.0431 -0.2162 -0.2289
   28SAPC   C32 3710   3.867   3.967   6.906  0.1260 -0.3566  0.0444
   28SAPC   H2X 3711   3.958   3.962   6.969  0.2177  0.7087  0.0269
   28SAPC   H2Y 3712   3.811   3.872   6.901 -0.1708 -0.3034  1.7343
   28SAPC   C23 3713   4.207   3.620   6.951 -0.2885 -0.2637 -0.0990
   28SAPC   H3R 3714   4.194   3.511   6.963  3.3579 -1.0611 -1.9134
   28SAPC   H3S 3715   4.102   3.649   6.927 -0.5497  0.2314  1.5197
   28SAPC   C24 3716   4.252   3.692   7.075  0.3812  0.1306 -0.3805
   28SAPC   H4R 3717   4.162   3.683   7.139  0.5681 -1.0058 -0.2593
   28SAPC   H4S 3718   4.334   3.646   7.133 -0.3038  0.3178  0.7821
   28SAPC   C25 3719   4.280   3.840   7.051 -0.5192  0.0357 -0.2768
   28SAPC   H5R 3720   4.198   3.889   6.997  0.7262  0.1802 -2.1448
   28SAPC   C26 3721   4.389   3.906   7.085 -0.7229  0.8134  0.7405
   28SAPC   H6R 3722   4.380   4.014   7.069 -0.4073  0.4206 -3.0297
   28SAPC   C27 3723   4.515   3.846   7.147  0.8163  0.3614  0.8062
   28SAPC   H7R 3724   4.566   3.775   7.078  1.2727  3.2509 -2.0871
   28SAPC   H7S 3725   4.494   3.780   7.234 -0.8105 -0.0017  0.1748
   28SAPC   C28 3726   4.619   3.947   7.175 -0.4303 -0.5944  0.3855
   28SAPC   H8R 3727   4.682   3.978   7.091  0.5410  2.7944  2.1794
   28SAPC   C29 3728   4.640   4.007   7.295  0.1742 -0.1308  0.7404
   28SAPC   H9R 3729   4.734   4.058   7.319  0.3811  1.3563 -2.6528
   28SAPC  C210 3730   4.563   3.975   7.421 -0.0358 -0.0403  0.5853
   28SAPC  H10R 3731   4.454   3.955   7.407 -0.3970  1.4872  1.0720
   28SAPC  H10S 3732   4.573   4.064   7.486 -0.9990  1.2338 -0.9387
   28SAPC  C211 3733   4.620   3.843   7.481 -0.1090 -1.2281  0.6820
   28SAPC  H11R 3734   4.725   3.832   7.452  0.4973  1.3424  1.5664
   28SAPC  C212 3735   4.552   3.753   7.546  0.3066  0.0388 -0.2629
   28SAPC  H12R 3736   4.608   3.661   7.570 -1.8947 -0.4135  4.0863
   28SAPC  C213 3737   4.406   3.770   7.581 -0.4993 -0.2098  0.4034
   28SAPC  H13R 3738   4.339   3.783   7.493  0.7886  0.1264 -0.5547
   28SAPC  H13S 3739   4.389   3.868   7.631  0.5730  1.4518 -2.2582
   28SAPC  C214 3740   4.358   3.660   7.674 -1.0377  0.3539 -0.1150
   28SAPC  H14R 3741   4.376   3.678   7.781  3.2280 -1.6562 -0.2921
   28SAPC  C215 3742   4.311   3.539   7.625  0.7026 -0.0969 -0.3871
   28SAPC  H15R 3743   4.268   3.468   7.697  1.0891  0.0878  0.0345
   28SAPC  C216 3744   4.287   3.491   7.486 -0.1998  0.3231  0.5904
   28SAPC  H16R 3745   4.360   3.413   7.456 -1.9556 -0.7206 -1.2054
   28SAPC  H16S 3746   4.300   3.581   7.422 -0.8419  0.0631  0.0771
   28SAPC  C217 3747   4.141   3.446   7.460 -0.4646  0.2845  0.3225
   28SAPC  H17R 3748   4.072   3.518   7.509 -2.5842 -1.7026  0.3999
   28SAPC  H17S 3749   4.122   3.352   7.516 -1.0271  0.9945  1.3606
   28SAPC  C218 3750   4.118   3.431   7.309  0.2711 -0.3491 -0.3886
   28SAPC  H18R 3751   4.211   3.405   7.254 -0.5878 -0.1805 -1.9478
   28SAPC  H18S 3752   4.085   3.534   7.281  0.2752 -0.0548  0.6360
   28SAPC  C219 3753   4.012   3.335   7.283  0.0369 -0.2767 -0.7968
   28SAPC  H19R 3754   3.921   3.360   7.343  1.1006 -0.0241  0.7803
   28SAPC  H19S 3755   4.042   3.235   7.321  1.0974  0.8013  1.3927
   28SAPC  C220 3756   3.982   3.319   7.138  0.0793  0.9673 -0.1921
   28SAPC  H20R 3757   4.072   3.274   7.092 -0.2918  0.8306 -0.8042
   28SAPC  H20S 3758   3.981   3.422   7.095  0.5516  0.4235 -1.5479
   28SAPC  H20T 3759   3.889   3.261   7.118  0.8347 -0.9643  1.5656
   28SAPC   C33 3760   3.770   4.078   6.948 -0.3041 -0.3652  0.0264
   28SAPC   H3X 3761   3.711   4.106   6.858 -0.0406 -1.2131 -0.4157
   28SAPC   H3Y 3762   3.829   4.168   6.976 -1.2591  0.1732  0.3888
   28SAPC   C34 3763   3.665   4.024   7.054 -0.4430  0.5742 -0.0287
   28SAPC   H4X 3764   3.722   3.961   7.126 -0.6428  0.8829  0.4087
   28SAPC   H4Y 3765   3.602   3.956   6.993  2.0345 -0.3817 -1.6809
   28SAPC   C35 3766   3.572   4.131   7.120 -0.4850  0.6881 -0.7046
   28SAPC   H5X 3767   3.484   4.083   7.168 -0.2569  1.1772  0.2147
   28SAPC   H5Y 3768   3.526   4.192   7.039 -0.8822  0.2115 -0.8454
   28SAPC   C36 3769   3.637   4.219   7.228  0.1208  0.1381  0.5875
   28SAPC   H6X 3770   3.555   4.288   7.259 -2.0316 -1.2967 -1.5711
   28SAPC   H6Y 3771   3.725   4.272   7.184 -1.1348  0.2692 -1.9327
   28SAPC   C37 3772   3.700   4.143   7.348 -0.4246  0.2871 -0.3129
   28SAPC   H7X 3773   3.794   4.089   7.325 -1.3910 -1.4824 -0.2401
   28SAPC   H7Y 3774   3.628   4.068   7.386  2.2064 -1.1521  2.2790
   28SAPC   C38 3775   3.736   4.248   7.460 -0.0915 -0.0239 -0.4994
   28SAPC   H8X 3776   3.774   4.344   7.421  1.5504 -0.5809 -0.3445
   28SAPC   H8Y 3777   3.809   4.202   7.530 -0.9356  0.3524  0.6537
   28SAPC   C39 3778   3.611   4.280   7.553 -0.3543 -0.0278 -0.5261
   28SAPC   H9X 3779   3.575   4.194   7.612  0.5244  2.4225  4.0505
   28SAPC   H9Y 3780   3.528   4.298   7.482  0.1194 -0.5078 -1.2145
   28SAPC  C310 3781   3.625   4.388   7.662 -0.2200  0.3012 -0.6645
   28SAPC  H10X 3782   3.528   4.396   7.716  0.9859 -1.4824  1.9900
   28SAPC  H10Y 3783   3.623   4.488   7.615  0.3126  0.5086 -0.2581
   28SAPC  C311 3784   3.744   4.375   7.763 -0.5380 -0.0146 -0.0596
   28SAPC  H11X 3785   3.774   4.477   7.795 -1.2448 -0.3684  1.8763
   28SAPC  H11Y 3786   3.821   4.327   7.699 -0.7526 -1.5162  0.7477
   28SAPC  C312 3787   3.696   4.283   7.876  0.1992 -0.1317 -0.4137
   28SAPC  H12X 3788   3.692   4.190   7.816  4.4988 -0.0599 -1.1476
   28SAPC  H12Y 3789   3.595   4.313   7.911  1.2851  0.5891  2.3972
   28SAPC  C313 3790   3.800   4.268   7.991  0.1810 -0.5515 -0.0957
   28SAPC  H13X 3791   3.801   4.363   8.048  1.3943 -0.2645 -0.5709
   28SAPC  H13Y 3792   3.903   4.255   7.951  0.7461 -2.6409  1.7607
   28SAPC  C314 3793   3.765   4.159   8.089  0.0317 -0.0807  0.6588
   28SAPC  H14X 3794   3.786   4.057   8.051  1.1439  0.7440 -1.0583
   28SAPC  H14Y 3795   3.656   4.159   8.110  0.0105 -0.5520  0.5690
   28SAPC  C315 3796   3.845   4.153   8.223 -0.0084 -0.7209 -0.2070
   28SAPC  H15X 3797   3.839   4.249   8.278  0.4925 -1.0571  0.4476
   28SAPC  H15Y 3798   3.955   4.141   8.210  0.0002 -0.0220 -0.8688
   28SAPC  C316 3799   3.791   4.042   8.308  0.0261 -0.0091 -0.1547
   28SAPC  H16X 3800   3.819   3.943   8.268  2.2230 -0.2341  1.7301
   28SAPC  H16Y 3801   3.683   4.068   8.313  0.1262  0.3833  0.0043
   28SAPC  C317 3802   3.845   4.049   8.448  0.2837 -0.0886 -0.7525
   28SAPC  H17X 3803   3.779   3.990   8.515  0.1660  1.0797  0.2024
   28SAPC  H17Y 3804   3.823   4.147   8.496 -0.1631  0.2491 -1.6314
   28SAPC  C318 3805   3.990   4.010   8.466  0.1691  0.2038 -0.8164
   28SAPC  H18X 3806   4.010   4.006   8.575  1.6870  4.1458 -0.8177
   28SAPC  H18Y 3807   4.057   4.088   8.425  1.6335 -0.7041 -0.2230
   28SAPC  H18Z 3808   4.023   3.915   8.417  1.4691  0.3440 -0.2578
   29SAPC     N 3809   6.271   6.019   6.502  0.9118  0.6796  0.3075
   29SAPC   C12 3810   6.344   6.138   6.548  0.0853 -0.2029 -0.4322
   29SAPC  H12A 3811   6.423   6.103   6.613 -1.0176 -0.0182  1.0746
   29SAPC  H12B 3812   6.278   6.205   6.602  1.3626  3.2848 -2.8445
   29SAPC   C13 3813   6.356   5.925   6.426 -0.9692 -0.3349 -1.2649
   29SAPC  H13A 3814   6.431   5.886   6.493 -0.5264 -0.4290 -1.8134
   29SAPC  H13B 3815   6.305   5.840   6.384 -3.1366  0.2269  0.0715
   29SAPC  H13C 3816   6.412   5.981   6.352 -0.3023  0.4073 -0.2193
   29SAPC   C14 3817   6.210   5.950   6.616 -0.6679  0.7670 -0.5599
   29SAPC  H14A 3818   6.124   5.993   6.665 -0.5579  2.6326 -1.9350
   29SAPC  H14B 3819   6.180   5.847   6.602  2.5088 -0.5022  0.9450
   29SAPC  H14C 3820   6.295   5.940   6.682  0.6847 -2.2548 -2.5508
   29SAPC   C15 3821   6.162   6.067   6.407  0.0476 -0.0583  0.3480
   29SAPC  H15A 3822   6.113   6.155   6.445  0.9488  0.1070  1.1558
   29SAPC  H15B 3823   6.213   6.099   6.317 -0.3893 -1.4616 -0.4295
   29SAPC  H15C 3824   6.089   5.992   6.381  0.4459 -0.0646 -0.8138
   29SAPC   C11 3825   6.412   6.228   6.442 -0.0148 -0.4820  0.3460
   29SAPC  H11A 3826   6.482   6.176   6.373  1.8954  1.8104  0.4209
   29SAPC  H11B 3827   6.473   6.300   6.502  0.8592 -0.1412 -0.9169
   29SAPC     P 3828   6.253   6.428   6.401 -0.4610 -0.3982  0.4485
   29SAPC   O13 3829   6.340   6.547   6.385  0.5148 -0.0295 -0.0061
   29SAPC   O14 3830   6.130   6.436   6.316  0.5840 -0.1954 -1.0763
   29SAPC   O12 3831   6.324   6.300   6.358 -0.1452  0.8698 -0.2202
   29SAPC   O11 3832   6.210   6.418   6.548 -0.3095  0.1951  0.1080
   29SAPC    C1 3833   6.149   6.522   6.625 -0.2855 -0.2659 -0.5220
   29SAPC    HA 3834   6.182   6.513   6.731 -0.7370 -0.7147 -0.4158
   29SAPC    HB 3835   6.186   6.623   6.598  0.5493 -0.6040 -0.6673
   29SAPC    C2 3836   5.987   6.515   6.624  0.2439  0.2132 -1.3813
   29SAPC    HS 3837   5.951   6.547   6.523 -1.5499  1.9467 -0.2795
   29SAPC   O21 3838   5.940   6.602   6.730 -0.0499 -0.1814  0.3152
   29SAPC   C21 3839   5.988   6.727   6.716  0.2970 -0.2438 -0.3054
   29SAPC   O22 3840   6.019   6.775   6.607 -0.2069 -0.3113  0.4228
   29SAPC   C22 3841   5.992   6.796   6.850  0.4815 -0.3273  0.0562
   29SAPC   H2R 3842   5.965   6.901   6.826 -2.0501 -1.4614 -2.7116
   29SAPC   H2S 3843   5.915   6.748   6.914 -0.1722  1.4624  0.6700
   29SAPC    C3 3844   5.938   6.375   6.662  0.1645  0.5462  0.3028
   29SAPC    HX 3845   5.962   6.319   6.569  0.4513  1.2964 -0.0806
   29SAPC    HY 3846   5.828   6.369   6.668  0.1482  1.9326  2.7480
   29SAPC   O31 3847   6.009   6.325   6.773 -0.3003 -0.5230 -0.0198
   29SAPC   C31 3848   5.955   6.346   6.896 -0.3461  0.0310 -0.0912
   29SAPC   O32 3849   5.838   6.375   6.919 -0.4454  0.2936  0.1459
   29SAPC   C32 3850   6.057   6.306   6.996  0.0247 -0.0815  0.5142
   29SAPC   H2X 3851   6.157   6.311   6.948 -0.8893 -1.6687 -1.7112
   29SAPC   H2Y 3852   6.039   6.200   7.022  1.0209 -0.7239 -1.2449
   29SAPC   C23 3853   6.124   6.766   6.923 -0.2117  0.2901  0.0683
   29SAPC   H3R 3854   6.202   6.824   6.869  0.3514  0.1951  0.7661
   29SAPC   H3S 3855   6.157   6.661   6.914 -0.4760  0.0398  1.6600
   29SAPC   C24 3856   6.135   6.817   7.071  0.4094 -0.0837  0.7678
   29SAPC   H4R 3857   6.226   6.772   7.117  0.6028 -0.9154 -0.4018
   29SAPC   H4S 3858   6.055   6.778   7.138  1.8127  0.0352  2.6077
   29SAPC   C25 3859   6.142   6.965   7.064 -0.5707 -0.0853  0.2166
   29SAPC   H5R 3860   6.129   7.012   6.966 -1.9454  0.0434  0.4447
   29SAPC   C26 3861   6.181   7.051   7.163  0.4075  0.9738  0.0040
   29SAPC   H6R 3862   6.202   7.158   7.148  1.2337  0.9135  0.6273
   29SAPC   C27 3863   6.225   7.012   7.305 -1.0162  0.4545 -0.2878
   29SAPC   H7R 3864   6.194   6.917   7.353  0.0272 -0.2604 -0.9770
   29SAPC   H7S 3865   6.178   7.087   7.372 -0.4599  0.5615 -0.0088
   29SAPC   C28 3866   6.373   7.019   7.330 -0.8584 -0.7094  0.1392
   29SAPC   H8R 3867   6.430   7.019   7.236  0.1934 -1.3270  0.7565
   29SAPC   C29 3868   6.432   7.025   7.452  0.1916 -0.4937 -0.0108
   29SAPC   H9R 3869   6.542   7.021   7.447  0.3836  2.9531 -2.0314
   29SAPC  C210 3870   6.367   7.016   7.590 -0.6882  0.2540  0.9110
   29SAPC  H10R 3871   6.401   6.926   7.646 -0.9264  0.1181  0.8411
   29SAPC  H10S 3872   6.261   6.982   7.585 -0.4282 -0.4470 -0.3884
   29SAPC  C211 3873   6.392   7.126   7.684  0.5508  0.4055  0.0977
   29SAPC  H11R 3874   6.361   7.214   7.627 -1.2474 -0.1973  0.1070
   29SAPC  C212 3875   6.444   7.129   7.807 -0.1233 -0.5129 -0.1710
   29SAPC  H12R 3876   6.438   7.226   7.859 -0.4641 -1.3091  1.3187
   29SAPC  C213 3877   6.491   7.012   7.891 -0.3998  0.2876 -0.3324
   29SAPC  H13R 3878   6.585   7.032   7.946  0.2572 -2.5845 -0.2442
   29SAPC  H13S 3879   6.495   6.917   7.833 -5.4698 -1.4232  1.5364
   29SAPC  C214 3880   6.388   6.983   8.000  0.1382 -0.3965 -0.1808
   29SAPC  H14R 3881   6.283   6.981   7.967 -0.0069  3.2679 -0.3710
   29SAPC  C215 3882   6.421   6.969   8.130 -0.3786  0.3143 -0.1007
   29SAPC  H15R 3883   6.341   6.965   8.206 -1.2666 -3.3358 -1.0307
   29SAPC  C216 3884   6.558   6.970   8.197 -0.6144 -0.5539 -0.0434
   29SAPC  H16R 3885   6.628   6.919   8.128 -0.9258 -1.0750  0.0191
   29SAPC  H16S 3886   6.559   6.888   8.272 -1.8393 -0.4471  0.1093
   29SAPC  C217 3887   6.594   7.094   8.271  0.1309  0.2289 -0.0340
   29SAPC  H17R 3888   6.702   7.117   8.257 -0.2896  1.5021 -1.4622
   29SAPC  H17S 3889   6.576   7.077   8.379 -0.4856 -3.1759 -0.5547
   29SAPC  C218 3890   6.528   7.229   8.223 -0.5862  0.3302 -0.5532
   29SAPC  H18R 3891   6.418   7.225   8.213 -0.7231 -0.6401  0.9978
   29SAPC  H18S 3892   6.581   7.267   8.133  0.2724  0.1034 -0.1568
   29SAPC  C219 3893   6.562   7.339   8.327 -0.4699  0.3145  0.3438
   29SAPC  H19R 3894   6.565   7.440   8.281 -0.8824  0.2730  0.2278
   29SAPC  H19S 3895   6.663   7.316   8.369 -0.6469 -1.2760 -0.0445
   29SAPC  C220 3896   6.469   7.357   8.446  0.1621 -0.1212  0.7036
   29SAPC  H20R 3897   6.526   7.368   8.541 -0.5439  0.6273  1.0576
   29SAPC  H20S 3898   6.402   7.269   8.453  1.8016 -1.5909 -0.9033
   29SAPC  H20T 3899   6.401   7.444   8.431 -2.0280 -2.2087 -2.8092
   29SAPC   C33 3900   6.034   6.417   7.106  0.3359 -0.9415  0.4294
   29SAPC   H3X 3901   5.928   6.427   7.139  0.6920  1.4076  1.0613
   29SAPC   H3Y 3902   6.073   6.515   7.071  0.2556 -1.8630 -2.4582
   29SAPC   C34 3903   6.104   6.375   7.234 -0.0352 -0.1607 -0.6876
   29SAPC   H4X 3904   6.192   6.311   7.214  1.2322  0.7774  1.5131
   29SAPC   H4Y 3905   6.033   6.304   7.281  0.6965  0.1211  0.9075
   29SAPC   C35 3906   6.138   6.485   7.336  0.6293  0.3701  0.4238
   29SAPC   H5X 3907   6.204   6.567   7.301 -0.7193  2.5722  2.6903
   29SAPC   H5Y 3908   6.197   6.448   7.422 -0.4182  0.5412  1.2348
   29SAPC   C36 3909   6.017   6.561   7.386 -0.1641  0.3327 -0.3146
   29SAPC   H6X 3910   5.941   6.498   7.435  0.8432 -0.8524 -0.2462
   29SAPC   H6Y 3911   5.969   6.603   7.295 -1.6490  1.1634  0.8089
   29SAPC   C37 3912   6.064   6.681   7.468 -0.6766  0.3405 -0.7281
   29SAPC   H7X 3913   6.002   6.773   7.477  0.7260  1.0965  2.1786
   29SAPC   H7Y 3914   6.148   6.738   7.422 -0.6475  0.6428 -0.3013
   29SAPC   C38 3915   6.108   6.635   7.610 -0.7385  0.1548  0.7561
   29SAPC   H8X 3916   6.183   6.553   7.599  0.0523  0.7052  1.8653
   29SAPC   H8Y 3917   6.015   6.590   7.650 -1.5167 -0.0761 -1.1902
   29SAPC   C39 3918   6.163   6.746   7.701  0.0341 -0.1665 -0.9278
   29SAPC   H9X 3919   6.091   6.831   7.697 -0.7205 -0.8214 -1.5783
   29SAPC   H9Y 3920   6.264   6.760   7.658  1.3070 -0.0863  1.9054
   29SAPC  C310 3921   6.183   6.694   7.840 -0.5000 -0.2240  0.2559
   29SAPC  H10X 3922   6.253   6.754   7.902  0.3214 -1.6835  0.7939
   29SAPC  H10Y 3923   6.235   6.595   7.835  1.8905  0.6112  4.1665
   29SAPC  C311 3924   6.055   6.671   7.918 -0.1957 -0.1520  0.0179
   29SAPC  H11X 3925   5.986   6.618   7.848  0.6714 -1.7777  0.3383
   29SAPC  H11Y 3926   6.013   6.768   7.951  2.0001  0.1293  2.2731
   29SAPC  C312 3927   6.090   6.585   8.032 -0.2444 -0.0623  0.1432
   29SAPC  H12X 3928   6.188   6.620   8.072  0.5269 -0.0732 -1.6557
   29SAPC  H12Y 3929   6.105   6.482   7.993 -0.1543 -1.2938  3.1540
   29SAPC  C313 3930   5.980   6.586   8.142 -0.1440  0.0075 -0.6634
   29SAPC  H13X 3931   5.893   6.528   8.105 -0.5067 -0.9341  1.4971
   29SAPC  H13Y 3932   5.958   6.693   8.164  4.7877  1.3486 -1.0704
   29SAPC  C314 3933   6.017   6.524   8.284 -0.3149 -0.0851  0.0757
   29SAPC  H14X 3934   6.002   6.414   8.280  2.8360 -0.5711 -0.5678
   29SAPC  H14Y 3935   5.938   6.554   8.357  1.1419  2.2485  0.8135
   29SAPC  C315 3936   6.161   6.561   8.336 -0.0475 -0.5000 -0.3938
   29SAPC  H15X 3937   6.233   6.507   8.270 -1.9561 -0.6592 -2.4950
   29SAPC  H15Y 3938   6.164   6.527   8.441  1.9313  1.9458  0.4452
   29SAPC  C316 3939   6.197   6.719   8.326  0.6780 -0.1814  1.4312
   29SAPC  H16X 3940   6.157   6.765   8.233  0.5853 -0.2273  1.4483
   29SAPC  H16Y 3941   6.308   6.723   8.333  0.7724 -2.3016  1.9744
   29SAPC  C317 3942   6.134   6.800   8.443  0.6417  0.0883  0.3558
   29SAPC  H17X 3943   6.180   6.762   8.537 -0.4176 -0.0353  0.8310
   29SAPC  H17Y 3944   6.023   6.798   8.445  0.6293  0.5961  0.3766
   29SAPC  C318 3945   6.185   6.951   8.416 -0.1468  0.8164 -0.5127
   29SAPC  H18X 3946   6.140   7.003   8.503 -1.6581 -0.7181 -0.3348
   29SAPC  H18Y 3947   6.158   6.989   8.315 -0.8163 -0.6293 -0.9112
   29SAPC  H18Z 3948   6.294   6.962   8.433 -0.2866  1.4671 -0.0397
   30SAPC     N 3949   6.376   6.348   6.021 -0.2986 -0.5630 -0.2787
   30SAPC   C12 3950   6.478   6.348   6.136 -0.0117 -0.0172 -0.4325
   30SAPC  H12A 3951   6.494   6.242   6.152  2.3963  0.5456  1.5380
   30SAPC  H12B 3952   6.443   6.383   6.232 -1.5721 -2.6624  0.0831
   30SAPC   C13 3953   6.262   6.266   6.058 -0.3261  0.7206 -0.4925
   30SAPC  H13A 3954   6.218   6.291   6.153 -0.6988  4.7935 -1.5328
   30SAPC  H13B 3955   6.175   6.283   5.996 -0.7742 -1.1395 -0.4254
   30SAPC  H13C 3956   6.285   6.160   6.054  1.8371  1.0608  1.1398
   30SAPC   C14 3957   6.333   6.488   5.983 -0.4204 -0.6180  0.6822
   30SAPC  H14A 3958   6.289   6.499   5.885  0.4345 -1.3712  0.2042
   30SAPC  H14B 3959   6.266   6.533   6.055  0.3665 -0.8509  1.5919
   30SAPC  H14C 3960   6.419   6.554   5.993 -0.2006 -0.9819  1.2507
   30SAPC   C15 3961   6.435   6.295   5.898 -0.6883  0.7155  0.1665
   30SAPC  H15A 3962   6.368   6.270   5.817 -0.6646 -0.2925  0.4461
   30SAPC  H15B 3963   6.509   6.359   5.852 -0.1989  0.8175  1.0632
   30SAPC  H15C 3964   6.477   6.197   5.914  1.7288  1.5290 -0.6685
   30SAPC   C11 3965   6.618   6.411   6.121  0.0269  0.1939 -0.5785
   30SAPC  H11A 3966   6.666   6.397   6.221 -2.3267 -1.0737  0.4576
   30SAPC  H11B 3967   6.608   6.520   6.103  0.5320  0.1047 -1.4479
   30SAPC     P 3968   6.774   6.217   6.022  0.0901 -0.0397 -0.0933
   30SAPC   O13 3969   6.666   6.124   6.065  0.1991  0.0410  0.0055
   30SAPC   O14 3970   6.845   6.184   5.900  0.2979 -0.4213  0.2968
   30SAPC   O12 3971   6.703   6.362   6.013 -0.0739  0.1141 -0.1197
   30SAPC   O11 3972   6.883   6.235   6.138 -0.3907  0.5545  0.6823
   30SAPC    C1 3973   6.974   6.342   6.132 -0.3239 -0.0692  0.5366
   30SAPC    HA 3974   7.065   6.306   6.079 -0.6664 -0.3238  0.1094
   30SAPC    HB 3975   6.931   6.434   6.087 -0.6036 -1.4386 -2.2261
   30SAPC    C2 3976   7.023   6.380   6.282  0.1895  0.2268 -0.1979
   30SAPC    HS 3977   7.095   6.464   6.275  0.3530  0.3704  2.2707
   30SAPC   O21 3978   7.083   6.262   6.338  0.1128 -0.4753  0.4785
   30SAPC   C21 3979   7.178   6.280   6.429  0.1696 -0.1526  0.2593
   30SAPC   O22 3980   7.224   6.383   6.476  0.1120  0.3326 -0.4438
   30SAPC   C22 3981   7.240   6.149   6.473  0.3550 -0.7093  0.1530
   30SAPC   H2R 3982   7.240   6.076   6.389 -0.6290 -1.5084  0.8152
   30SAPC   H2S 3983   7.342   6.169   6.511 -0.5000  1.1816  1.6218
   30SAPC    C3 3984   6.912   6.421   6.386 -0.0689 -0.7041  0.7868
   30SAPC    HX 3985   6.845   6.335   6.409 -3.3671  0.7622 -2.4042
   30SAPC    HY 3986   6.844   6.494   6.337  1.8830 -0.2364 -1.3907
   30SAPC   O31 3987   6.967   6.475   6.508  0.0441  0.7554  0.7773
   30SAPC   C31 3988   7.032   6.590   6.501  0.4292 -0.3675  0.4810
   30SAPC   O32 3989   7.032   6.667   6.406  0.0135  0.4617 -0.5954
   30SAPC   C32 3990   7.114   6.612   6.626 -0.2590 -0.7349  0.0262
   30SAPC   H2X 3991   7.203   6.665   6.584 -1.6542 -0.3567 -2.6845
   30SAPC   H2Y 3992   7.132   6.519   6.684  1.2119  1.7333  3.9104
   30SAPC   C23 3993   7.159   6.093   6.592  0.5628  0.8830  0.3537
   30SAPC   H3R 3994   7.195   5.989   6.603 -2.6749 -0.9503 -3.7512
   30SAPC   H3S 3995   7.057   6.084   6.551  0.1592  3.0955  0.7094
   30SAPC   C24 3996   7.150   6.178   6.721 -0.4468 -0.7427 -0.0444
   30SAPC   H4R 3997   7.151   6.284   6.687 -0.2741 -1.4673 -2.4915
   30SAPC   H4S 3998   7.250   6.171   6.770 -0.8164  1.1064  1.0594
   30SAPC   C25 3999   7.027   6.143   6.809  0.1527 -0.5567  0.3235
   30SAPC   H5R 4000   6.939   6.094   6.765  0.5337  0.0544 -1.1855
   30SAPC   C26 4001   7.018   6.163   6.939 -0.2212 -0.0853  0.2873
   30SAPC   H6R 4002   6.922   6.131   6.982 -0.1992 -0.5579 -0.0086
   30SAPC   C27 4003   7.119   6.218   7.040  0.2098  0.2272  0.5410
   30SAPC   H7R 4004   7.065   6.271   7.121 -1.8478 -1.1093  0.1026
   30SAPC   H7S 4005   7.189   6.281   6.980  0.3027 -0.0541  0.3533
   30SAPC   C28 4006   7.209   6.105   7.094 -0.2934  0.5063  0.7821
   30SAPC   H8R 4007   7.266   6.054   7.015  2.8163  1.0215  2.5248
   30SAPC   C29 4008   7.247   6.081   7.221 -0.2747  0.8816  0.0810
   30SAPC   H9R 4009   7.291   5.980   7.227  1.3041  1.4859 -0.8896
   30SAPC  C210 4010   7.182   6.150   7.342 -0.7503  0.4390  1.0498
   30SAPC  H10R 4011   7.076   6.182   7.337 -0.9987 -0.0854  2.5145
   30SAPC  H10S 4012   7.235   6.248   7.346 -0.6925  0.7696 -3.2269
   30SAPC  C211 4013   7.202   6.076   7.472  0.0664  0.0202 -0.0626
   30SAPC  H11R 4014   7.264   5.985   7.476 -0.9824 -0.6887  2.3723
   30SAPC  C212 4015   7.166   6.118   7.595  0.1744  0.0247  0.3117
   30SAPC  H12R 4016   7.184   6.055   7.682 -1.1457  0.2817  0.7837
   30SAPC  C213 4017   7.090   6.244   7.632  0.1262  0.0015 -0.4132
   30SAPC  H13R 4018   6.985   6.216   7.657  0.2320 -0.5334 -0.5654
   30SAPC  H13S 4019   7.078   6.328   7.560 -3.5055  2.2204  2.3998
   30SAPC  C214 4020   7.144   6.312   7.756  0.1707  1.0253 -0.2332
   30SAPC  H14R 4021   7.240   6.362   7.738  0.2258  0.3383 -2.0898
   30SAPC  C215 4022   7.093   6.302   7.875 -0.0029 -0.2415  0.2818
   30SAPC  H15R 4023   7.161   6.345   7.951 -1.0435  1.4872  0.3008
   30SAPC  C216 4024   6.975   6.234   7.929  0.7901 -0.0926 -0.8427
   30SAPC  H16R 4025   6.944   6.142   7.875 -2.5031 -1.5381  2.9708
   30SAPC  H16S 4026   6.891   6.307   7.923 -0.6128 -1.7362 -2.1172
   30SAPC  C217 4027   6.998   6.223   8.075  0.3243 -0.0020  0.3667
   30SAPC  H17R 4028   6.985   6.319   8.129 -0.7412  0.1647 -0.1622
   30SAPC  H17S 4029   7.098   6.174   8.085  0.9044  1.4491  2.4776
   30SAPC  C218 4030   6.894   6.134   8.145 -0.1360 -0.1033  0.5592
   30SAPC  H18R 4031   6.887   6.034   8.097  1.9104  1.0160 -2.3684
   30SAPC  H18S 4032   6.798   6.188   8.134 -1.5421 -2.4862  0.2975
   30SAPC  C219 4033   6.915   6.093   8.294  0.0565  0.7121  0.7315
   30SAPC  H19R 4034   7.018   6.053   8.297  0.0324  0.7228  2.9352
   30SAPC  H19S 4035   6.844   6.011   8.317  1.6128  0.0115  3.4846
   30SAPC  C220 4036   6.892   6.206   8.398 -0.2215 -0.2402  0.3297
   30SAPC  H20R 4037   6.893   6.170   8.503  0.6712 -2.2607 -0.3105
   30SAPC  H20S 4038   6.798   6.262   8.377 -0.3499 -0.7554 -0.5107
   30SAPC  H20T 4039   6.980   6.272   8.387 -0.8941  0.6817  0.3931
   30SAPC   C33 4040   7.034   6.710   6.716 -0.5152 -0.2379  0.2789
   30SAPC   H3X 4041   6.932   6.671   6.737 -0.8692  0.1440 -0.6850
   30SAPC   H3Y 4042   7.020   6.798   6.650  0.0606 -1.7795 -1.9871
   30SAPC   C34 4043   7.116   6.757   6.840 -0.0853  0.4939 -0.2484
   30SAPC   H4X 4044   7.095   6.865   6.856  0.9385  0.9143 -1.5335
   30SAPC   H4Y 4045   7.225   6.755   6.822  0.0139  1.6416  0.1490
   30SAPC   C35 4046   7.087   6.688   6.974  0.2993  0.3763  0.2426
   30SAPC   H5X 4047   7.116   6.582   6.961 -1.6822 -0.3382  1.3598
   30SAPC   H5Y 4048   6.977   6.691   6.983  0.2981 -0.5256  0.5715
   30SAPC   C36 4049   7.173   6.746   7.086  0.5832  0.0468  0.3960
   30SAPC   H6X 4050   7.167   6.855   7.104  1.8926 -0.2667  3.2055
   30SAPC   H6Y 4051   7.282   6.729   7.072  0.6451  0.9985 -0.3548
   30SAPC   C37 4052   7.120   6.686   7.217 -0.2541  0.8738 -0.8475
   30SAPC   H7X 4053   7.129   6.576   7.223 -0.5164  0.7879 -1.8272
   30SAPC   H7Y 4054   7.010   6.695   7.234 -0.3057 -2.4458  1.3993
   30SAPC   C38 4055   7.191   6.737   7.344 -0.0956  0.3063 -0.0986
   30SAPC   H8X 4056   7.202   6.848   7.345  3.1672  0.0865  0.5644
   30SAPC   H8Y 4057   7.293   6.693   7.351 -0.8182 -1.2708  1.2616
   30SAPC   C39 4058   7.121   6.679   7.471  0.6691  0.2752 -0.2807
   30SAPC   H9X 4059   7.098   6.572   7.449 -0.0875 -0.1407  2.2251
   30SAPC   H9Y 4060   7.024   6.733   7.480  0.9072  0.6044  0.4137
   30SAPC  C310 4061   7.210   6.696   7.593 -0.2771  0.4338  0.1840
   30SAPC  H10X 4062   7.258   6.795   7.603  0.8936 -0.1971  1.1325
   30SAPC  H10Y 4063   7.294   6.624   7.582 -1.6709 -1.3727  0.6925
   30SAPC  C311 4064   7.134   6.666   7.721 -0.2399 -0.8692  0.1334
   30SAPC  H11X 4065   7.069   6.579   7.694 -1.8252 -0.0065  1.0323
   30SAPC  H11Y 4066   7.063   6.749   7.743  1.3556  0.4631  0.4260
   30SAPC  C312 4067   7.224   6.649   7.848  0.6798  0.1281 -0.0949
   30SAPC  H12X 4068   7.304   6.724   7.839  0.6059  0.2586  0.3262
   30SAPC  H12Y 4069   7.266   6.546   7.839  0.0238 -0.2387  0.8032
   30SAPC  C313 4070   7.152   6.670   7.985 -0.2722 -0.2063  0.3380
   30SAPC  H13X 4071   7.098   6.575   8.004  0.2766 -0.8798 -1.2712
   30SAPC  H13Y 4072   7.088   6.760   7.973 -0.7498 -0.1772  2.5844
   30SAPC  C314 4073   7.256   6.704   8.097 -0.1902  0.1251  0.7984
   30SAPC  H14X 4074   7.320   6.786   8.060  2.2664 -1.7196  0.7270
   30SAPC  H14Y 4075   7.323   6.616   8.107  1.3899  0.4270 -4.1619
   30SAPC  C315 4076   7.181   6.731   8.230 -0.1879 -0.3634  0.8620
   30SAPC  H15X 4077   7.106   6.655   8.261  1.8493 -3.4059 -1.0676
   30SAPC  H15Y 4078   7.141   6.833   8.214  1.7948  0.7934  2.6650
   30SAPC  C316 4079   7.283   6.730   8.344 -0.1721 -0.3632 -0.5233
   30SAPC  H16X 4080   7.376   6.778   8.309  0.8664 -0.3785  1.9935
   30SAPC  H16Y 4081   7.311   6.631   8.385 -1.5894 -0.3163  0.6342
   30SAPC  C317 4082   7.231   6.804   8.468  0.2979  0.1123  1.2065
   30SAPC  H17X 4083   7.137   6.762   8.510  0.2656  0.7561  1.7893
   30SAPC  H17Y 4084   7.211   6.909   8.439  3.9238  1.6552  3.5514
   30SAPC  C318 4085   7.341   6.804   8.577  0.9733 -0.7640 -0.1652
   30SAPC  H18X 4086   7.376   6.701   8.599 -0.0971 -0.8609  1.2605
   30SAPC  H18Y 4087   7.305   6.848   8.673  1.9484  1.1393 -0.6244
   30SAPC  H18Z 4088   7.424   6.873   8.552 -0.8097  1.6301  0.0511
   31SAPC     N 4089   2.224   1.588   6.158  0.5557  0.5334 -0.1934
   31SAPC   C12 4090   2.138   1.572   6.283 -0.4749 -0.7692 -0.1669
   31SAPC  H12A 4091   2.038   1.601   6.255 -0.8069 -1.6820  0.0513
   31SAPC  H12B 4092   2.172   1.644   6.357  0.4612 -1.7203  0.3697
   31SAPC   C13 4093   2.179   1.511   6.041 -0.2308  0.1588  0.1710
   31SAPC  H13A 4094   2.212   1.408   6.048 -0.6049  0.0326  0.1013
   31SAPC  H13B 4095   2.072   1.499   6.043 -0.5725  1.8821  4.5639
   31SAPC  H13C 4096   2.225   1.552   5.952 -2.0718 -0.9817 -1.3762
   31SAPC   C14 4097   2.219   1.736   6.130 -0.3077 -0.3888  0.0782
   31SAPC  H14A 4098   2.119   1.760   6.098  0.0456 -1.7137 -2.2602
   31SAPC  H14B 4099   2.247   1.787   6.221  2.4646 -4.2922  1.6715
   31SAPC  H14C 4100   2.296   1.762   6.059 -0.9715 -0.1952 -0.5890
   31SAPC   C15 4101   2.367   1.550   6.182  0.0079 -0.8636  0.4462
   31SAPC  H15A 4102   2.387   1.471   6.253  0.3452 -1.7758 -0.6384
   31SAPC  H15B 4103   2.410   1.516   6.089 -0.2490 -0.7313  0.2802
   31SAPC  H15C 4104   2.423   1.637   6.213 -2.2850  0.7077  0.4386
   31SAPC   C11 4105   2.142   1.427   6.354  0.2686 -0.0942 -0.2029
   31SAPC  H11A 4106   2.095   1.434   6.454 -0.1529 -0.8107 -0.3401
   31SAPC  H11B 4107   2.244   1.384   6.357  0.1543 -0.2932  1.0435
   31SAPC     P 4108   1.912   1.331   6.266 -0.5239  0.0443 -0.1225
   31SAPC   O13 4109   1.844   1.454   6.291  0.3515  0.2428  0.4631
   31SAPC   O14 4110   1.874   1.262   6.142 -0.3824  0.7408 -0.3378
   31SAPC   O12 4111   2.069   1.343   6.259  0.0149 -0.0856  0.2011
   31SAPC   O11 4112   1.890   1.233   6.388 -0.4345  0.4747 -0.6790
   31SAPC    C1 4113   1.948   1.099   6.384 -0.2641 -1.5444  0.0645
   31SAPC    HA 4114   1.875   1.028   6.339 -0.2610  0.8929 -4.3777
   31SAPC    HB 4115   2.042   1.096   6.325 -0.1445  0.1102  0.1224
   31SAPC    C2 4116   1.976   1.066   6.536 -0.1644 -0.5807 -0.6084
   31SAPC    HS 4117   2.033   0.972   6.552 -2.1622 -1.8661 -0.6912
   31SAPC   O21 4118   1.844   1.040   6.594  1.0603  0.1698  0.2607
   31SAPC   C21 4119   1.830   0.967   6.697  0.5643 -0.6294  0.9403
   31SAPC   O22 4120   1.912   0.920   6.769 -0.9098 -0.1343  0.9198
   31SAPC   C22 4121   1.679   0.945   6.716 -0.6824  0.2765  0.0415
   31SAPC   H2R 4122   1.633   0.927   6.617  0.4651  2.0614 -0.8649
   31SAPC   H2S 4123   1.667   0.857   6.784  0.8328 -0.7381 -0.9409
   31SAPC    C3 4124   2.044   1.196   6.601 -0.4125  0.8325 -0.3695
   31SAPC    HX 4125   1.975   1.282   6.589 -0.3669  1.1148  1.1805
   31SAPC    HY 4126   2.145   1.217   6.560  0.8642  0.6828  2.4669
   31SAPC   O31 4127   2.058   1.174   6.744 -0.4273 -0.2241  0.6019
   31SAPC   C31 4128   2.160   1.107   6.782 -0.5943  0.0381 -0.6550
   31SAPC   O32 4129   2.255   1.075   6.710 -0.1892  0.5850  0.2692
   31SAPC   C32 4130   2.158   1.095   6.932 -0.2710 -0.1880 -0.4615
   31SAPC   H2X 4131   2.057   1.059   6.962 -0.4105  0.5087 -0.0791
   31SAPC   H2Y 4132   2.174   1.199   6.968  0.7146 -0.6746  0.5475
   31SAPC   C23 4133   1.616   1.072   6.776 -0.1082 -0.3623  0.7701
   31SAPC   H3R 4134   1.506   1.076   6.758 -0.0745 -0.1569  0.6086
   31SAPC   H3S 4135   1.656   1.157   6.717  0.7249  0.3623  2.3381
   31SAPC   C24 4136   1.648   1.106   6.916 -0.2534 -0.5064 -0.8768
   31SAPC   H4R 4137   1.621   1.213   6.928  0.9693  0.0342 -2.4750
   31SAPC   H4S 4138   1.759   1.106   6.930  0.0146  0.7612 -2.6018
   31SAPC   C25 4139   1.578   1.015   7.013  1.1799  0.3013 -0.4252
   31SAPC   H5R 4140   1.469   1.033   7.010  1.3368  1.1491 -1.7939
   31SAPC   C26 4141   1.635   0.940   7.106 -0.7613 -0.1320  0.0466
   31SAPC   H6R 4142   1.577   0.858   7.150  1.4866 -1.6787  0.2826
   31SAPC   C27 4143   1.785   0.945   7.130  0.0893 -0.2582  0.2365
   31SAPC   H7R 4144   1.811   1.053   7.134 -0.0763 -0.2506  1.6434
   31SAPC   H7S 4145   1.845   0.897   7.051 -1.7804 -0.4883 -1.1214
   31SAPC   C28 4146   1.828   0.884   7.265 -0.4769  0.1052  0.0414
   31SAPC   H8R 4147   1.881   0.788   7.249  1.8870  1.2655  0.5122
   31SAPC   C29 4148   1.809   0.921   7.395 -0.4604 -0.0307  0.0736
   31SAPC   H9R 4149   1.851   0.857   7.475  0.2129 -0.3646 -0.5301
   31SAPC  C210 4150   1.743   1.049   7.443  0.3320  0.8808 -0.1569
   31SAPC  H10R 4151   1.717   1.118   7.360  0.2405  1.9544  0.7339
   31SAPC  H10S 4152   1.811   1.109   7.507 -1.5362  2.4604  0.4318
   31SAPC  C211 4153   1.619   1.038   7.530  0.3444 -0.6813 -0.0636
   31SAPC  H11R 4154   1.517   1.040   7.490 -0.9153  1.0622  2.9270
   31SAPC  C212 4155   1.623   1.024   7.665  0.5011 -0.8834  0.2766
   31SAPC  H12R 4156   1.526   1.023   7.716  0.1940 -0.7908 -0.2992
   31SAPC  C213 4157   1.748   1.016   7.757  0.0969  0.0126 -0.3611
   31SAPC  H13R 4158   1.714   1.050   7.857 -2.5008 -1.5764 -0.6100
   31SAPC  H13S 4159   1.811   1.098   7.716  1.8940 -0.7445  0.8160
   31SAPC  C214 4160   1.820   0.887   7.763  0.0105  0.3558  0.1565
   31SAPC  H14R 4161   1.831   0.841   7.664  2.1469  0.7958  0.1365
   31SAPC  C215 4162   1.864   0.829   7.871 -0.6065  0.5321  0.3683
   31SAPC  H15R 4163   1.919   0.735   7.851  1.2575  1.0829  2.4480
   31SAPC  C216 4164   1.864   0.850   8.022 -0.3769 -0.0386 -0.4592
   31SAPC  H16R 4165   1.775   0.794   8.059  0.0122 -0.1877  0.2717
   31SAPC  H16S 4166   1.854   0.956   8.054 -1.8706 -0.6096  1.1223
   31SAPC  C217 4167   1.987   0.780   8.071 -0.0467 -0.3712 -0.7718
   31SAPC  H17R 4168   2.069   0.854   8.072 -0.1390 -0.1902  2.3240
   31SAPC  H17S 4169   1.999   0.686   8.013 -2.6431 -2.4500  1.7194
   31SAPC  C218 4170   1.971   0.726   8.221 -0.3477  0.4122  0.4067
   31SAPC  H18R 4171   2.066   0.680   8.254 -1.3969  0.1704  3.3343
   31SAPC  H18S 4172   1.899   0.642   8.223 -0.6784  0.6313 -1.0697
   31SAPC  C219 4173   1.945   0.840   8.319 -0.3120  0.2476  0.0758
   31SAPC  H19R 4174   1.891   0.789   8.402 -2.2185  1.0508 -0.6011
   31SAPC  H19S 4175   1.871   0.915   8.284  0.1105  0.6701  0.0723
   31SAPC  C220 4176   2.073   0.915   8.349  0.7179  0.9404  0.8345
   31SAPC  H20R 4177   2.162   0.855   8.379  1.4172  1.3329 -0.3536
   31SAPC  H20S 4178   2.044   0.982   8.433 -2.5258  1.2546 -0.3950
   31SAPC  H20T 4179   2.112   0.979   8.266 -0.0836 -0.1649 -0.4394
   31SAPC   C33 4180   2.267   0.995   6.985  0.7865 -0.3528 -0.3217
   31SAPC   H3X 4181   2.365   1.047   6.975  0.0814  0.8583 -1.1562
   31SAPC   H3Y 4182   2.265   0.896   6.935  2.2780 -1.7839  2.2172
   31SAPC   C34 4183   2.237   0.960   7.136 -0.4787  0.3928  0.6345
   31SAPC   H4X 4184   2.280   0.858   7.144 -0.7227  0.0883 -1.4524
   31SAPC   H4Y 4185   2.129   0.936   7.143 -0.7124  0.0565 -2.5638
   31SAPC   C35 4186   2.277   1.040   7.259  0.0252 -0.1874  0.9030
   31SAPC   H5X 4187   2.239   1.143   7.245  1.4482  0.3519  0.8967
   31SAPC   H5Y 4188   2.388   1.044   7.260  0.3621 -2.4898 -3.5712
   31SAPC   C36 4189   2.223   0.990   7.398  0.0798 -0.1808 -0.1293
   31SAPC   H6X 4190   2.114   1.006   7.410  0.3380  0.3456  1.8409
   31SAPC   H6Y 4191   2.276   1.054   7.472 -0.4878  0.6814 -0.4509
   31SAPC   C37 4192   2.258   0.845   7.420 -0.2840  0.0679  0.6753
   31SAPC   H7X 4193   2.365   0.820   7.401 -0.6482 -1.6416  0.7149
   31SAPC   H7Y 4194   2.194   0.777   7.360  0.0310  1.1302 -0.9341
   31SAPC   C38 4195   2.228   0.795   7.562  0.8350 -0.2212  0.2424
   31SAPC   H8X 4196   2.172   0.700   7.575 -1.4174  1.1703  1.3339
   31SAPC   H8Y 4197   2.157   0.862   7.615 -0.2354 -2.3516  1.6445
   31SAPC   C39 4198   2.347   0.796   7.658  0.2082 -0.1732  0.1745
   31SAPC   H9X 4199   2.398   0.894   7.652  0.9414 -0.6099 -1.4978
   31SAPC   H9Y 4200   2.424   0.722   7.626 -0.0505  0.0439 -1.0212
   31SAPC  C310 4201   2.299   0.758   7.796  0.0742 -0.0860 -0.3465
   31SAPC  H10X 4202   2.246   0.660   7.804  0.5792 -0.5756 -2.4033
   31SAPC  H10Y 4203   2.217   0.828   7.822  0.0118 -0.1975 -0.2444
   31SAPC  C311 4204   2.414   0.770   7.892 -0.4194 -0.5854  0.1879
   31SAPC  H11X 4205   2.448   0.876   7.889  1.7483 -1.2392 -0.3659
   31SAPC  H11Y 4206   2.497   0.700   7.871 -0.0368 -0.2747  0.6384
   31SAPC  C312 4207   2.376   0.729   8.035  0.1599 -0.2879  0.1476
   31SAPC  H12X 4208   2.424   0.631   8.058  2.4657 -0.6629 -4.8718
   31SAPC  H12Y 4209   2.265   0.718   8.033 -0.0508  1.0481  2.0272
   31SAPC  C313 4210   2.416   0.819   8.149  0.2910 -0.1928  0.5079
   31SAPC  H13X 4211   2.323   0.879   8.164 -0.0196 -0.4797 -0.2623
   31SAPC  H13Y 4212   2.498   0.887   8.118  2.3681 -2.9817 -0.4771
   31SAPC  C314 4213   2.447   0.738   8.276  0.7421 -0.8642 -0.0448
   31SAPC  H14X 4214   2.541   0.683   8.250  2.2520  1.3579  0.4220
   31SAPC  H14Y 4215   2.371   0.660   8.293 -0.3138  0.4418  1.5222
   31SAPC  C315 4216   2.465   0.828   8.399 -0.4008 -0.5667  0.0642
   31SAPC  H15X 4217   2.381   0.900   8.392  0.6700  0.8111  0.8893
   31SAPC  H15Y 4218   2.552   0.898   8.392  0.2275 -0.8186  3.6378
   31SAPC  C316 4219   2.454   0.757   8.539  0.1867  0.8246 -0.8993
   31SAPC  H16X 4220   2.351   0.716   8.548  0.6666  0.0011  4.7308
   31SAPC  H16Y 4221   2.454   0.828   8.625 -2.5085 -0.9811  0.7509
   31SAPC  C317 4222   2.559   0.647   8.555  0.2966  0.2684  0.7567
   31SAPC  H17X 4223   2.657   0.698   8.542  0.1074  1.0215  2.0264
   31SAPC  H17Y 4224   2.547   0.572   8.474 -0.1666  0.5448  0.5680
   31SAPC  C318 4225   2.557   0.579   8.696 -0.0710 -0.0397 -0.2156
   31SAPC  H18X 4226   2.640   0.509   8.717 -0.0897  0.4693  1.7304
   31SAPC  H18Y 4227   2.463   0.521   8.705  0.1861 -0.8992 -2.4049
   31SAPC  H18Z 4228   2.556   0.660   8.772 -1.6685  1.8950 -2.1747
   32SAPC     N 4229   4.502   2.633   6.505 -0.3637  0.1306 -0.1008
   32SAPC   C12 4230   4.435   2.720   6.402  0.6749 -0.4693  0.4041
   32SAPC  H12A 4231   4.339   2.746   6.443  0.6542 -1.3365  0.9147
   32SAPC  H12B 4232   4.416   2.665   6.311  0.9714  0.3882 -0.1870
   32SAPC   C13 4233   4.478   2.678   6.640 -0.1102 -0.5530 -0.5004
   32SAPC  H13A 4234   4.532   2.617   6.711 -0.6614  2.3156  2.6574
   32SAPC  H13B 4235   4.517   2.778   6.651  1.2504 -1.0249 -0.8500
   32SAPC  H13C 4236   4.378   2.667   6.680 -0.6062  0.7697 -1.3200
   32SAPC   C14 4237   4.450   2.491   6.497 -0.0778 -0.0254 -0.3223
   32SAPC  H14A 4238   4.467   2.449   6.595 -1.6927 -0.1345 -0.0600
   32SAPC  H14B 4239   4.342   2.482   6.493 -0.6729  4.5535  0.5196
   32SAPC  H14C 4240   4.504   2.427   6.428 -3.9223 -2.8357 -1.1017
   32SAPC   C15 4241   4.651   2.623   6.480 -0.0767 -0.2235 -0.1024
   32SAPC  H15A 4242   4.695   2.715   6.516 -3.5444  1.2283  0.8123
   32SAPC  H15B 4243   4.707   2.547   6.533 -0.2772  0.4812  1.1615
   32SAPC  H15C 4244   4.666   2.611   6.374 -3.4717 -3.9665 -0.3804
   32SAPC   C11 4245   4.494   2.851   6.380 -0.6894  0.1252  0.8095
   32SAPC  H11A 4246   4.593   2.826   6.336 -0.5684 -3.1090  2.5643
   32SAPC  H11B 4247   4.501   2.903   6.478  1.0798 -0.8367  1.2526
   32SAPC     P 4248   4.291   3.006   6.326  0.0266  0.2068  0.2736
   32SAPC   O13 4249   4.316   3.116   6.422  0.8181 -0.1209 -0.2826
   32SAPC   O14 4250   4.225   3.045   6.205  0.1569 -0.5307 -0.1929
   32SAPC   O12 4251   4.420   2.927   6.282  0.2065  0.0010  0.5931
   32SAPC   O11 4252   4.210   2.890   6.397  0.3311 -0.1453 -0.1658
   32SAPC    C1 4253   4.086   2.924   6.461  0.2477  0.3517  0.3119
   32SAPC    HA 4254   4.078   3.031   6.490 -2.0575  0.6460 -1.1230
   32SAPC    HB 4255   3.991   2.908   6.404 -0.3103  2.8695  0.4020
   32SAPC    C2 4256   4.085   2.848   6.593 -0.3480 -0.1593  0.4193
   32SAPC    HS 4257   3.999   2.886   6.652 -0.4983  0.5618 -0.2452
   32SAPC   O21 4258   4.200   2.860   6.668 -0.1576 -0.3470  0.0278
   32SAPC   C21 4259   4.224   2.980   6.735 -0.3364  0.3988 -0.0906
   32SAPC   O22 4260   4.139   3.066   6.738 -0.4385 -0.3044 -0.1689
   32SAPC   C22 4261   4.359   2.979   6.805  0.8288 -0.1155  0.3965
   32SAPC   H2R 4262   4.385   2.874   6.832  0.0413 -0.6032 -0.6684
   32SAPC   H2S 4263   4.436   3.005   6.730  0.8164 -0.8134  0.1375
   32SAPC    C3 4264   4.063   2.698   6.568  0.8589 -0.2486 -0.4012
   32SAPC    HX 4265   4.154   2.648   6.529  1.7508  0.2223  0.9999
   32SAPC    HY 4266   3.986   2.701   6.488  0.2500 -1.4146  0.1102
   32SAPC   O31 4267   4.010   2.636   6.692 -0.7088  0.6904 -0.9462
   32SAPC   C31 4268   4.095   2.549   6.758 -0.1591 -0.4286 -0.0963
   32SAPC   O32 4269   4.215   2.533   6.733  0.3393 -0.2734  0.1047
   32SAPC   C32 4270   4.011   2.474   6.863  0.0759  0.3353 -1.1355
   32SAPC   H2X 4271   3.949   2.392   6.821  0.3542 -0.7027  0.3961
   32SAPC   H2Y 4272   3.928   2.539   6.898  0.3113  0.6575 -1.1657
   32SAPC   C23 4273   4.364   3.072   6.927  0.3021 -0.2556  0.4501
   32SAPC   H3R 4274   4.351   3.178   6.897 -1.1173 -0.8641 -1.2141
   32SAPC   H3S 4275   4.473   3.059   6.949  0.8897  0.2450 -1.9112
   32SAPC   C24 4276   4.284   3.015   7.050 -0.6516  0.6081 -0.9496
   32SAPC   H4R 4277   4.176   3.011   7.024 -1.3436  0.7230  1.6059
   32SAPC   H4S 4278   4.271   3.087   7.133  0.7572 -1.7312  1.4652
   32SAPC   C25 4279   4.334   2.877   7.093  0.5194 -0.3695 -0.5080
   32SAPC   H5R 4280   4.441   2.878   7.120 -0.2173 -0.8062  2.9627
   32SAPC   C26 4281   4.249   2.778   7.127  0.4138 -0.4667  0.5534
   32SAPC   H6R 4282   4.293   2.689   7.176  0.9020 -0.1284  0.7372
   32SAPC   C27 4283   4.100   2.783   7.113  0.0960  0.4882  0.3000
   32SAPC   H7R 4284   4.082   2.725   7.019  0.6889  2.4716 -1.0976
   32SAPC   H7S 4285   4.056   2.880   7.082 -0.9973 -0.1660 -0.2639
   32SAPC   C28 4286   4.026   2.714   7.229 -0.9399  0.1827 -0.2019
   32SAPC   H8R 4287   3.974   2.621   7.206  1.2797 -1.1028 -0.3434
   32SAPC   C29 4288   4.024   2.756   7.360  0.1729 -0.7001  0.2391
   32SAPC   H9R 4289   3.962   2.697   7.429 -0.8576 -0.6473 -0.6082
   32SAPC  C210 4290   4.096   2.873   7.418 -0.1784 -0.2559  0.3542
   32SAPC  H10R 4291   4.027   2.957   7.439 -1.3074 -0.1786 -3.1315
   32SAPC  H10S 4292   4.162   2.924   7.346 -0.4522 -0.9765 -0.4284
   32SAPC  C211 4293   4.184   2.822   7.540  0.1352  0.3285  0.2784
   32SAPC  H11R 4294   4.244   2.730   7.526 -0.4687  0.1146 -0.9958
   32SAPC  C212 4295   4.199   2.885   7.660  0.0809 -0.2078  0.2550
   32SAPC  H12R 4296   4.251   2.827   7.739  0.1859 -0.5965 -0.0983
   32SAPC  C213 4297   4.130   3.015   7.702  0.0281  0.3272  0.1678
   32SAPC  H13R 4298   4.069   2.991   7.791 -0.3717 -0.8645 -0.4086
   32SAPC  H13S 4299   4.058   3.054   7.628 -1.0128 -1.6953  0.0555
   32SAPC  C214 4300   4.232   3.127   7.737 -0.9695 -0.0934 -0.1084
   32SAPC  H14R 4301   4.295   3.167   7.656  1.4342  0.6537  2.0025
   32SAPC  C215 4302   4.239   3.203   7.845  0.1238  0.6468 -0.5322
   32SAPC  H15R 4303   4.320   3.277   7.849  0.1460  0.5994 -0.0424
   32SAPC  C216 4304   4.150   3.195   7.963 -0.5662  1.0755  0.5760
   32SAPC  H16R 4305   4.076   3.113   7.960  0.6331 -0.0683  1.4071
   32SAPC  H16S 4306   4.106   3.295   7.985 -0.4754  1.3803 -0.5553
   32SAPC  C217 4307   4.232   3.153   8.087 -0.4715 -0.1986 -0.7018
   32SAPC  H17R 4308   4.291   3.060   8.070  0.5050  0.4657 -1.0429
   32SAPC  H17S 4309   4.174   3.136   8.180  0.7831  1.1751  0.3906
   32SAPC  C218 4310   4.322   3.269   8.142  0.0378  0.5337  0.0552
   32SAPC  H18R 4311   4.273   3.369   8.135 -1.0857  0.2130  2.2966
   32SAPC  H18S 4312   4.418   3.262   8.086  0.2011 -1.6250  0.5061
   32SAPC  C219 4313   4.358   3.240   8.282 -0.0489  0.1992  0.2242
   32SAPC  H19R 4314   4.392   3.134   8.286 -0.8950 -0.0303  2.5582
   32SAPC  H19S 4315   4.272   3.235   8.351 -0.0851  2.2593  0.3802
   32SAPC  C220 4316   4.457   3.332   8.342 -0.5174  0.2084  0.3060
   32SAPC  H20R 4317   4.551   3.333   8.283  0.8466 -0.5542  2.3350
   32SAPC  H20S 4318   4.502   3.288   8.434  1.3619 -2.6029 -1.7853
   32SAPC  H20T 4319   4.423   3.436   8.356  2.0055  1.1538 -0.0923
   32SAPC   C33 4320   4.095   2.418   6.983 -0.4628  0.1625  0.1913
   32SAPC   H3X 4321   4.151   2.499   7.035 -2.9526  0.4113  2.7646
   32SAPC   H3Y 4322   4.173   2.347   6.951  0.1698  1.4586 -1.3208
   32SAPC   C34 4323   3.994   2.348   7.084  0.1279  0.4210 -0.0328
   32SAPC   H4X 4324   3.954   2.251   7.046  2.3231 -0.3765 -0.4673
   32SAPC   H4Y 4325   3.911   2.413   7.119  0.6668  1.2341 -0.2486
   32SAPC   C35 4326   4.069   2.308   7.204  0.3093  0.5074 -0.2072
   32SAPC   H5X 4327   4.109   2.403   7.245  2.7995 -0.4227 -0.2364
   32SAPC   H5Y 4328   4.145   2.226   7.200 -0.6143 -0.4096  0.5012
   32SAPC   C36 4329   3.976   2.257   7.315  0.1706 -0.0813  0.8919
   32SAPC   H6X 4330   3.940   2.156   7.283 -1.2986  0.3468  1.1150
   32SAPC   H6Y 4331   3.880   2.313   7.317 -0.0425 -0.3925  0.1091
   32SAPC   C37 4332   4.033   2.243   7.452  0.8173 -0.2442 -0.5141
   32SAPC   H7X 4333   3.996   2.331   7.508  2.8535  0.8790 -0.8695
   32SAPC   H7Y 4334   4.143   2.259   7.456  0.7525  0.6597 -1.7063
   32SAPC   C38 4335   3.987   2.112   7.524 -0.1128 -0.1565  0.0319
   32SAPC   H8X 4336   3.996   2.024   7.456  0.4120  0.2159 -0.3840
   32SAPC   H8Y 4337   3.877   2.126   7.537 -0.4640  1.1257 -3.2539
   32SAPC   C39 4338   4.062   2.083   7.656 -0.0130  0.3435  0.0932
   32SAPC   H9X 4339   4.029   2.172   7.713 -2.7321  1.3705 -2.8368
   32SAPC   H9Y 4340   4.171   2.067   7.639  0.3311  0.9560  1.5852
   32SAPC  C310 4341   4.008   1.961   7.742 -0.1565 -0.3256  0.3210
   32SAPC  H10X 4342   4.021   1.868   7.683  0.6272  0.0495 -0.1078
   32SAPC  H10Y 4343   3.899   1.975   7.762 -0.5876 -1.7175 -0.9598
   32SAPC  C311 4344   4.106   1.955   7.860  0.2167  0.2498 -0.1324
   32SAPC  H11X 4345   4.128   2.055   7.903  3.7424 -0.5772  0.2842
   32SAPC  H11Y 4346   4.204   1.912   7.829 -1.0780 -3.3565  0.3729
   32SAPC  C312 4347   4.052   1.873   7.978 -0.0806 -0.1743  1.0301
   32SAPC  H12X 4348   3.963   1.924   8.022 -0.1471  0.4292  0.2356
   32SAPC  H12Y 4349   4.138   1.876   8.048 -0.0091  0.7687  0.9204
   32SAPC  C313 4350   4.020   1.732   7.930 -0.3324 -0.2322  1.2863
   32SAPC  H13X 4351   4.105   1.700   7.867  0.2776  2.9249  0.3286
   32SAPC  H13Y 4352   3.931   1.734   7.863 -0.9662  1.2150  2.1202
   32SAPC  C314 4353   3.996   1.627   8.041 -0.0618  0.1201  0.2507
   32SAPC  H14X 4354   4.079   1.622   8.114  1.3794  0.5693 -1.2991
   32SAPC  H14Y 4355   3.998   1.532   7.985  4.2119 -0.8794  1.7748
   32SAPC  C315 4356   3.864   1.645   8.117  0.8626 -0.5206  0.5847
   32SAPC  H15X 4357   3.789   1.591   8.055  2.4798 -2.6290  0.3740
   32SAPC  H15Y 4358   3.852   1.755   8.123  1.6822 -0.2991 -1.1568
   32SAPC  C316 4359   3.867   1.583   8.258  0.1290 -0.0043  0.3876
   32SAPC  H16X 4360   3.925   1.659   8.316  0.1828  0.5060 -0.3307
   32SAPC  H16Y 4361   3.925   1.489   8.245 -0.9575 -0.4922 -1.1515
   32SAPC  C317 4362   3.737   1.545   8.331 -0.5488  0.7463  0.3038
   32SAPC  H17X 4363   3.748   1.476   8.417 -2.8558  0.5063  0.4621
   32SAPC  H17Y 4364   3.673   1.488   8.261  1.2554 -1.0881  0.0437
   32SAPC  C318 4365   3.656   1.668   8.370 -0.5322 -1.2416  0.6694
   32SAPC  H18X 4366   3.647   1.741   8.287  0.2103 -2.2472 -0.3252
   32SAPC  H18Y 4367   3.698   1.709   8.465 -1.1400  1.2822 -0.0694
   32SAPC  H18Z 4368   3.556   1.633   8.403 -0.9748  0.2155  0.9588
   33POPC     N 4369   5.735   4.349  10.773  0.0328 -0.6175  0.2346
   33POPC   C12 4370   5.812   4.321  10.650 -0.2628  0.0785  0.4449
   33POPC  H12A 4371   5.750   4.334  10.562 -0.2699 -0.8036  0.3044
   33POPC  H12B 4372   5.845   4.218  10.653  0.3295  0.2921  1.9676
   33POPC   C13 4373   5.595   4.307  10.764  0.2189 -0.2740 -0.2640
   33POPC  H13A 4374   5.583   4.202  10.740 -3.7256 -0.2656  1.0298
   33POPC  H13B 4375   5.542   4.330  10.856 -0.3208  0.7910 -0.8276
   33POPC  H13C 4376   5.535   4.353  10.688 -1.2924 -3.2840 -1.0679
   33POPC   C14 4377   5.793   4.279  10.883  0.6133 -0.6163 -0.3957
   33POPC  H14A 4378   5.807   4.176  10.853  1.6288 -0.7558  0.4872
   33POPC  H14B 4379   5.897   4.309  10.890  0.2227  0.9092 -0.7825
   33POPC  H14C 4380   5.726   4.288  10.967  0.3710 -1.1042 -0.5318
   33POPC   C15 4381   5.725   4.498  10.800  0.6074 -0.3033 -0.4702
   33POPC  H15A 4382   5.822   4.538  10.773 -0.1081  0.9268 -1.2859
   33POPC  H15B 4383   5.697   4.514  10.903 -0.4999 -2.3997 -0.3956
   33POPC  H15C 4384   5.649   4.534  10.733 -0.5409 -1.0510  0.4055
   33POPC   C11 4385   5.940   4.401  10.632 -0.6147 -0.4636  0.8534
   33POPC  H11A 4386   5.913   4.508  10.624  1.2456 -0.0044  0.1532
   33POPC  H11B 4387   5.985   4.371  10.535  1.0762  2.3944  0.6556
   33POPC     P 4388   6.143   4.464  10.783 -0.0037  0.4343  0.3774
   33POPC   O13 4389   6.211   4.384  10.891  0.4382  0.3557  0.2405
   33POPC   O14 4390   6.082   4.595  10.815 -0.5991  0.0616  0.1943
   33POPC   O12 4391   6.021   4.368  10.743 -1.3160  0.4116  0.3378
   33POPC   O11 4392   6.240   4.470  10.647  0.2377 -0.3452  0.4147
   33POPC    C1 4393   6.305   4.346  10.618 -0.4980 -0.0855  0.5604
   33POPC    HA 4394   6.389   4.338  10.689  1.3097  1.7642 -1.2290
   33POPC    HB 4395   6.231   4.264  10.626 -1.6172  0.6043 -1.6915
   33POPC    C2 4396   6.370   4.347  10.477 -0.1025  0.3369  0.6897
   33POPC    HS 4397   6.465   4.290  10.488  1.1002  2.3101  1.0262
   33POPC   O21 4398   6.395   4.487  10.440 -1.0092  0.2223 -0.2085
   33POPC   C21 4399   6.481   4.496  10.331 -0.2892  0.3173 -0.2357
   33POPC   O22 4400   6.545   4.399  10.287  1.0393  0.0093  0.5029
   33POPC   C22 4401   6.486   4.638  10.281  0.1841  0.3332 -0.4824
   33POPC   H2R 4402   6.586   4.679  10.307 -0.0435  0.9725 -0.5983
   33POPC   H2S 4403   6.405   4.700  10.323  0.1473  0.4312 -0.6952
   33POPC    C3 4404   6.264   4.283  10.373 -0.0295 -0.5642 -0.0885
   33POPC    HX 4405   6.177   4.351  10.379  1.2194  1.1211 -0.4179
   33POPC    HY 4406   6.237   4.184  10.415 -1.1175  0.8523  2.8165
   33POPC   O31 4407   6.307   4.279  10.229 -0.0953 -0.8500 -0.2324
   33POPC   C31 4408   6.270   4.158  10.172 -0.0693  0.2584 -1.1403
   33POPC   O32 4409   6.232   4.058  10.228 -0.5079  0.2994  0.0608
   33POPC   C32 4410   6.285   4.165  10.021  0.5386  0.4195 -0.1052
   33POPC   H2X 4411   6.350   4.251   9.994 -0.5487  1.4947  0.5854
   33POPC   H2Y 4412   6.184   4.175   9.977  0.7134  2.6062 -0.1483
   33POPC   C23 4413   6.456   4.659  10.132 -0.2503 -0.0583 -0.0681
   33POPC   H3R 4414   6.452   4.769  10.120 -1.4294 -0.2092 -1.3605
   33POPC   H3S 4415   6.351   4.628  10.111 -0.5454  0.7727  0.1575
   33POPC   C24 4416   6.562   4.595  10.038  0.2735  0.4512  0.2281
   33POPC   H4R 4417   6.531   4.489  10.022  0.6725  0.5250 -1.1550
   33POPC   H4S 4418   6.661   4.599  10.088  0.0850 -1.3379  0.8229
   33POPC   C25 4419   6.580   4.655   9.903 -0.1805  0.4668  0.8506
   33POPC   H5R 4420   6.687   4.640   9.875 -0.2952 -1.2470  1.1932
   33POPC   H5S 4421   6.562   4.764   9.912  1.0329  0.8129 -0.5151
   33POPC   C26 4422   6.485   4.599   9.793 -0.1072  0.0126 -0.5663
   33POPC   H6R 4423   6.385   4.576   9.836  0.7078 -2.8876 -0.0418
   33POPC   H6S 4424   6.516   4.495   9.770 -1.7346 -0.4780 -0.6941
   33POPC   C27 4425   6.472   4.690   9.670  0.1818  0.1731 -0.5075
   33POPC   H7R 4426   6.459   4.791   9.715  0.9208  0.1614 -0.2497
   33POPC   H7S 4427   6.378   4.668   9.615  0.3241  0.7938 -1.0076
   33POPC   C28 4428   6.601   4.711   9.590 -0.1796  0.3548 -0.3344
   33POPC   H8R 4429   6.679   4.741   9.663  0.7033 -1.7043 -0.3871
   33POPC   H8S 4430   6.585   4.793   9.516 -2.8893 -0.2730 -0.5604
   33POPC   C29 4431   6.632   4.570   9.540 -0.2637  0.2804  0.7414
   33POPC   H91 4432   6.674   4.495   9.607  1.5785 -0.3015 -0.9623
   33POPC  C210 4433   6.624   4.539   9.409 -0.1917  0.1776  0.2210
   33POPC  H101 4434   6.657   4.438   9.380  0.1780  1.0472 -2.7694
   33POPC  C211 4435   6.585   4.614   9.277 -0.0768 -0.2262 -0.6403
   33POPC  H11R 4436   6.543   4.714   9.300 -1.7126 -1.2383  1.0499
   33POPC  H11S 4437   6.510   4.556   9.219  2.2682 -2.2191 -1.8783
   33POPC  C212 4438   6.704   4.646   9.180  0.1327  1.1538  0.5285
   33POPC  H12R 4439   6.751   4.553   9.140  0.4500  1.0332  1.1739
   33POPC  H12S 4440   6.784   4.704   9.231  1.7447 -0.4967 -0.0265
   33POPC  C213 4441   6.662   4.739   9.068 -0.0374 -0.1629 -0.8464
   33POPC  H13R 4442   6.610   4.832   9.104 -2.0764 -1.3935 -0.4228
   33POPC  H13S 4443   6.581   4.700   9.003  0.5207  0.0747 -1.7051
   33POPC  C214 4444   6.785   4.788   8.985 -0.0176  0.2414 -0.5653
   33POPC  H14R 4445   6.828   4.697   8.939  1.3345 -0.2610  1.5633
   33POPC  H14S 4446   6.862   4.833   9.050  2.6784 -0.4504 -3.0696
   33POPC  C215 4447   6.744   4.887   8.877 -0.1888  0.5805 -0.6515
   33POPC  H15R 4448   6.648   4.934   8.910  0.4671  0.2668  1.8751
   33POPC  H15S 4449   6.723   4.830   8.783 -1.5292 -2.5420  1.3879
   33POPC  C216 4450   6.851   4.991   8.852  0.2072 -0.3589 -0.4342
   33POPC  H16R 4451   6.944   4.957   8.802  1.2970  2.7362 -0.6986
   33POPC  H16S 4452   6.890   5.032   8.947  0.5018 -0.0584 -0.6854
   33POPC  C217 4453   6.802   5.111   8.765  0.3328  0.9528  0.1630
   33POPC  H17R 4454   6.725   5.167   8.822 -1.5513 -0.7329 -0.5981
   33POPC  H17S 4455   6.759   5.080   8.668  1.7660 -0.4198 -0.0867
   33POPC  C218 4456   6.919   5.207   8.747  0.4327 -0.1789 -0.2703
   33POPC  H18R 4457   6.891   5.299   8.690  0.5072 -0.3628 -0.6052
   33POPC  H18S 4458   6.999   5.150   8.696  1.7783 -0.3906  1.9725
   33POPC  H18T 4459   6.971   5.223   8.844  0.3238 -0.7322 -0.1172
   33POPC   C33 4460   6.340   4.034   9.960 -0.0149  0.0282 -0.0168
   33POPC   H3X 4461   6.268   3.952   9.978 -0.7671  0.9712  1.5816
   33POPC   H3Y 4462   6.445   4.015   9.993 -0.6827 -2.2223  1.0162
   33POPC   C34 4463   6.351   4.039   9.809 -0.0566 -0.2323 -0.4485
   33POPC   H4X 4464   6.427   3.962   9.787  1.3908  1.0435 -0.0634
   33POPC   H4Y 4465   6.402   4.134   9.782 -0.7499  0.2722 -0.0293
   33POPC   C35 4466   6.223   4.024   9.737  0.7240 -0.0473  0.2297
   33POPC   H5X 4467   6.152   4.108   9.749 -1.2710 -1.4676 -0.8948
   33POPC   H5Y 4468   6.158   3.945   9.781 -1.5464  1.8096  0.4146
   33POPC   C36 4469   6.236   3.971   9.590  0.3900  0.1639 -0.1809
   33POPC   H6X 4470   6.136   3.940   9.554  1.4571 -1.7574 -1.6825
   33POPC   H6Y 4471   6.314   3.893   9.582  0.0813 -0.4985  2.5319
   33POPC   C37 4472   6.292   4.079   9.492  0.5071 -0.8259 -0.5648
   33POPC   H7X 4473   6.389   4.118   9.529 -0.6730 -1.9236  4.4493
   33POPC   H7Y 4474   6.224   4.167   9.490  1.2878 -0.2218 -2.6529
   33POPC   C38 4475   6.317   4.025   9.352 -0.4513 -1.2916  0.7234
   33POPC   H8X 4476   6.214   4.002   9.317 -0.5971  0.0090  0.2440
   33POPC   H8Y 4477   6.388   3.941   9.365  0.5516 -0.3573  1.5160
   33POPC   C39 4478   6.390   4.128   9.259  0.1908 -0.8012  0.0016
   33POPC   H9X 4479   6.482   4.161   9.312 -2.2393  4.5507  1.5820
   33POPC   H9Y 4480   6.326   4.219   9.260 -0.9048 -1.5501  1.2962
   33POPC  C310 4481   6.429   4.084   9.117  0.0097 -0.1409  0.1170
   33POPC  H10X 4482   6.338   4.046   9.067  0.1419 -0.1624 -0.1092
   33POPC  H10Y 4483   6.504   4.002   9.118  0.9573  0.6384 -1.5992
   33POPC  C311 4484   6.489   4.200   9.034 -0.0072  0.6849 -0.4442
   33POPC  H11X 4485   6.575   4.237   9.093  1.1887  0.0873 -1.7551
   33POPC  H11Y 4486   6.420   4.283   9.007 -1.4451 -1.0040 -2.2961
   33POPC  C312 4487   6.543   4.167   8.890  1.2287 -0.6504  0.6106
   33POPC  H12X 4488   6.621   4.087   8.892  3.1185  1.0795  0.0514
   33POPC  H12Y 4489   6.594   4.256   8.846  2.4251 -0.8562  1.5360
   33POPC  C313 4490   6.423   4.121   8.792  0.4629 -0.2042  0.1795
   33POPC  H13X 4491   6.340   4.194   8.810 -0.5778 -1.1262 -0.7297
   33POPC  H13Y 4492   6.401   4.019   8.829 -1.3537 -0.1576 -0.6615
   33POPC  C314 4493   6.469   4.125   8.644 -0.5479 -0.3356 -0.0051
   33POPC  H14X 4494   6.495   4.224   8.600  0.5476 -1.8157 -2.9424
   33POPC  H14Y 4495   6.386   4.083   8.583 -2.8567  4.1016 -0.3844
   33POPC  C315 4496   6.595   4.040   8.626  0.3929 -0.6470 -0.3811
   33POPC  H15X 4497   6.558   3.942   8.664 -0.7753  1.0206  3.2304
   33POPC  H15Y 4498   6.673   4.073   8.698  0.3047 -1.4385  0.0893
   33POPC  C316 4499   6.647   4.017   8.482 -0.2349 -0.2610 -0.3906
   33POPC  H16X 4500   6.683   4.112   8.435 -0.1381  0.2074  0.6140
   33POPC  H16Y 4501   6.575   3.974   8.410 -1.2383 -0.3374  0.6406
   33POPC  H16Z 4502   6.735   3.949   8.483  1.2476  1.5086 -1.9853
   34POPC     N 4503   6.275   4.921  10.962 -0.4708 -0.1541  0.6834
   34POPC   C12 4504   6.230   5.065  11.003 -0.3236  0.7693  0.8608
   34POPC  H12A 4505   6.274   5.078  11.101 -0.6417 -1.0323  1.2832
   34POPC  H12B 4506   6.123   5.070  11.015 -0.4766  3.0245 -0.7258
   34POPC   C13 4507   6.421   4.910  10.954  0.3252 -0.0531  0.0787
   34POPC  H13A 4508   6.471   4.933  11.046 -1.1503  0.4483  0.7854
   34POPC  H13B 4509   6.450   4.813  10.916  0.9667 -0.2857  1.1295
   34POPC  H13C 4510   6.455   4.983  10.883 -0.0182 -1.5229 -1.6967
   34POPC   C14 4511   6.239   4.817  11.067  0.1375  0.7008  0.0547
   34POPC  H14A 4512   6.132   4.801  11.078  0.4941 -2.2158 -0.1836
   34POPC  H14B 4513   6.291   4.727  11.042  1.1100  1.3153 -0.1764
   34POPC  H14C 4514   6.277   4.834  11.167  0.4884 -1.4866  0.3432
   34POPC   C15 4515   6.207   4.885  10.830  0.8921  0.0631 -0.1651
   34POPC  H15A 4516   6.225   4.781  10.806 -1.0964 -0.3733  0.0612
   34POPC  H15B 4517   6.248   4.935  10.744 -0.0245  1.2935  0.0831
   34POPC  H15C 4518   6.100   4.900  10.842  0.9200  0.8080 -0.7864
   34POPC   C11 4519   6.270   5.181  10.916 -0.1778  0.3995  0.1437
   34POPC  H11A 4520   6.244   5.271  10.976 -2.7281 -0.3100  0.2058
   34POPC  H11B 4521   6.200   5.186  10.830  0.6927  0.9245 -0.5514
   34POPC     P 4522   6.462   5.202  10.736 -0.2824  0.2285 -0.0521
   34POPC   O13 4523   6.464   5.071  10.663 -0.3131 -0.5828  0.0504
   34POPC   O14 4524   6.593   5.266  10.746 -0.1378 -0.2832  0.2049
   34POPC   O12 4525   6.405   5.187  10.880 -0.7854 -0.2174  0.1693
   34POPC   O11 4526   6.365   5.304  10.666  0.7232 -0.5103 -0.2280
   34POPC    C1 4527   6.407   5.407  10.569 -0.7005  0.4092  0.3922
   34POPC    HA 4528   6.506   5.449  10.600 -0.5290  0.4605 -0.2177
   34POPC    HB 4529   6.337   5.493  10.575  0.0770  1.0420  0.5926
   34POPC    C2 4530   6.411   5.355  10.419  0.1671  0.3739 -0.2321
   34POPC    HS 4531   6.443   5.249  10.427  0.9962  0.7380  2.7349
   34POPC   O21 4532   6.502   5.430  10.332 -0.3231  0.9487 -0.1015
   34POPC   C21 4533   6.630   5.394  10.348  0.2384 -0.3788  0.0171
   34POPC   O22 4534   6.673   5.295  10.409  0.5979 -0.7401  0.1604
   34POPC   C22 4535   6.718   5.508  10.288 -0.5610  0.7092  0.0951
   34POPC   H2R 4536   6.824   5.476  10.284 -0.5439  0.6827  0.6644
   34POPC   H2S 4537   6.708   5.589  10.363  2.9431 -0.6223  2.2022
   34POPC    C3 4538   6.263   5.350  10.371 -0.4847  0.0960 -0.1966
   34POPC    HX 4539   6.232   5.457  10.378  0.4011  0.3006  0.9209
   34POPC    HY 4540   6.199   5.291  10.440 -1.5867  0.3228 -0.9859
   34POPC   O31 4541   6.259   5.298  10.237  0.6268  0.0306  0.1802
   34POPC   C31 4542   6.287   5.167  10.217  0.7999 -0.0880 -0.5769
   34POPC   O32 4543   6.338   5.095  10.295 -0.0333  0.9197 -0.0743
   34POPC   C32 4544   6.260   5.123  10.075  0.0467 -0.0752 -0.1432
   34POPC   H2X 4545   6.319   5.188  10.007  0.1433  0.5749  0.5559
   34POPC   H2Y 4546   6.151   5.140  10.062  0.1908  1.2974  0.2524
   34POPC   C23 4547   6.678   5.558  10.143 -0.0424  0.2405  0.4150
   34POPC   H3R 4548   6.746   5.637  10.104 -2.4719  2.6842  0.8071
   34POPC   H3S 4549   6.585   5.618  10.153  0.6306  1.2291  0.9669
   34POPC   C24 4550   6.665   5.438  10.043  0.0954 -0.4006 -0.1765
   34POPC   H4R 4551   6.602   5.362  10.093 -2.0622  1.2206 -0.3043
   34POPC   H4S 4552   6.764   5.389  10.037 -0.3352 -1.4810  1.1870
   34POPC   C25 4553   6.589   5.471   9.915 -0.6944  0.1838 -0.0892
   34POPC   H5R 4554   6.644   5.558   9.872  0.6646  0.9913  2.9678
   34POPC   H5S 4555   6.484   5.505   9.924 -0.1829  2.7307 -2.3919
   34POPC   C26 4556   6.581   5.357   9.815 -0.0577  0.0200 -0.4144
   34POPC   H6R 4557   6.514   5.276   9.852  0.7877 -0.0788  1.0240
   34POPC   H6S 4558   6.680   5.311   9.795 -1.0610 -2.0241 -1.0018
   34POPC   C27 4559   6.524   5.391   9.678 -0.1526 -0.8550 -0.2032
   34POPC   H7R 4560   6.607   5.438   9.622 -0.9420  0.8681  0.0254
   34POPC   H7S 4561   6.441   5.464   9.686  1.8074  1.3052  2.3284
   34POPC   C28 4562   6.469   5.277   9.589  0.0216 -0.2080 -0.1422
   34POPC   H8R 4563   6.423   5.316   9.496  1.5259 -0.2130 -0.9241
   34POPC   H8S 4564   6.400   5.215   9.651  0.0910 -1.2010 -1.0318
   34POPC   C29 4565   6.581   5.182   9.548 -0.0114  0.0267  0.1288
   34POPC   H91 4566   6.580   5.086   9.602 -3.0757 -0.1397 -0.0507
   34POPC  C210 4567   6.663   5.190   9.439  0.5509  0.4934 -0.0165
   34POPC  H101 4568   6.727   5.102   9.420  1.6613  0.8096  2.0114
   34POPC  C211 4569   6.654   5.300   9.339 -0.1454 -0.6605  0.2215
   34POPC  H11R 4570   6.740   5.367   9.361  0.9197 -2.1781  0.8538
   34POPC  H11S 4571   6.558   5.356   9.345 -0.7578 -1.4119 -1.7285
   34POPC  C212 4572   6.657   5.240   9.193  0.1634 -0.1521  0.7773
   34POPC  H12R 4573   6.561   5.185   9.178 -0.5317  0.8331  1.4849
   34POPC  H12S 4574   6.735   5.163   9.180  0.3974  0.2320 -0.1341
   34POPC  C213 4575   6.681   5.349   9.085  0.3986 -0.3699 -0.6149
   34POPC  H13R 4576   6.597   5.421   9.073  0.0549 -0.6201  0.1956
   34POPC  H13S 4577   6.673   5.293   8.990 -2.9460 -0.2876 -0.5101
   34POPC  C214 4578   6.822   5.416   9.093  0.0590 -0.7594 -0.7593
   34POPC  H14R 4579   6.893   5.330   9.092 -1.3220 -1.9297 -0.7647
   34POPC  H14S 4580   6.827   5.464   9.194 -1.0039 -0.2359 -0.9467
   34POPC  C215 4581   6.852   5.520   8.992 -0.0737  0.4242  0.2522
   34POPC  H15R 4582   6.818   5.617   9.032 -0.1900  0.1986  0.7072
   34POPC  H15S 4583   6.790   5.499   8.902 -0.4524 -0.5569  0.7280
   34POPC  C216 4584   6.997   5.548   8.959 -0.1296 -0.2229 -0.1841
   34POPC  H16R 4585   7.033   5.453   8.915  1.0167 -0.0293  0.2905
   34POPC  H16S 4586   7.063   5.551   9.048  0.5729 -0.2810 -0.6944
   34POPC  C217 4587   7.022   5.669   8.867 -0.1937 -0.6280  0.0243
   34POPC  H17R 4588   6.978   5.755   8.923 -1.4354 -2.2372  1.6146
   34POPC  H17S 4589   6.953   5.654   8.781 -0.5890  1.3298 -0.0477
   34POPC  C218 4590   7.176   5.683   8.824  0.2183 -0.1742  0.5991
   34POPC  H18R 4591   7.198   5.593   8.762 -1.1585 -0.1349  0.0080
   34POPC  H18S 4592   7.246   5.715   8.904  2.3432  3.5190 -2.4111
   34POPC  H18T 4593   7.192   5.768   8.755 -0.2655  1.2947  2.2438
   34POPC   C33 4594   6.304   4.975  10.056  0.3513 -0.3235  0.2973
   34POPC   H3X 4595   6.265   4.919  10.144  2.9264 -0.9592  1.1523
   34POPC   H3Y 4596   6.415   4.968  10.060  0.5544  0.3820 -2.4197
   34POPC   C34 4597   6.228   4.911   9.936 -0.2504  0.2893 -0.1508
   34POPC   H4X 4598   6.121   4.910   9.968  0.1664  1.4291  1.3659
   34POPC   H4Y 4599   6.260   4.804   9.936 -3.7165 -0.8831 -0.1498
   34POPC   C35 4600   6.266   4.983   9.806 -0.9581 -0.2958 -0.2717
   34POPC   H5X 4601   6.376   4.994   9.798 -0.8191  1.3488  2.3591
   34POPC   H5Y 4602   6.221   5.085   9.815  1.5671  0.9472 -0.6296
   34POPC   C36 4603   6.209   4.925   9.681 -0.7106  0.4784  0.0240
   34POPC   H6X 4604   6.098   4.933   9.671 -0.7468 -0.5217 -0.4819
   34POPC   H6Y 4605   6.238   4.818   9.683  0.3227  0.7262 -0.8833
   34POPC   C37 4606   6.275   4.972   9.554 -0.9997  0.0112  0.2349
   34POPC   H7X 4607   6.386   4.965   9.562 -0.9237 -0.7020 -1.1068
   34POPC   H7Y 4608   6.253   5.079   9.536  1.6359  0.5634 -0.1579
   34POPC   C38 4609   6.232   4.888   9.435  0.8324 -0.1248  0.6467
   34POPC   H8X 4610   6.123   4.883   9.415  0.6110 -1.0149  1.9454
   34POPC   H8Y 4611   6.246   4.779   9.453 -0.4872 -0.4184  0.0185
   34POPC   C39 4612   6.313   4.933   9.311 -0.3285  0.3343 -0.1004
   34POPC   H9X 4613   6.422   4.928   9.330 -0.3478 -1.3345 -0.2544
   34POPC   H9Y 4614   6.294   5.040   9.287 -1.3936  0.0447 -0.6005
   34POPC  C310 4615   6.273   4.852   9.189 -0.0939 -0.3026  0.8491
   34POPC  H10X 4616   6.164   4.828   9.181  0.2458 -1.3601 -1.1324
   34POPC  H10Y 4617   6.314   4.750   9.181  0.0712 -0.1298 -0.8714
   34POPC  C311 4618   6.318   4.918   9.058  0.2213  1.0868  0.4325
   34POPC  H11X 4619   6.422   4.881   9.051 -1.1681 -3.6228  0.8400
   34POPC  H11Y 4620   6.300   5.026   9.040  1.0525  0.9848 -1.2044
   34POPC  C312 4621   6.242   4.846   8.938 -0.4924 -0.0705  0.1853
   34POPC  H12X 4622   6.135   4.872   8.954 -0.6341  0.7120 -1.7775
   34POPC  H12Y 4623   6.253   4.735   8.941 -1.2050 -0.1652 -0.3363
   34POPC  C313 4624   6.290   4.871   8.796 -0.1668 -0.4609 -0.1322
   34POPC  H13X 4625   6.313   4.979   8.784  1.3334 -0.9941 -2.8469
   34POPC  H13Y 4626   6.215   4.851   8.717 -1.2148 -1.5506  1.0658
   34POPC  C314 4627   6.414   4.783   8.761  0.8172  0.2353  0.2623
   34POPC  H14X 4628   6.388   4.676   8.766 -0.0335  0.4460  0.5180
   34POPC  H14Y 4629   6.497   4.802   8.833 -0.1317 -0.1783  1.4945
   34POPC  C315 4630   6.483   4.806   8.623 -0.0674 -0.6502 -0.5490
   34POPC  H15X 4631   6.562   4.729   8.609 -1.5559 -2.2268 -0.6548
   34POPC  H15Y 4632   6.544   4.898   8.628  0.3585 -0.8167 -2.2072
   34POPC  C316 4633   6.394   4.800   8.502 -0.6463 -0.8550 -0.2427
   34POPC  H16X 4634   6.325   4.713   8.510 -2.1108  0.0970 -1.7449
   34POPC  H16Y 4635   6.468   4.786   8.421  0.6004 -0.9087  0.8788
   34POPC  H16Z 4636   6.332   4.889   8.477 -1.0204 -1.2058 -0.5822
   35POPC     N 4637   6.565   2.389  11.002  0.7511 -0.0590  0.1034
   35POPC   C12 4638   6.696   2.313  10.960 -0.1469  0.2107 -0.5485
   35POPC  H12A 4639   6.775   2.380  10.930 -0.6963  0.2883 -1.8915
   35POPC  H12B 4640   6.679   2.262  10.867  1.7325 -0.3702 -0.6013
   35POPC   C13 4641   6.574   2.517  10.932 -0.2427  0.0755  0.4076
   35POPC  H13A 4642   6.665   2.568  10.957 -0.6937  1.0194  0.1667
   35POPC  H13B 4643   6.590   2.499  10.827 -1.6317 -0.5457  0.2710
   35POPC  H13C 4644   6.491   2.582  10.955 -0.6645 -1.2277  3.0116
   35POPC   C14 4645   6.439   2.324  10.963 -0.3415  0.2676  0.5727
   35POPC  H14A 4646   6.357   2.381  11.005 -1.9191  0.1017 -2.0363
   35POPC  H14B 4647   6.418   2.316  10.857  2.2820  0.6650 -0.0493
   35POPC  H14C 4648   6.457   2.225  11.002 -0.8439  0.0542  0.2738
   35POPC   C15 4649   6.563   2.404  11.151 -0.1471 -0.7691  0.0618
   35POPC  H15A 4650   6.507   2.488  11.188 -1.5177 -0.6731 -2.0824
   35POPC  H15B 4651   6.665   2.418  11.184 -0.5379 -2.3035  2.1854
   35POPC  H15C 4652   6.518   2.320  11.203 -0.9802 -0.5881 -0.3667
   35POPC   C11 4653   6.744   2.193  11.049  0.4956  0.1492 -0.5386
   35POPC  H11A 4654   6.783   2.236  11.144  0.7218  1.4568 -1.2038
   35POPC  H11B 4655   6.827   2.137  11.003 -0.0357 -0.1649 -1.1358
   35POPC     P 4656   6.608   1.990  10.968  0.1525  0.0110  0.0306
   35POPC   O13 4657   6.464   1.951  10.975  0.7951 -0.3193  0.4954
   35POPC   O14 4658   6.700   1.877  10.994  0.3322  0.3197  0.3395
   35POPC   O12 4659   6.632   2.108  11.069 -0.1921  0.6217 -0.4072
   35POPC   O11 4660   6.649   2.054  10.829  0.7410 -0.6464  0.2769
   35POPC    C1 4661   6.690   1.977  10.721 -0.2815 -0.2337 -0.4770
   35POPC    HA 4662   6.693   1.868  10.738 -2.0299 -0.0959  0.9983
   35POPC    HB 4663   6.796   1.999  10.694 -0.6201  1.0527 -0.8489
   35POPC    C2 4664   6.582   1.986  10.610 -0.4742  0.3237  0.3702
   35POPC    HS 4665   6.581   2.094  10.586  0.4090 -0.0041 -1.3505
   35POPC   O21 4666   6.456   1.937  10.656 -0.2357  0.2109  0.2394
   35POPC   C21 4667   6.346   1.995  10.606  0.2521  0.0983  0.4222
   35POPC   O22 4668   6.346   2.087  10.526  0.8853  0.7561  0.0629
   35POPC   C22 4669   6.218   1.926  10.656 -0.0650  0.0217  0.3400
   35POPC   H2R 4670   6.247   1.856  10.736  0.5448  1.6185  1.5722
   35POPC   H2S 4671   6.164   1.880  10.570 -0.5787  1.1649  0.0281
   35POPC    C3 4672   6.629   1.902  10.487 -0.1011  0.0520 -0.1466
   35POPC    HX 4673   6.652   1.795  10.508  0.1780 -0.1165 -1.2502
   35POPC    HY 4674   6.730   1.937  10.459  0.4920 -1.7408 -0.4025
   35POPC   O31 4675   6.539   1.923  10.369 -0.5224  0.2577 -0.1226
   35POPC   C31 4676   6.547   2.038  10.307 -0.5329  0.3541  0.2078
   35POPC   O32 4677   6.634   2.121  10.337  0.2364 -0.1516  0.0186
   35POPC   C32 4678   6.458   2.032  10.181  0.4512 -0.5718 -0.5372
   35POPC   H2X 4679   6.485   2.126  10.129 -0.7115  0.1221  0.0632
   35POPC   H2Y 4680   6.354   2.045  10.217  1.0840  0.3134  1.1114
   35POPC   C23 4681   6.119   2.032  10.710 -0.9144 -0.8828  0.2284
   35POPC   H3R 4682   6.129   2.127  10.654  4.0692 -2.0252 -1.3177
   35POPC   H3S 4683   6.147   2.054  10.816 -0.9685 -0.7572  0.2166
   35POPC   C24 4684   5.974   1.985  10.700  0.9941 -0.1735  0.2633
   35POPC   H4R 4685   5.900   2.046  10.755 -0.9270  0.0770 -2.4127
   35POPC   H4S 4686   5.968   1.880  10.737  0.0483 -0.2029  0.0358
   35POPC   C25 4687   5.910   1.973  10.556 -0.8282 -0.0762  0.4194
   35POPC   H5R 4688   5.803   1.944  10.564 -0.2828 -2.8668 -1.1389
   35POPC   H5S 4689   5.969   1.886  10.520  1.5326  0.8523  1.7907
   35POPC   C26 4690   5.935   2.095  10.451  0.4727  0.0768 -0.8420
   35POPC   H6R 4691   5.888   2.041  10.366 -0.7691  0.0395 -0.1503
   35POPC   H6S 4692   6.043   2.120  10.447  0.5884  1.0798  3.4709
   35POPC   C27 4693   5.858   2.221  10.492 -0.1608  0.1023  0.1941
   35POPC   H7R 4694   5.911   2.269  10.577  1.3616 -0.7459 -0.2402
   35POPC   H7S 4695   5.753   2.195  10.515 -0.1455 -2.0098 -1.8111
   35POPC   C28 4696   5.863   2.329  10.381 -0.2204  0.2237 -0.1937
   35POPC   H8R 4697   5.820   2.291  10.286  2.1522 -1.4922 -0.6756
   35POPC   H8S 4698   5.972   2.336  10.363  0.8212 -0.9135  4.2687
   35POPC   C29 4699   5.809   2.463  10.420 -0.1369  0.1393  0.2133
   35POPC   H91 4700   5.831   2.496  10.522 -0.8489  0.2180  0.3490
   35POPC  C210 4701   5.727   2.539  10.346 -0.2278  0.3072  0.3002
   35POPC  H101 4702   5.691   2.634  10.388  3.4787  1.7235  0.6331
   35POPC  C211 4703   5.679   2.520  10.206  0.3706 -0.0649  1.3556
   35POPC  H11R 4704   5.570   2.501  10.201  0.6252 -1.5159 -2.5263
   35POPC  H11S 4705   5.711   2.429  10.150 -0.0785  0.2992  0.4914
   35POPC  C212 4706   5.723   2.630  10.111  0.9302 -0.1719  0.1188
   35POPC  H12R 4707   5.829   2.655  10.130  0.9939 -0.7871  0.6263
   35POPC  H12S 4708   5.657   2.719  10.123  2.1984  0.9246 -0.7425
   35POPC  C213 4709   5.688   2.580   9.968 -0.0269 -0.3529 -0.4460
   35POPC  H13R 4710   5.582   2.549   9.977  0.4655 -1.8844  0.6527
   35POPC  H13S 4711   5.747   2.490   9.939 -0.0464 -1.6454  3.0600
   35POPC  C214 4712   5.710   2.686   9.852  0.6299  0.2809 -0.0318
   35POPC  H14R 4713   5.819   2.701   9.839  0.4397 -0.3077 -2.9362
   35POPC  H14S 4714   5.661   2.784   9.872  1.8656  0.7239  0.8883
   35POPC  C215 4715   5.664   2.626   9.715  0.2403  0.4160 -0.3791
   35POPC  H15R 4716   5.557   2.597   9.721  0.2872  0.4198  0.7403
   35POPC  H15S 4717   5.718   2.530   9.700  0.5268  0.7314 -1.4619
   35POPC  C216 4718   5.694   2.723   9.606 -0.3897 -0.5418 -0.4980
   35POPC  H16R 4719   5.804   2.738   9.599 -0.3667 -0.4448  0.0690
   35POPC  H16S 4720   5.643   2.821   9.617  0.5544 -0.1179  0.1698
   35POPC  C217 4721   5.657   2.665   9.471 -0.5673  0.0910  0.1346
   35POPC  H17R 4722   5.690   2.734   9.391  1.2802 -1.0816 -0.1923
   35POPC  H17S 4723   5.546   2.654   9.474 -0.3666 -2.5621  1.2565
   35POPC  C218 4724   5.738   2.547   9.423  0.0674 -0.0990 -0.6757
   35POPC  H18R 4725   5.846   2.574   9.419 -0.1496  0.7965 -0.6554
   35POPC  H18S 4726   5.709   2.504   9.325  3.3532 -1.2103 -1.3013
   35POPC  H18T 4727   5.730   2.462   9.494  1.9393 -0.0357 -0.3288
   35POPC   C33 4728   6.464   1.896  10.100 -0.3460  0.2044 -0.3631
   35POPC   H3X 4729   6.369   1.885  10.044 -0.3413 -3.3904  0.1055
   35POPC   H3Y 4730   6.459   1.813  10.173 -0.4141  0.1527 -0.4274
   35POPC   C34 4731   6.580   1.887   9.995 -0.3316 -0.7131  0.5315
   35POPC   H4X 4732   6.595   1.784   9.957  1.4169 -0.5953  0.7953
   35POPC   H4Y 4733   6.673   1.904  10.054 -0.3648 -0.3950  0.4931
   35POPC   C35 4734   6.588   1.998   9.891  0.2643  0.2373  0.2552
   35POPC   H5X 4735   6.633   2.092   9.929 -0.4039  0.3487  0.8042
   35POPC   H5Y 4736   6.491   2.012   9.839 -0.9292  1.1295  2.5550
   35POPC   C36 4737   6.673   1.942   9.777 -0.3251 -0.1084  0.5420
   35POPC   H6X 4738   6.629   1.853   9.728 -1.4874  1.4528 -1.3951
   35POPC   H6Y 4739   6.767   1.907   9.826 -0.3080 -0.1007  0.5160
   35POPC   C37 4740   6.680   2.032   9.650  0.7160 -0.2123  0.1878
   35POPC   H7X 4741   6.729   2.124   9.689  0.8359 -1.5215  3.4146
   35POPC   H7Y 4742   6.587   2.082   9.616  1.0424  0.6039  0.4504
   35POPC   C38 4743   6.752   1.977   9.521  0.1493 -0.3659 -0.2227
   35POPC   H8X 4744   6.849   1.929   9.547 -0.7512 -2.1418  0.0338
   35POPC   H8Y 4745   6.769   2.062   9.451 -1.0328 -0.8117 -1.0749
   35POPC   C39 4746   6.675   1.870   9.443 -0.5947  0.0440  0.5604
   35POPC   H9X 4747   6.568   1.900   9.439 -0.1411  1.6825 -0.0628
   35POPC   H9Y 4748   6.684   1.770   9.491  1.0844 -0.4362 -0.6582
   35POPC  C310 4749   6.727   1.858   9.297  0.3610 -0.1851  0.1080
   35POPC  H10X 4750   6.828   1.812   9.295 -0.8130 -2.9253 -1.0994
   35POPC  H10Y 4751   6.729   1.961   9.254  1.7529 -0.4756 -0.5768
   35POPC  C311 4752   6.644   1.767   9.203  0.8442  0.3005 -0.1307
   35POPC  H11X 4753   6.534   1.784   9.197  0.9052  0.9261  0.3416
   35POPC  H11Y 4754   6.643   1.659   9.228 -1.9315  0.2380 -0.1878
   35POPC  C312 4755   6.668   1.781   9.050 -0.6109 -0.6864 -0.1811
   35POPC  H12X 4756   6.773   1.753   9.029  0.1250  0.3788  1.7973
   35POPC  H12Y 4757   6.655   1.885   9.013  2.1281  0.4185  1.6587
   35POPC  C313 4758   6.560   1.700   8.976 -0.5016  0.0165  0.2481
   35POPC  H13X 4759   6.465   1.750   8.948 -1.4384 -1.9194 -0.1971
   35POPC  H13Y 4760   6.534   1.615   9.044  1.7951 -1.7017 -0.8899
   35POPC  C314 4761   6.623   1.649   8.843 -0.2058 -0.2728  0.3502
   35POPC  H14X 4762   6.716   1.593   8.865 -0.6253 -0.6706  1.1404
   35POPC  H14Y 4763   6.660   1.734   8.780  0.2322 -1.1248 -0.5768
   35POPC  C315 4764   6.530   1.572   8.760 -0.1350 -0.6833  0.9360
   35POPC  H15X 4765   6.427   1.614   8.759  0.9345  2.1926 -0.6348
   35POPC  H15Y 4766   6.513   1.472   8.805  2.0091 -0.5927  2.0721
   35POPC  C316 4767   6.577   1.560   8.611 -0.4355 -0.1433 -0.3019
   35POPC  H16X 4768   6.675   1.510   8.616  0.7546  2.1508  2.9241
   35POPC  H16Y 4769   6.581   1.657   8.558 -3.4481  0.8895  1.0850
   35POPC  H16Z 4770   6.503   1.496   8.558 -0.8957 -0.1509  0.3216
   36POPC     N 4771   6.485   6.145  10.784 -0.1920 -0.3764  0.1634
   36POPC   C12 4772   6.451   6.221  10.916 -0.2735  0.2660  0.3127
   36POPC  H12A 4773   6.518   6.301  10.943 -1.7201  1.7804 -0.4007
   36POPC  H12B 4774   6.453   6.151  10.998 -2.0399 -0.5151 -0.2657
   36POPC   C13 4775   6.470   6.241  10.676  0.0800 -0.7991 -0.6389
   36POPC  H13A 4776   6.524   6.333  10.692 -0.4275 -0.8777  2.0123
   36POPC  H13B 4777   6.502   6.204  10.580  0.0465 -1.4284 -0.4133
   36POPC  H13C 4778   6.366   6.268  10.670  0.0905 -0.5520  0.1314
   36POPC   C14 4779   6.620   6.078  10.791 -0.1505  0.3122  0.2071
   36POPC  H14A 4780   6.619   5.998  10.863 -1.1802  0.4840  0.4000
   36POPC  H14B 4781   6.650   6.024  10.702 -2.0190 -0.7495  0.1809
   36POPC  H14C 4782   6.704   6.141  10.817  1.4356 -1.4165 -0.4547
   36POPC   C15 4783   6.391   6.038  10.768  0.9342  0.2677 -0.2780
   36POPC  H15A 4784   6.352   5.983  10.852  0.0232 -0.8084 -1.3629
   36POPC  H15B 4785   6.412   5.968  10.688  2.0028 -0.4183  0.5758
   36POPC  H15C 4786   6.299   6.087  10.741  0.7325  0.8621  1.4132
   36POPC   C11 4787   6.323   6.305  10.919  0.2577 -0.3621 -0.4666
   36POPC  H11A 4788   6.300   6.315  11.027  1.1632  2.7158 -0.4681
   36POPC  H11B 4789   6.238   6.263  10.861 -0.3954 -1.3271  1.1194
   36POPC     P 4790   6.310   6.571  10.905 -0.2239 -0.0152  0.3391
   36POPC   O13 4791   6.412   6.672  10.877  0.0620  0.2770  0.0648
   36POPC   O14 4792   6.240   6.588  11.033  0.0030  0.0028 -0.2745
   36POPC   O12 4793   6.365   6.430  10.886 -0.2462  0.0279  0.3974
   36POPC   O11 4794   6.201   6.586  10.794  0.5062  0.1174  0.5612
   36POPC    C1 4795   6.209   6.514  10.668 -0.0407 -0.8590  0.2696
   36POPC    HA 4796   6.243   6.409  10.682  0.1828 -0.9995 -1.1762
   36POPC    HB 4797   6.285   6.561  10.602 -1.6801 -1.0885 -1.9018
   36POPC    C2 4798   6.077   6.515  10.588  1.1889  0.0167 -0.0471
   36POPC    HS 4799   6.088   6.469  10.487  2.6558 -1.7170  0.8358
   36POPC   O21 4800   6.028   6.656  10.576  0.3977  0.0282 -1.0658
   36POPC   C21 4801   6.090   6.725  10.481  0.3421  0.2053  0.2462
   36POPC   O22 4802   6.189   6.689  10.418 -0.2406 -0.1095  0.4457
   36POPC   C22 4803   6.007   6.846  10.447 -0.1505  0.6639 -0.3195
   36POPC   H2R 4804   6.072   6.930  10.417  2.6512 -1.2015  0.1422
   36POPC   H2S 4805   5.960   6.876  10.543  0.9670  0.7497  0.2160
   36POPC    C3 4806   5.978   6.436  10.672 -0.5166  0.1959 -0.4083
   36POPC    HX 4807   5.971   6.489  10.770 -1.3212 -0.5762 -0.0263
   36POPC    HY 4808   6.020   6.336  10.694  0.7661  0.7606 -0.2023
   36POPC   O31 4809   5.843   6.438  10.617  0.2817 -0.4833  0.1420
   36POPC   C31 4810   5.812   6.343  10.529 -0.0386  0.5468  0.3670
   36POPC   O32 4811   5.870   6.237  10.519  0.4476 -0.0066  0.2667
   36POPC   C32 4812   5.694   6.385  10.435 -0.6422 -0.5202 -0.0619
   36POPC   H2X 4813   5.634   6.468  10.478 -2.7250 -1.3712 -1.1715
   36POPC   H2Y 4814   5.637   6.289  10.435 -1.2162 -0.1827  0.0722
   36POPC   C23 4815   5.887   6.818  10.357  0.5069  0.4022  0.9213
   36POPC   H3R 4816   5.829   6.913  10.358  0.7958  0.6127 -0.4975
   36POPC   H3S 4817   5.824   6.734  10.393 -0.3962  0.5573 -0.2208
   36POPC   C24 4818   5.925   6.801  10.213  0.2872 -0.1914  1.0577
   36POPC   H4R 4819   5.989   6.713  10.190 -0.3012 -0.2436 -0.4768
   36POPC   H4S 4820   5.983   6.894  10.195  1.5610 -0.8237  1.7639
   36POPC   C25 4821   5.806   6.809  10.112  0.3558  0.2617  0.5967
   36POPC   H5R 4822   5.757   6.908  10.109  1.2228  0.7548  1.9274
   36POPC   H5S 4823   5.728   6.733  10.134 -0.0038  0.3974 -0.1703
   36POPC   C26 4824   5.856   6.775   9.972  0.0841  0.1181  0.4748
   36POPC   H6R 4825   5.912   6.679   9.974 -0.9958 -0.5625 -0.4965
   36POPC   H6S 4826   5.919   6.864   9.949 -0.1945  0.2271  0.1347
   36POPC   C27 4827   5.735   6.765   9.874 -0.0144  0.5369  0.2041
   36POPC   H7R 4828   5.683   6.862   9.882  1.9397  1.5898  0.7877
   36POPC   H7S 4829   5.662   6.693   9.918  0.7542  0.0470  0.7168
   36POPC   C28 4830   5.769   6.706   9.733  0.3723 -0.1336 -0.5676
   36POPC   H8R 4831   5.682   6.653   9.691  0.2488 -0.5669  0.2100
   36POPC   H8S 4832   5.852   6.634   9.750  1.0234  0.9203  0.9414
   36POPC   C29 4833   5.813   6.821   9.643 -0.6963  1.0286  0.2023
   36POPC   H91 4834   5.813   6.914   9.701  1.4633 -0.2594  2.5165
   36POPC  C210 4835   5.870   6.809   9.520 -0.4675  0.1432 -0.5517
   36POPC  H101 4836   5.919   6.903   9.487 -2.5985  2.5020  2.5055
   36POPC  C211 4837   5.896   6.676   9.455  0.3361  0.7489 -0.2595
   36POPC  H11R 4838   5.871   6.598   9.529 -0.8351  0.6899 -0.6931
   36POPC  H11S 4839   6.005   6.656   9.452 -0.2595 -3.2540 -1.5063
   36POPC  C212 4840   5.825   6.661   9.317  0.0543 -0.0010  0.0744
   36POPC  H12R 4841   5.863   6.726   9.235  0.5607  0.7116  0.8580
   36POPC  H12S 4842   5.720   6.684   9.344 -0.1545 -0.3436 -0.4247
   36POPC  C213 4843   5.823   6.521   9.251 -0.6228  0.1058 -0.6911
   36POPC  H13R 4844   5.767   6.453   9.319  1.8995 -0.8289  0.5862
   36POPC  H13S 4845   5.925   6.478   9.236 -0.9301 -1.1186  0.5158
   36POPC  C214 4846   5.745   6.518   9.121  0.4335  0.3784 -0.2386
   36POPC  H14R 4847   5.811   6.543   9.035  3.1160 -1.4312  1.1158
   36POPC  H14S 4848   5.671   6.600   9.124 -0.0296 -0.0498  0.3883
   36POPC  C215 4849   5.688   6.380   9.084  0.0789 -0.4887  0.5462
   36POPC  H15R 4850   5.614   6.349   9.160 -2.6740  0.0520 -1.7450
   36POPC  H15S 4851   5.768   6.303   9.070 -0.5299 -0.9158 -0.7678
   36POPC  C216 4852   5.615   6.379   8.952 -0.0101  0.1125  0.3112
   36POPC  H16R 4853   5.700   6.392   8.883  0.7183  2.3151  1.5102
   36POPC  H16S 4854   5.552   6.471   8.953  0.5044  0.5058 -1.2773
   36POPC  C217 4855   5.525   6.265   8.923  0.0500 -0.0121 -0.0250
   36POPC  H17R 4856   5.434   6.263   8.986  2.0552 -1.4576  3.0557
   36POPC  H17S 4857   5.598   6.182   8.938  1.0345  0.8945  0.2937
   36POPC  C218 4858   5.477   6.256   8.772 -0.8964 -0.1569 -0.4326
   36POPC  H18R 4859   5.423   6.343   8.728 -1.4949 -0.1392  0.3065
   36POPC  H18S 4860   5.402   6.175   8.759 -1.3321  0.2057 -0.2067
   36POPC  H18T 4861   5.568   6.222   8.718  1.1523  2.3602  1.2224
   36POPC   C33 4862   5.739   6.449  10.297 -0.0852 -0.0201 -0.6357
   36POPC   H3X 4863   5.813   6.528  10.320 -0.5852 -0.4068  2.7790
   36POPC   H3Y 4864   5.648   6.494  10.253 -0.1354  0.4830 -0.0326
   36POPC   C34 4865   5.790   6.347  10.201 -0.0974 -0.1266  0.0389
   36POPC   H4X 4866   5.718   6.263  10.201 -0.7126  0.3978  0.0466
   36POPC   H4Y 4867   5.886   6.302  10.234 -0.2174 -1.2167 -1.0246
   36POPC   C35 4868   5.804   6.402  10.063  0.4333 -0.0375  1.3523
   36POPC   H5X 4869   5.894   6.468  10.060  0.2916  0.1885  1.9161
   36POPC   H5Y 4870   5.710   6.441  10.018 -0.2029 -1.0950  1.7397
   36POPC   C36 4871   5.838   6.291   9.956  0.2187 -0.0579 -0.5220
   36POPC   H6X 4872   5.940   6.254   9.978  0.7838  0.9566 -1.3666
   36POPC   H6Y 4873   5.834   6.347   9.860 -0.6629 -1.1185 -1.1377
   36POPC   C37 4874   5.731   6.180   9.941 -0.0837 -0.4443  0.5325
   36POPC   H7X 4875   5.644   6.224   9.887  1.2454 -0.5495 -1.8127
   36POPC   H7Y 4876   5.689   6.142  10.037 -0.8035 -0.6615  0.1418
   36POPC   C38 4877   5.778   6.060   9.856  0.3238  0.6347 -0.5398
   36POPC   H8X 4878   5.698   5.983   9.852  2.3537 -1.7262  1.4523
   36POPC   H8Y 4879   5.849   5.996   9.911 -0.1865  0.1649 -0.4243
   36POPC   C39 4880   5.832   6.098   9.714  0.4652  0.0228 -0.3272
   36POPC   H9X 4881   5.876   6.003   9.676 -0.1711 -0.7964  0.9109
   36POPC   H9Y 4882   5.920   6.165   9.711  2.1360 -2.0498 -2.9531
   36POPC  C310 4883   5.726   6.156   9.621 -0.0581 -0.2309 -0.5533
   36POPC  H10X 4884   5.680   6.243   9.673  1.2180 -0.5004  1.1203
   36POPC  H10Y 4885   5.643   6.085   9.601  0.6669 -0.8389 -1.5025
   36POPC  C311 4886   5.758   6.189   9.473 -0.3241 -0.1727  0.2888
   36POPC  H11X 4887   5.853   6.245   9.471 -0.3395 -0.1335  0.5539
   36POPC  H11Y 4888   5.676   6.250   9.429 -1.0556 -2.2320 -1.3367
   36POPC  C312 4889   5.770   6.064   9.382  0.1193 -0.7116 -0.1053
   36POPC  H12X 4890   5.678   6.002   9.386  1.2391 -2.4129  0.2469
   36POPC  H12Y 4891   5.861   6.010   9.416  0.5858 -0.3573 -0.7609
   36POPC  C313 4892   5.794   6.088   9.236  0.0329 -0.5769  0.7833
   36POPC  H13X 4893   5.878   6.158   9.215  1.1735 -1.8709  0.8414
   36POPC  H13Y 4894   5.705   6.141   9.196  0.6007  0.3901  0.7696
   36POPC  C314 4895   5.827   5.966   9.145 -0.3660  0.4007  0.1233
   36POPC  H14X 4896   5.732   5.908   9.152 -0.0937  0.1068  1.6770
   36POPC  H14Y 4897   5.907   5.900   9.183  0.3025  0.0111 -1.8123
   36POPC  C315 4898   5.852   5.997   9.001  0.2237  0.6941 -0.3894
   36POPC  H15X 4899   5.932   6.074   8.991 -0.7452  1.8906  0.7034
   36POPC  H15Y 4900   5.760   6.032   8.949 -0.1806  0.2393  0.0146
   36POPC  C316 4901   5.904   5.872   8.929 -0.4606  0.2597 -0.1181
   36POPC  H16X 4902   5.925   5.899   8.823 -0.3183 -0.3723 -0.2516
   36POPC  H16Y 4903   5.827   5.794   8.916  1.5769 -1.8985  0.1639
   36POPC  H16Z 4904   5.992   5.826   8.979 -1.8090 -0.7589  1.4237
   37POPC     N 4905   5.339   3.257   6.427 -0.7435  0.4842  0.0768
   37POPC   C12 4906   5.414   3.184   6.543 -0.2227 -0.7191  0.2172
   37POPC  H12A 4907   5.476   3.259   6.589 -0.7256 -0.1637  0.0032
   37POPC  H12B 4908   5.472   3.109   6.491  3.5687  2.0188  0.0886
   37POPC   C13 4909   5.273   3.380   6.474  0.8799  0.5878 -0.2243
   37POPC  H13A 4910   5.199   3.355   6.548  0.8945 -0.2221 -0.4711
   37POPC  H13B 4911   5.335   3.456   6.519 -0.2592 -0.8259  4.2777
   37POPC  H13C 4912   5.219   3.417   6.388  0.4607 -0.0772 -0.2565
   37POPC   C14 4913   5.432   3.299   6.319  0.3795  0.0794 -0.2785
   37POPC  H14A 4914   5.464   3.206   6.274 -0.5747  0.3041 -1.4823
   37POPC  H14B 4915   5.393   3.364   6.242  3.9042 -0.5647 -2.9090
   37POPC  H14C 4916   5.516   3.353   6.359 -0.6263  1.2799  0.2906
   37POPC   C15 4917   5.237   3.166   6.366  0.2040 -0.6101 -0.0097
   37POPC  H15A 4918   5.184   3.121   6.449 -1.0295 -0.0508 -0.4590
   37POPC  H15B 4919   5.283   3.092   6.302 -0.1136  0.4184 -1.4865
   37POPC  H15C 4920   5.165   3.221   6.307 -2.4146 -1.4134  2.2337
   37POPC   C11 4921   5.343   3.119   6.661  0.6467 -0.3979 -0.5180
   37POPC  H11A 4922   5.299   3.206   6.715  1.7651  0.1135 -0.3877
   37POPC  H11B 4923   5.417   3.079   6.733  1.1717  0.2746 -0.6727
   37POPC     P 4924   5.255   2.881   6.585 -0.3804 -0.2216 -0.1829
   37POPC   O13 4925   5.339   2.876   6.460 -0.0298 -0.1253 -0.3243
   37POPC   O14 4926   5.125   2.814   6.577 -0.1582  0.2146 -0.1083
   37POPC   O12 4927   5.238   3.029   6.633 -0.3302 -0.0029  0.1511
   37POPC   O11 4928   5.333   2.816   6.705 -0.4468  0.3381  0.0388
   37POPC    C1 4929   5.283   2.831   6.834  0.5124  0.6312 -0.5038
   37POPC    HA 4930   5.201   2.905   6.845 -0.4938 -0.7288  1.8929
   37POPC    HB 4931   5.365   2.851   6.907 -0.5561 -0.2037  0.9850
   37POPC    C2 4932   5.210   2.699   6.871  0.0883 -0.1065  0.1254
   37POPC    HS 4933   5.131   2.665   6.800  0.6779 -0.5597 -0.3238
   37POPC   O21 4934   5.153   2.712   7.000  0.1109  0.3890 -0.6594
   37POPC   C21 4935   5.032   2.748   7.002 -0.0011  0.1442 -0.0980
   37POPC   O22 4936   4.968   2.794   6.905  0.4579  0.3978 -0.1273
   37POPC   C22 4937   4.987   2.733   7.144 -0.2492 -0.5830 -0.5624
   37POPC   H2R 4938   5.047   2.813   7.191  0.6777 -1.6476  0.1197
   37POPC   H2S 4939   5.009   2.632   7.185  0.1764 -0.1371  0.3392
   37POPC    C3 4940   5.305   2.581   6.877  0.1914 -0.0209  0.4569
   37POPC    HX 4941   5.392   2.603   6.942  0.1042 -0.3881  0.7087
   37POPC    HY 4942   5.329   2.547   6.774  1.1151 -1.0396  0.9820
   37POPC   O31 4943   5.250   2.458   6.931  0.0357  0.5251  0.8003
   37POPC   C31 4944   5.149   2.394   6.867 -0.2663 -0.2797  0.0327
   37POPC   O32 4945   5.096   2.440   6.770 -0.2110  0.6466  0.2821
   37POPC   C32 4946   5.100   2.274   6.955 -1.0012 -0.0100  0.1218
   37POPC   H2X 4947   5.170   2.193   6.923 -1.7241  0.7007 -3.8638
   37POPC   H2Y 4948   4.995   2.246   6.931 -0.8710 -1.0143  0.7002
   37POPC   C23 4949   4.837   2.776   7.144 -0.1975  0.4986 -0.7712
   37POPC   H3R 4950   4.780   2.730   7.061  0.7309  0.6620 -1.5209
   37POPC   H3S 4951   4.829   2.886   7.127  0.3728  0.2656 -2.8565
   37POPC   C24 4952   4.766   2.748   7.285 -0.7138 -0.2284 -0.2953
   37POPC   H4R 4953   4.754   2.639   7.303  3.9151 -1.0302 -0.7482
   37POPC   H4S 4954   4.664   2.790   7.270 -0.7306  0.3326  1.2521
   37POPC   C25 4955   4.829   2.817   7.409  0.8261 -0.0820  0.0405
   37POPC   H5R 4956   4.843   2.925   7.391 -0.1400 -0.1188 -1.0657
   37POPC   H5S 4957   4.931   2.779   7.429 -0.0775 -2.0407  1.3175
   37POPC   C26 4958   4.745   2.790   7.534 -0.0094 -0.7610 -0.0756
   37POPC   H6R 4959   4.743   2.683   7.563  1.0612 -0.1610  2.4239
   37POPC   H6S 4960   4.648   2.836   7.506  0.6708 -0.1625 -1.5885
   37POPC   C27 4961   4.797   2.863   7.662  0.2380 -0.9823 -0.9105
   37POPC   H7R 4962   4.784   2.973   7.650 -0.3376 -1.2151 -2.5997
   37POPC   H7S 4963   4.908   2.853   7.654  0.0595 -2.3052 -2.1669
   37POPC   C28 4964   4.757   2.798   7.801  0.2930  0.4963  0.4766
   37POPC   H8R 4965   4.826   2.852   7.869 -0.6480  3.6807 -0.9104
   37POPC   H8S 4966   4.788   2.692   7.805  0.2854  0.4350 -0.7527
   37POPC   C29 4967   4.612   2.827   7.842  0.3657 -0.5228  0.6780
   37POPC   H91 4968   4.540   2.815   7.760  0.2581  2.6415  0.1829
   37POPC  C210 4969   4.568   2.877   7.958 -0.4689  0.1138  0.5901
   37POPC  H101 4970   4.461   2.896   7.973 -1.2654 -1.9853 -1.7086
   37POPC  C211 4971   4.660   2.903   8.076  0.2041 -0.0391 -0.3739
   37POPC  H11R 4972   4.716   2.998   8.064  1.3675 -0.4984  1.0558
   37POPC  H11S 4973   4.741   2.827   8.073  0.5802  0.3235  0.2991
   37POPC  C212 4974   4.588   2.877   8.211 -0.3553  0.0927 -0.2043
   37POPC  H12R 4975   4.485   2.917   8.196 -0.5538  0.0572  0.9016
   37POPC  H12S 4976   4.644   2.930   8.292 -1.2701  2.3271 -0.9577
   37POPC  C213 4977   4.574   2.727   8.248 -0.2345  0.6936  0.6597
   37POPC  H13R 4978   4.680   2.698   8.268  0.5369  1.5477 -1.7324
   37POPC  H13S 4979   4.541   2.667   8.160  0.0577 -0.1024  1.0797
   37POPC  C214 4980   4.478   2.702   8.362  0.0573  0.2160 -0.0268
   37POPC  H14R 4981   4.382   2.757   8.346 -0.5771 -0.7442  0.3574
   37POPC  H14S 4982   4.531   2.755   8.444  0.8631 -1.5864  0.6610
   37POPC  C215 4983   4.459   2.549   8.385 -0.3300  0.6000  0.0576
   37POPC  H15R 4984   4.555   2.494   8.392 -0.0548  1.0364 -0.2789
   37POPC  H15S 4985   4.401   2.505   8.300  0.1344 -0.5856  0.3264
   37POPC  C216 4986   4.381   2.525   8.508  0.0381 -0.9811 -0.7120
   37POPC  H16R 4987   4.280   2.568   8.495  0.5884  0.0996 -1.6073
   37POPC  H16S 4988   4.413   2.589   8.594 -0.4472 -0.4522 -0.9194
   37POPC  C217 4989   4.381   2.384   8.558  0.8986 -0.2939 -0.0975
   37POPC  H17R 4990   4.477   2.328   8.553  0.8941 -0.2467 -0.7623
   37POPC  H17S 4991   4.298   2.337   8.501  0.0054  2.2725 -1.0799
   37POPC  C218 4992   4.334   2.383   8.712  0.0380  0.6682 -0.4465
   37POPC  H18R 4993   4.404   2.437   8.779 -1.1415  0.8041  0.7428
   37POPC  H18S 4994   4.334   2.277   8.744  0.9639 -0.0259 -2.5801
   37POPC  H18T 4995   4.232   2.426   8.728 -0.3948 -0.3135 -0.5187
   37POPC   C33 4996   5.096   2.289   7.109 -0.2624 -0.0487  0.0181
   37POPC   H3X 4997   5.176   2.357   7.143 -0.6017  0.6828 -0.6300
   37POPC   H3Y 4998   5.107   2.193   7.165 -0.4857 -0.6182 -0.8852
   37POPC   C34 4999   4.969   2.357   7.163  0.1653 -0.3550  0.0650
   37POPC   H4X 5000   4.878   2.296   7.146 -0.0815  0.1437 -0.4521
   37POPC   H4Y 5001   4.940   2.453   7.114  1.1159  0.6463  1.3871
   37POPC   C35 5002   4.982   2.377   7.314 -0.5222 -0.3425  0.6606
   37POPC   H5X 5003   4.929   2.471   7.340  0.1745  0.7094 -1.5034
   37POPC   H5Y 5004   5.087   2.380   7.348 -0.6642 -0.4388  1.1175
   37POPC   C36 5005   4.917   2.273   7.401  0.5466 -0.2748 -0.0661
   37POPC   H6X 5006   4.942   2.168   7.375  0.4081  0.2521 -2.6201
   37POPC   H6Y 5007   4.810   2.286   7.372  0.7513 -0.5467 -0.9688
   37POPC   C37 5008   4.936   2.304   7.554 -0.3196  0.0551  0.8239
   37POPC   H7X 5009   4.918   2.409   7.586  0.7824  0.1478  1.1921
   37POPC   H7Y 5010   5.042   2.275   7.570 -0.7705 -2.1634  0.1271
   37POPC   C38 5011   4.849   2.217   7.644  0.1483  0.4397  0.1715
   37POPC   H8X 5012   4.873   2.108   7.637  1.4274  0.6349  1.2601
   37POPC   H8Y 5013   4.740   2.223   7.623 -0.3318 -0.5752  2.0840
   37POPC   C39 5014   4.853   2.255   7.795  0.0801 -0.0252  0.0448
   37POPC   H9X 5015   4.755   2.220   7.834  0.1186  1.0694  1.1736
   37POPC   H9Y 5016   4.844   2.365   7.801  1.3196  0.1012 -0.1985
   37POPC  C310 5017   4.976   2.202   7.860  0.5088  0.4828 -0.9025
   37POPC  H10X 5018   5.054   2.274   7.826 -0.2702  1.7410 -0.0778
   37POPC  H10Y 5019   5.006   2.102   7.821  0.8834 -0.1903  1.0427
   37POPC  C311 5020   4.968   2.186   8.009  0.3031 -0.2735  0.1605
   37POPC  H11X 5021   4.881   2.121   8.033  0.0579 -0.2259 -0.5807
   37POPC  H11Y 5022   4.939   2.279   8.061  0.0932 -0.4822  0.4212
   37POPC  C312 5023   5.088   2.126   8.072 -0.1207 -0.3945  0.2073
   37POPC  H12X 5024   5.174   2.196   8.064  1.0308 -1.5238  1.8604
   37POPC  H12Y 5025   5.115   2.034   8.016 -0.6633  1.0544 -2.5682
   37POPC  C313 5026   5.088   2.106   8.225 -0.4601  0.6473 -0.0977
   37POPC  H13X 5027   5.000   2.047   8.259  0.3659  0.4670  1.8356
   37POPC  H13Y 5028   5.068   2.205   8.271  0.3904  0.1588  1.3878
   37POPC  C314 5029   5.225   2.060   8.274  0.0982 -0.0463  0.4055
   37POPC  H14X 5030   5.219   2.052   8.385 -0.6655 -1.8089  0.2803
   37POPC  H14Y 5031   5.300   2.131   8.235  1.0786 -1.9119 -1.2694
   37POPC  C315 5032   5.262   1.922   8.227 -0.2181 -0.0967 -0.3314
   37POPC  H15X 5033   5.357   1.891   8.276 -0.0858 -2.3665 -1.8739
   37POPC  H15Y 5034   5.284   1.918   8.118  0.0296 -0.9557 -0.2589
   37POPC  C316 5035   5.161   1.814   8.265  0.1664 -0.0435 -0.3073
   37POPC  H16X 5036   5.076   1.835   8.197  1.5856  1.1183 -1.8265
   37POPC  H16Y 5037   5.141   1.812   8.374  0.1606  3.0159 -0.1429
   37POPC  H16Z 5038   5.195   1.711   8.243  0.3067 -0.3384  1.2115
   38POPC     N 5039   6.216   5.267   6.183 -0.5067  0.1320 -0.1167
   38POPC   C12 5040   6.193   5.172   6.294  0.0926 -0.3438  0.6054
   38POPC  H12A 5041   6.131   5.095   6.251  0.2944 -0.0396 -0.2507
   38POPC  H12B 5042   6.137   5.213   6.377 -1.1142 -0.4653 -0.1247
   38POPC   C13 5043   6.316   5.371   6.227  0.0111 -0.1097  0.3707
   38POPC  H13A 5044   6.283   5.436   6.306 -3.2969  1.8965 -2.3561
   38POPC  H13B 5045   6.413   5.332   6.254  0.0087 -1.0227 -0.8458
   38POPC  H13C 5046   6.317   5.439   6.143  0.9799 -1.4796 -0.7673
   38POPC   C14 5047   6.265   5.184   6.068 -0.7357  0.1260  0.5235
   38POPC  H14A 5048   6.292   5.245   5.983  0.5952 -1.8714 -0.5627
   38POPC  H14B 5049   6.356   5.131   6.092 -0.9632  0.4556  2.2065
   38POPC  H14C 5050   6.196   5.105   6.042 -0.9941  0.2072  0.9544
   38POPC   C15 5051   6.088   5.335   6.151  0.4021 -0.1936 -0.7344
   38POPC  H15A 5052   6.105   5.415   6.080  1.0287  1.3293  1.0335
   38POPC  H15B 5053   6.040   5.385   6.234 -0.6384 -0.4095 -1.1934
   38POPC  H15C 5054   6.014   5.267   6.113 -1.4075  1.8609 -1.0833
   38POPC   C11 5055   6.305   5.091   6.352 -0.6462  0.3501 -1.4728
   38POPC  H11A 5056   6.262   5.013   6.418  1.3640 -0.4641 -1.0623
   38POPC  H11B 5057   6.367   5.154   6.420 -0.3098 -0.1500 -1.3084
   38POPC     P 5058   6.481   4.910   6.311  0.0799  0.4876  0.0670
   38POPC   O13 5059   6.586   4.951   6.407 -0.0591  0.2605  0.3485
   38POPC   O14 5060   6.530   4.831   6.199 -0.2820  0.1106 -0.1612
   38POPC   O12 5061   6.399   5.035   6.259 -0.4751 -0.3650  0.2914
   38POPC   O11 5062   6.381   4.827   6.391 -0.2271 -0.2168  0.4119
   38POPC    C1 5063   6.424   4.700   6.453 -0.0126  0.2335 -0.3221
   38POPC    HA 5064   6.528   4.669   6.428  0.1875 -0.8438  1.6450
   38POPC    HB 5065   6.357   4.618   6.419  0.9691 -0.1406 -1.4170
   38POPC    C2 5066   6.408   4.705   6.613  0.0177  0.0016 -0.1832
   38POPC    HS 5067   6.410   4.602   6.653  1.0649  0.1392  0.1418
   38POPC   O21 5068   6.283   4.771   6.648 -0.1417  0.3027  0.2838
   38POPC   C21 5069   6.172   4.711   6.607  0.0980  0.3316  0.2298
   38POPC   O22 5070   6.162   4.595   6.571 -0.3383 -0.1353 -0.2304
   38POPC   C22 5071   6.050   4.808   6.612  0.6259 -0.0203  0.2283
   38POPC   H2R 5072   6.038   4.855   6.512 -0.5441 -0.5865  0.0777
   38POPC   H2S 5073   6.065   4.891   6.684 -3.6610  0.4384  0.8902
   38POPC    C3 5074   6.533   4.771   6.687  0.1333 -0.3595 -0.5427
   38POPC    HX 5075   6.511   4.878   6.703  3.0438  0.1802  0.4962
   38POPC    HY 5076   6.616   4.761   6.613  0.0927  2.3052 -1.0560
   38POPC   O31 5077   6.544   4.701   6.817  0.2607 -0.2599 -0.6362
   38POPC   C31 5078   6.653   4.634   6.836 -0.4478 -0.5080  0.3393
   38POPC   O32 5079   6.751   4.629   6.761  0.2716  0.0176 -0.2194
   38POPC   C32 5080   6.645   4.545   6.962  0.5885 -0.6890 -0.4785
   38POPC   H2X 5081   6.675   4.440   6.942 -0.5288 -0.9718 -0.7012
   38POPC   H2Y 5082   6.542   4.537   7.000 -0.1145  0.2097 -2.0776
   38POPC   C23 5083   5.910   4.731   6.647 -0.5426 -0.6077 -0.3271
   38POPC   H3R 5084   5.910   4.632   6.598  1.5598 -0.4035 -0.8455
   38POPC   H3S 5085   5.830   4.797   6.606 -1.0443 -0.9397  0.1105
   38POPC   C24 5086   5.884   4.720   6.800 -0.4165 -0.5256 -0.4350
   38POPC   H4R 5087   5.784   4.674   6.819 -0.2869 -0.1885  1.2211
   38POPC   H4S 5088   5.884   4.824   6.839 -2.2577 -0.3985 -0.6890
   38POPC   C25 5089   5.990   4.633   6.868 -0.0715  0.3683  0.0106
   38POPC   H5R 5090   6.091   4.679   6.865  0.3354 -0.5462 -1.9480
   38POPC   H5S 5091   6.012   4.547   6.801 -1.9772  0.7779 -1.2243
   38POPC   C26 5092   5.955   4.584   7.010 -0.5308  0.3575 -0.2632
   38POPC   H6R 5093   5.863   4.521   7.012 -0.5203  0.3648  1.4510
   38POPC   H6S 5094   5.937   4.673   7.074 -1.8486 -1.1645  1.5959
   38POPC   C27 5095   6.075   4.502   7.068 -0.5904  0.4218 -0.7160
   38POPC   H7R 5096   6.150   4.583   7.081  0.3979 -0.7063  1.0901
   38POPC   H7S 5097   6.113   4.422   7.001  0.0787  0.9926 -1.0294
   38POPC   C28 5098   6.031   4.431   7.198 -0.4042 -0.2891 -0.3067
   38POPC   H8R 5099   5.951   4.356   7.183 -0.8611 -0.4908  2.5348
   38POPC   H8S 5100   5.984   4.517   7.250  2.2356  1.6290 -0.8888
   38POPC   C29 5101   6.139   4.371   7.286  0.7335  0.9729  0.0168
   38POPC   H91 5102   6.226   4.322   7.239 -0.6722  1.0750 -2.9039
   38POPC  C210 5103   6.138   4.373   7.414  0.0033 -0.1826  0.1250
   38POPC  H101 5104   6.229   4.324   7.452 -1.5485 -2.4262  1.1900
   38POPC  C211 5105   6.037   4.438   7.510  0.0743 -0.3430 -0.4557
   38POPC  H11R 5106   5.938   4.392   7.489  0.0451 -1.0035  1.0174
   38POPC  H11S 5107   6.028   4.544   7.476  1.4902 -0.0759 -0.0707
   38POPC  C212 5108   6.059   4.455   7.660  0.1384  0.0066 -0.6864
   38POPC  H12R 5109   6.155   4.505   7.688 -0.2275  0.7740 -0.7660
   38POPC  H12S 5110   6.073   4.348   7.684 -2.9054 -0.5285 -0.8678
   38POPC  C213 5111   5.943   4.517   7.731 -0.2236 -0.2051  0.3999
   38POPC  H13R 5112   5.856   4.450   7.712 -0.0742 -0.6038  1.0933
   38POPC  H13S 5113   5.919   4.612   7.678 -1.2566 -1.0862 -0.7612
   38POPC  C214 5114   5.960   4.524   7.888  0.6483  0.2368 -0.5006
   38POPC  H14R 5115   5.977   4.418   7.918 -2.3529 -0.5523 -1.2067
   38POPC  H14S 5116   5.866   4.565   7.931  1.1215  2.2772 -1.3086
   38POPC  C215 5117   6.063   4.615   7.943  0.2968 -0.7702  0.3027
   38POPC  H15R 5118   6.056   4.719   7.904 -1.0218 -1.3705 -1.1709
   38POPC  H15S 5119   6.167   4.583   7.921  0.1654 -1.7476  1.0429
   38POPC  C216 5120   6.050   4.631   8.095  0.2302  0.1458 -0.3469
   38POPC  H16R 5121   6.075   4.536   8.147 -0.0174  0.2623 -0.0083
   38POPC  H16S 5122   5.943   4.658   8.109 -0.0162 -1.8320  2.6519
   38POPC  C217 5123   6.125   4.750   8.159  0.6256  0.8296 -0.6364
   38POPC  H17R 5124   6.101   4.837   8.094  1.7479 -0.3998 -2.8024
   38POPC  H17S 5125   6.234   4.729   8.157  0.4078 -0.7112  0.9290
   38POPC  C218 5126   6.077   4.794   8.294  0.6197  0.2529  0.8639
   38POPC  H18R 5127   5.977   4.843   8.286  1.0473  1.2452  1.4128
   38POPC  H18S 5128   6.141   4.872   8.339 -0.2138  1.8367 -0.5778
   38POPC  H18T 5129   6.054   4.708   8.360  0.0223  0.8635  1.4810
   38POPC   C33 5130   6.744   4.593   7.069  0.4070 -0.9165 -0.0590
   38POPC   H3X 5131   6.719   4.691   7.114 -1.4333 -2.1386  1.7240
   38POPC   H3Y 5132   6.846   4.591   7.025  1.1059  0.7092  1.3870
   38POPC   C34 5133   6.743   4.505   7.198 -0.5857 -0.8291 -0.5952
   38POPC   H4X 5134   6.782   4.402   7.180  0.6562 -0.7138  1.1968
   38POPC   H4Y 5135   6.638   4.486   7.232 -0.9987 -1.4619 -2.1248
   38POPC   C35 5136   6.833   4.578   7.308 -0.2778  0.3035 -0.0812
   38POPC   H5X 5137   6.822   4.687   7.294  1.4119  0.6096  0.7928
   38POPC   H5Y 5138   6.936   4.538   7.292  0.1714  1.7172 -0.9024
   38POPC   C36 5139   6.788   4.548   7.452  0.1796  0.0201  0.3860
   38POPC   H6X 5140   6.805   4.440   7.471 -0.5715 -0.1380  0.2211
   38POPC   H6Y 5141   6.678   4.562   7.458  0.2043  0.9455 -0.9107
   38POPC   C37 5142   6.849   4.643   7.555 -0.2556 -0.2560 -0.8510
   38POPC   H7X 5143   6.807   4.746   7.546  2.1691  0.6934 -2.1371
   38POPC   H7Y 5144   6.959   4.655   7.543 -0.0037 -0.8082  0.6642
   38POPC   C38 5145   6.818   4.602   7.702  0.1391  0.2417  0.0642
   38POPC   H8X 5146   6.836   4.494   7.716  1.2869  0.5418  1.0640
   38POPC   H8Y 5147   6.709   4.619   7.721  0.1998 -0.1151  0.7573
   38POPC   C39 5148   6.904   4.667   7.806 -0.5562  0.1833 -0.6720
   38POPC   H9X 5149   6.857   4.766   7.825 -0.2805 -0.0528  1.5366
   38POPC   H9Y 5150   7.006   4.693   7.769 -0.3270 -0.3398 -0.4059
   38POPC  C310 5151   6.920   4.581   7.935 -0.6572 -0.4207  0.0453
   38POPC  H10X 5152   6.950   4.476   7.914 -1.2972 -0.5063 -0.4860
   38POPC  H10Y 5153   6.821   4.579   7.985 -0.2314 -0.9075  0.8994
   38POPC  C311 5154   7.029   4.642   8.036  0.2554 -0.2153  0.1720
   38POPC  H11X 5155   6.998   4.747   8.055 -0.1305 -0.2520 -0.2342
   38POPC  H11Y 5156   7.133   4.645   7.996  0.5870  0.4673  1.0456
   38POPC  C312 5157   7.035   4.567   8.173 -0.1895 -0.3592 -0.3475
   38POPC  H12X 5158   7.120   4.615   8.227  0.7420 -4.6913  2.5378
   38POPC  H12Y 5159   7.070   4.462   8.159  1.7899 -0.3419  3.1864
   38POPC  C313 5160   6.910   4.572   8.254  0.3904 -0.0239 -0.7593
   38POPC  H13X 5161   6.854   4.477   8.236 -1.5693  1.2088 -1.5026
   38POPC  H13Y 5162   6.852   4.662   8.225  2.4009  1.1704 -1.2296
   38POPC  C314 5163   6.941   4.573   8.408  1.4467  0.0623  0.1396
   38POPC  H14X 5164   7.000   4.664   8.430  2.3283 -0.9296  2.1661
   38POPC  H14Y 5165   7.005   4.488   8.442 -0.4931 -0.6487  2.2874
   38POPC  C315 5166   6.825   4.559   8.505  0.2728  0.2411 -0.1255
   38POPC  H15X 5167   6.759   4.648   8.508 -0.0859 -0.0143 -0.3233
   38POPC  H15Y 5168   6.861   4.533   8.607  0.8103  0.5721 -0.2318
   38POPC  C316 5169   6.728   4.446   8.467  0.4225  0.6981  0.2257
   38POPC  H16X 5170   6.644   4.453   8.539  0.4303  0.9634  0.2114
   38POPC  H16Y 5171   6.778   4.347   8.463  1.4656  1.2183 -2.9404
   38POPC  H16Z 5172   6.698   4.466   8.361 -0.6338 -0.5541  0.2541
   39POPC     N 5173   3.202   4.032   5.734 -0.1402 -0.1394  0.0830
   39POPC   C12 5174   3.163   3.976   5.863 -0.1614 -0.1388  0.1909
   39POPC  H12A 5175   3.056   3.964   5.856 -0.0844 -1.0284  0.4550
   39POPC  H12B 5176   3.189   4.036   5.949 -0.1956 -0.9331  0.7552
   39POPC   C13 5177   3.145   4.164   5.723  0.5723 -0.0940  0.5363
   39POPC  H13A 5178   3.148   4.201   5.622  0.5375  0.4567  0.7284
   39POPC  H13B 5179   3.039   4.147   5.735  0.9523 -1.6961  2.0731
   39POPC  H13C 5180   3.180   4.239   5.793 -0.1780  1.5915 -0.7944
   39POPC   C14 5181   3.351   4.047   5.715  0.3223  0.1925 -0.0742
   39POPC  H14A 5182   3.390   4.126   5.778  1.0433 -1.6252  1.9235
   39POPC  H14B 5183   3.395   3.958   5.758  1.9970  1.2054  0.4199
   39POPC  H14C 5184   3.377   4.065   5.612  3.0111 -0.0257  0.4871
   39POPC   C15 5185   3.145   3.950   5.620  0.0102  0.1216 -0.3162
   39POPC  H15A 5186   3.179   3.849   5.634 -0.5625  0.2371  2.7702
   39POPC  H15B 5187   3.175   3.994   5.526  2.5804  2.9776  1.6104
   39POPC  H15C 5188   3.038   3.941   5.618  0.1685 -2.0681 -0.7542
   39POPC   C11 5189   3.241   3.848   5.896  0.4823  0.5779 -0.4387
   39POPC  H11A 5190   3.256   3.780   5.810  1.6976 -1.8581  1.5667
   39POPC  H11B 5191   3.170   3.794   5.962  0.2957  0.7645 -0.4859
   39POPC     P 5192   3.391   3.931   6.087 -0.3372  0.0443  0.2485
   39POPC   O13 5193   3.321   4.062   6.097  0.0714  0.3839  0.3579
   39POPC   O14 5194   3.542   3.931   6.096  0.0139  0.0450 -0.2722
   39POPC   O12 5195   3.363   3.871   5.951  0.4424  0.1066 -0.2101
   39POPC   O11 5196   3.337   3.824   6.188  0.4519  0.2048  0.2603
   39POPC    C1 5197   3.212   3.808   6.240 -0.4309 -1.2048  0.1403
   39POPC    HA 5198   3.182   3.706   6.208  1.6994 -1.1401 -2.5000
   39POPC    HB 5199   3.142   3.883   6.197 -0.0177  0.7696  2.6714
   39POPC    C2 5200   3.203   3.826   6.390 -0.2653  0.6099 -0.4138
   39POPC    HS 5201   3.097   3.799   6.401 -0.2377  1.3729  2.3818
   39POPC   O21 5202   3.232   3.961   6.424  0.0138 -0.0160 -0.7121
   39POPC   C21 5203   3.159   4.024   6.517  0.5129  0.6373 -0.3962
   39POPC   O22 5204   3.067   3.980   6.574  0.4700 -0.2731 -0.6845
   39POPC   C22 5205   3.229   4.147   6.542 -0.5768 -0.1260 -0.7228
   39POPC   H2R 5206   3.206   4.209   6.453 -2.8565  0.9389  0.5205
   39POPC   H2S 5207   3.334   4.112   6.545 -0.6061 -0.3380 -1.8009
   39POPC    C3 5208   3.300   3.733   6.474 -0.4772 -0.0708  0.3692
   39POPC    HX 5209   3.407   3.759   6.468 -0.7329  0.9804  0.1458
   39POPC    HY 5210   3.306   3.632   6.427  1.8228 -0.4349  1.3184
   39POPC   O31 5211   3.249   3.692   6.605  0.7800  0.0663  0.9811
   39POPC   C31 5212   3.308   3.757   6.706  0.5924 -0.0903 -0.3382
   39POPC   O32 5213   3.408   3.827   6.697 -0.1448 -0.4835  0.1191
   39POPC   C32 5214   3.244   3.716   6.834 -0.5421 -0.1338 -0.3494
   39POPC   H2X 5215   3.142   3.758   6.826  0.5480  2.6958 -0.4868
   39POPC   H2Y 5216   3.258   3.606   6.841  0.4751 -0.2297 -2.7920
   39POPC   C23 5217   3.181   4.209   6.670 -0.3210 -0.1634  0.8478
   39POPC   H3R 5218   3.081   4.255   6.676 -0.3505  0.1630 -1.2308
   39POPC   H3S 5219   3.235   4.306   6.674 -1.6606  0.6901 -0.7122
   39POPC   C24 5220   3.215   4.140   6.799 -0.4562  0.0145  0.5761
   39POPC   H4R 5221   3.326   4.142   6.807 -0.3864 -2.8455  1.2810
   39POPC   H4S 5222   3.167   4.040   6.805  1.1434 -0.9375 -1.2321
   39POPC   C25 5223   3.162   4.218   6.925 -0.0258 -0.0388  0.4993
   39POPC   H5R 5224   3.051   4.221   6.921  0.0157  0.4101 -2.9406
   39POPC   H5S 5225   3.205   4.320   6.926  0.5173 -0.2579  0.4361
   39POPC   C26 5226   3.204   4.143   7.049 -0.4026 -0.2457 -0.2564
   39POPC   H6R 5227   3.314   4.136   7.036 -0.2431  1.8442 -0.3922
   39POPC   H6S 5228   3.160   4.041   7.055 -0.6026 -0.1378  0.1165
   39POPC   C27 5229   3.180   4.217   7.186  0.3925 -0.1273 -0.2916
   39POPC   H7R 5230   3.070   4.216   7.203  0.5929  0.6726  1.2526
   39POPC   H7S 5231   3.224   4.318   7.191 -1.1440  0.6017 -0.7954
   39POPC   C28 5232   3.232   4.143   7.308  0.2295 -0.4813 -0.1837
   39POPC   H8R 5233   3.336   4.108   7.292  0.5779  1.1965 -2.1112
   39POPC   H8S 5234   3.169   4.052   7.319 -1.3843  0.5626 -0.4121
   39POPC   C29 5235   3.219   4.228   7.430 -0.7202 -0.0494 -0.5317
   39POPC   H91 5236   3.181   4.330   7.414  1.8238  1.1332  0.3719
   39POPC  C210 5237   3.255   4.195   7.554  0.4309 -0.3236 -0.0033
   39POPC  H101 5238   3.226   4.267   7.632 -2.4803 -1.4134  0.0507
   39POPC  C211 5239   3.312   4.068   7.605 -0.2635 -0.3672  0.2698
   39POPC  H11R 5240   3.412   4.058   7.556 -0.4513  1.5858 -0.5781
   39POPC  H11S 5241   3.257   3.978   7.570  0.7814 -0.5618 -0.9582
   39POPC  C212 5242   3.334   4.056   7.756 -0.5968 -0.0607 -0.7058
   39POPC  H12R 5243   3.256   4.103   7.820 -0.6285 -2.1039  0.8672
   39POPC  H12S 5244   3.416   4.113   7.804 -1.5655 -0.0428  0.9873
   39POPC  C213 5245   3.344   3.913   7.800 -0.8189 -0.1357 -0.0632
   39POPC  H13R 5246   3.427   3.866   7.743 -0.7522 -1.2421  0.8963
   39POPC  H13S 5247   3.249   3.872   7.760 -0.0034 -0.0290 -2.2297
   39POPC  C214 5248   3.365   3.890   7.953 -0.2794 -0.3062 -0.0633
   39POPC  H14R 5249   3.277   3.940   8.000 -0.6704  2.5985 -3.4330
   39POPC  H14S 5250   3.456   3.952   7.970 -0.3988 -0.0880 -0.2083
   39POPC  C215 5251   3.384   3.750   8.003 -0.3640  0.4794 -0.6973
   39POPC  H15R 5252   3.465   3.693   7.955 -0.4278  0.2510 -0.5374
   39POPC  H15S 5253   3.288   3.694   8.003  0.6684 -1.3908  0.3163
   39POPC  C216 5254   3.435   3.745   8.154 -0.4014  0.6651  0.6597
   39POPC  H16R 5255   3.408   3.641   8.182 -1.2817  0.4651 -0.7768
   39POPC  H16S 5256   3.373   3.811   8.218  1.9738  1.6417  2.0702
   39POPC  C217 5257   3.587   3.763   8.174 -0.3821 -0.1681  0.0575
   39POPC  H17R 5258   3.599   3.873   8.167 -1.1269 -0.1847 -2.1446
   39POPC  H17S 5259   3.650   3.713   8.098 -0.3832 -0.6070  0.3450
   39POPC  C218 5260   3.641   3.722   8.307  0.0187  0.0652  0.0152
   39POPC  H18R 5261   3.602   3.799   8.377  0.0816  2.6238 -2.5939
   39POPC  H18S 5262   3.752   3.723   8.313 -0.0507  1.4643  2.1964
   39POPC  H18T 5263   3.603   3.620   8.333 -1.1760  0.9814  2.1384
   39POPC   C33 5264   3.311   3.781   6.955 -0.4131 -0.6692 -0.6452
   39POPC   H3X 5265   3.268   3.884   6.960 -1.2195 -1.0403  0.6787
   39POPC   H3Y 5266   3.421   3.789   6.956 -0.4883  0.5565  0.0618
   39POPC   C34 5267   3.275   3.712   7.088 -0.7720  0.4509  0.5692
   39POPC   H4X 5268   3.324   3.612   7.093  2.0182  1.6505 -1.0285
   39POPC   H4Y 5269   3.165   3.699   7.073 -1.0581  2.7734  0.3920
   39POPC   C35 5270   3.312   3.797   7.207 -0.3480  0.5324 -0.1510
   39POPC   H5X 5271   3.256   3.891   7.190 -1.0464 -0.1503 -1.7981
   39POPC   H5Y 5272   3.421   3.816   7.223 -0.4740 -0.4841  2.4140
   39POPC   C36 5273   3.249   3.734   7.336 -0.1387  0.3361  0.1292
   39POPC   H6X 5274   3.147   3.694   7.317  0.1988  0.0099 -1.1023
   39POPC   H6Y 5275   3.244   3.816   7.410  0.8539  0.3674  0.1766
   39POPC   C37 5276   3.338   3.628   7.405 -0.6573  0.2174 -0.0788
   39POPC   H7X 5277   3.442   3.662   7.425 -0.1923 -0.9377 -0.4785
   39POPC   H7Y 5278   3.342   3.543   7.335  0.7956  0.6086 -0.5032
   39POPC   C38 5279   3.272   3.585   7.536  0.5713  0.7336  0.4155
   39POPC   H8X 5280   3.171   3.541   7.521  1.5482 -1.7032  0.5676
   39POPC   H8Y 5281   3.258   3.673   7.603 -3.4835 -1.3491  2.6804
   39POPC   C39 5282   3.350   3.494   7.632  0.5541  0.9901 -0.3997
   39POPC   H9X 5283   3.446   3.546   7.654 -0.6502  2.8725  0.7551
   39POPC   H9Y 5284   3.378   3.391   7.603 -1.2322  0.1461  0.7489
   39POPC  C310 5285   3.275   3.478   7.761  0.1057  0.1427 -0.0283
   39POPC  H10X 5286   3.181   3.426   7.734 -0.4793  0.1792  1.7900
   39POPC  H10Y 5287   3.241   3.575   7.804 -0.7228  0.8549 -2.1721
   39POPC  C311 5288   3.339   3.382   7.868  0.0369 -0.1526  0.1504
   39POPC  H11X 5289   3.445   3.412   7.879 -0.0469  0.0766  0.3489
   39POPC  H11Y 5290   3.333   3.279   7.828  1.7338  0.0945 -0.8363
   39POPC  C312 5291   3.265   3.381   8.004 -0.7807  1.0090  0.8216
   39POPC  H12X 5292   3.161   3.345   7.987 -0.6330  0.5130  0.9805
   39POPC  H12Y 5293   3.259   3.484   8.046 -3.6014  0.0368  3.1637
   39POPC  C313 5294   3.324   3.299   8.122 -0.4755 -0.9079  0.2668
   39POPC  H13X 5295   3.260   3.311   8.213 -0.6224 -1.7262  0.2742
   39POPC  H13Y 5296   3.422   3.348   8.142 -0.5287  1.2306 -3.7044
   39POPC  C314 5297   3.339   3.149   8.087  0.7707  0.5876  0.2078
   39POPC  H14X 5298   3.434   3.130   8.034  0.6650 -2.7903  0.9760
   39POPC  H14Y 5299   3.252   3.124   8.022  1.3999 -0.8686 -0.1109
   39POPC  C315 5300   3.335   3.051   8.206  0.5081 -0.3522  0.7196
   39POPC  H15X 5301   3.301   2.957   8.157 -1.1203  1.1226 -1.1960
   39POPC  H15Y 5302   3.253   3.075   8.277 -1.1912 -0.1901 -1.1861
   39POPC  C316 5303   3.470   3.040   8.273 -0.2149  0.7715  0.0603
   39POPC  H16X 5304   3.555   3.009   8.209 -2.0697  0.3684 -2.3235
   39POPC  H16Y 5305   3.463   2.947   8.333  0.8446 -0.5714 -1.8164
   39POPC  H16Z 5306   3.504   3.129   8.330  1.6357  0.9612 -1.2758
   40POPC     N 5307   1.544   1.112   6.274 -0.1156  0.1442 -0.1869
   40POPC   C12 5308   1.408   1.065   6.313  0.4102  0.5790  0.0885
   40POPC  H12A 5309   1.359   1.036   6.220  1.7209  0.9865 -0.7530
   40POPC  H12B 5310   1.358   1.151   6.355  0.6832 -0.0273  1.6969
   40POPC   C13 5311   1.555   1.211   6.163  0.2413  0.0821  0.0738
   40POPC  H13A 5312   1.498   1.299   6.191  0.1339 -0.1484  0.6030
   40POPC  H13B 5313   1.655   1.242   6.137  0.4828 -0.0108  0.8531
   40POPC  H13C 5314   1.513   1.170   6.072  0.1313 -1.1602  0.6602
   40POPC   C14 5315   1.614   1.174   6.391 -0.0640 -0.1127  0.0519
   40POPC  H14A 5316   1.717   1.193   6.365  0.1574 -2.2866 -0.9230
   40POPC  H14B 5317   1.564   1.269   6.405  1.5377  0.9333 -0.9580
   40POPC  H14C 5318   1.602   1.127   6.487 -1.3875 -1.4815 -0.7339
   40POPC   C15 5319   1.637   0.998   6.225  0.4532 -0.3266  0.5082
   40POPC  H15A 5320   1.635   0.912   6.292  0.7216 -2.2345 -1.8011
   40POPC  H15B 5321   1.735   1.040   6.211  0.5746 -0.9294 -0.5999
   40POPC  H15C 5322   1.609   0.965   6.126  1.3065 -0.2342  0.2328
   40POPC   C11 5323   1.389   0.942   6.409  0.1116  0.5576 -0.1863
   40POPC  H11A 5324   1.280   0.925   6.420  0.3016  0.3849  1.8406
   40POPC  H11B 5325   1.433   0.964   6.509  0.6186  0.6775 -0.4322
   40POPC     P 5326   1.373   0.754   6.234 -0.0006  0.2972 -0.2664
   40POPC   O13 5327   1.456   0.637   6.203  0.1168  0.4243 -0.1782
   40POPC   O14 5328   1.346   0.850   6.123 -0.3108  0.3159 -0.6043
   40POPC   O12 5329   1.450   0.825   6.354  0.4913  0.1616  0.2269
   40POPC   O11 5330   1.234   0.709   6.303  0.0688  0.2486 -0.0330
   40POPC    C1 5331   1.225   0.603   6.393 -0.6032  0.7473 -0.5198
   40POPC    HA 5332   1.322   0.571   6.436 -0.2218  0.2181 -1.7190
   40POPC    HB 5333   1.184   0.518   6.334 -0.1140  1.2476 -1.6121
   40POPC    C2 5334   1.137   0.637   6.518  0.6857  0.0398 -0.0085
   40POPC    HS 5335   1.037   0.669   6.482 -0.1928 -1.0389  1.3521
   40POPC   O21 5336   1.207   0.733   6.604  0.5076  0.3955 -0.2405
   40POPC   C21 5337   1.134   0.826   6.659  0.0243  0.0580  0.0397
   40POPC   O22 5338   1.012   0.822   6.670  0.3455  0.1897  0.8265
   40POPC   C22 5339   1.236   0.919   6.738 -0.1170 -0.3202  0.1867
   40POPC   H2R 5340   1.242   1.010   6.673 -1.1395  0.4534  1.1383
   40POPC   H2S 5341   1.339   0.883   6.720  0.1206  0.1441  0.5966
   40POPC    C3 5342   1.097   0.509   6.608 -0.1718  0.2490  0.1644
   40POPC    HX 5343   1.061   0.421   6.551 -0.2185 -0.3332  1.0615
   40POPC    HY 5344   1.007   0.530   6.670 -1.6239 -1.3973 -1.2785
   40POPC   O31 5345   1.213   0.474   6.683  0.5356  0.6669 -0.3851
   40POPC   C31 5346   1.184   0.421   6.808  0.3372 -0.7616  0.6719
   40POPC   O32 5347   1.076   0.394   6.849  0.3157  0.3205 -0.0964
   40POPC   C32 5348   1.315   0.417   6.886 -0.0085 -0.2918 -0.4067
   40POPC   H2X 5349   1.342   0.525   6.897 -3.1387  0.3731  2.6698
   40POPC   H2Y 5350   1.389   0.357   6.829 -0.4277 -1.7083  0.4861
   40POPC   C23 5351   1.216   0.970   6.886 -0.4662  0.1373  0.8695
   40POPC   H3R 5352   1.116   1.015   6.906  0.1409  2.6578 -1.2385
   40POPC   H3S 5353   1.283   1.057   6.900 -2.4340  2.6158 -3.2903
   40POPC   C24 5354   1.240   0.860   6.994  0.1307  0.2462 -0.7091
   40POPC   H4R 5355   1.345   0.826   6.985  0.6132  1.1831  0.8846
   40POPC   H4S 5356   1.169   0.776   6.977  1.1941 -0.6107 -1.0419
   40POPC   C25 5357   1.238   0.908   7.141  0.3962  0.1254  0.4102
   40POPC   H5R 5358   1.140   0.948   7.173 -0.7248 -1.7699 -0.4896
   40POPC   H5S 5359   1.317   0.986   7.150 -1.4160  2.0452  0.4483
   40POPC   C26 5360   1.285   0.805   7.246  0.1383  0.0717 -0.1830
   40POPC   H6R 5361   1.390   0.776   7.223 -0.1278  0.4821 -2.1594
   40POPC   H6S 5362   1.221   0.714   7.234 -1.9650  1.3625  0.6254
   40POPC   C27 5363   1.260   0.875   7.379 -0.2505  0.3394  0.3155
   40POPC   H7R 5364   1.155   0.848   7.403  0.0397 -1.2877 -0.1010
   40POPC   H7S 5365   1.269   0.986   7.372 -0.1839  0.2757 -0.7944
   40POPC   C28 5366   1.344   0.814   7.491 -0.3484 -0.1369  0.2815
   40POPC   H8R 5367   1.452   0.831   7.472 -0.1849 -0.9845  0.4356
   40POPC   H8S 5368   1.331   0.704   7.493  0.7184 -0.2929 -0.3952
   40POPC   C29 5369   1.294   0.866   7.621  0.1393 -0.1256 -0.2906
   40POPC   H91 5370   1.222   0.949   7.613 -0.0420 -0.1580  0.8759
   40POPC  C210 5371   1.325   0.816   7.745  0.1186 -0.1812 -0.1202
   40POPC  H101 5372   1.271   0.872   7.823  0.7701  2.0609 -1.1637
   40POPC  C211 5373   1.421   0.710   7.787  0.5989  0.1657 -0.0025
   40POPC  H11R 5374   1.494   0.699   7.704 -0.6187 -3.7980 -0.7683
   40POPC  H11S 5375   1.357   0.619   7.788  3.0905 -1.7272 -1.1814
   40POPC  C212 5376   1.485   0.743   7.922 -0.1062  0.1422  0.5383
   40POPC  H12R 5377   1.551   0.831   7.908  1.0655 -0.2272  3.2145
   40POPC  H12S 5378   1.565   0.671   7.949 -1.0468 -1.0645  0.1875
   40POPC  C213 5379   1.385   0.762   8.036  0.5221 -0.0803  0.6536
   40POPC  H13R 5380   1.320   0.674   8.055 -0.9071  1.4394  3.4434
   40POPC  H13S 5381   1.316   0.848   8.028  1.3941  0.9704  3.4068
   40POPC  C214 5382   1.464   0.778   8.173 -0.8043  0.3210 -0.5317
   40POPC  H14R 5383   1.407   0.832   8.251  1.8325  0.1895  1.6283
   40POPC  H14S 5384   1.565   0.822   8.160 -0.2987 -0.3863  0.8199
   40POPC  C215 5385   1.488   0.638   8.238 -0.1108 -0.5459  0.2118
   40POPC  H15R 5386   1.531   0.568   8.164 -1.4249 -2.0619  0.8159
   40POPC  H15S 5387   1.388   0.597   8.262  0.0977 -0.6607  0.9047
   40POPC  C216 5388   1.567   0.634   8.370 -0.2800  0.2275  0.3218
   40POPC  H16R 5389   1.532   0.714   8.439 -1.1817 -0.7285  1.0087
   40POPC  H16S 5390   1.673   0.658   8.346 -0.5286 -0.1645 -1.2946
   40POPC  C217 5391   1.570   0.501   8.445  0.4664  0.1487  0.2984
   40POPC  H17R 5392   1.594   0.418   8.375  1.2330 -0.3090  1.0786
   40POPC  H17S 5393   1.472   0.478   8.492 -0.1415  1.6751 -0.1655
   40POPC  C218 5394   1.673   0.492   8.559 -0.2365  1.0704  0.2030
   40POPC  H18R 5395   1.777   0.524   8.536 -0.4525  1.0171 -0.9203
   40POPC  H18S 5396   1.674   0.390   8.602  2.5112  1.9264  2.4553
   40POPC  H18T 5397   1.635   0.554   8.643  0.0571  0.6931  0.6181
   40POPC   C33 5398   1.301   0.359   7.029 -0.4290 -0.4398  0.0711
   40POPC   H3X 5399   1.407   0.358   7.060  0.7760  3.3620 -3.0768
   40POPC   H3Y 5400   1.253   0.259   7.019  1.8139 -1.5917  0.3236
   40POPC   C34 5401   1.213   0.448   7.125  0.5234  0.3380  0.5161
   40POPC   H4X 5402   1.110   0.455   7.085  0.6139 -1.7575 -0.2012
   40POPC   H4Y 5403   1.257   0.550   7.114 -2.5216  1.6676 -0.1961
   40POPC   C35 5404   1.240   0.397   7.266  0.0452 -0.3229 -0.1849
   40POPC   H5X 5405   1.346   0.414   7.294 -0.0336  1.2320 -0.7512
   40POPC   H5Y 5406   1.230   0.287   7.279  0.5690 -0.6482 -2.2728
   40POPC   C36 5407   1.158   0.461   7.381  0.1422 -0.5657 -0.0649
   40POPC   H6X 5408   1.051   0.438   7.365  0.0015  0.5461 -0.8635
   40POPC   H6Y 5409   1.166   0.572   7.375 -1.2982 -0.5208 -2.1374
   40POPC   C37 5410   1.200   0.410   7.514  0.0989 -0.2382  0.0462
   40POPC   H7X 5411   1.309   0.424   7.529 -0.0286  0.5033  0.2735
   40POPC   H7Y 5412   1.179   0.301   7.518 -2.9563  0.3012  1.4133
   40POPC   C38 5413   1.130   0.462   7.642  0.4241 -0.0439  0.9283
   40POPC   H8X 5414   1.024   0.439   7.615  1.4146 -2.3296 -1.3523
   40POPC   H8Y 5415   1.144   0.572   7.631 -1.8806  0.3120  1.0191
   40POPC   C39 5416   1.174   0.407   7.770 -0.8552  0.7258 -0.6850
   40POPC   H9X 5417   1.155   0.478   7.854 -0.3260  1.0934 -0.8626
   40POPC   H9Y 5418   1.285   0.394   7.770 -0.9988 -0.6517 -1.1061
   40POPC  C310 5419   1.120   0.271   7.808  0.0124  0.2642 -0.2692
   40POPC  H10X 5420   1.182   0.197   7.753 -0.5238 -0.5762  0.2291
   40POPC  H10Y 5421   1.016   0.252   7.772  0.5318 -0.7533 -1.2989
   40POPC  C311 5422   1.130   0.236   7.963  0.2668 -0.6643  0.2907
   40POPC  H11X 5423   1.045   0.167   7.979  0.0009 -1.3132 -3.0939
   40POPC  H11Y 5424   1.098   0.330   8.012  0.8541 -0.0598 -0.4515
   40POPC  C312 5425   1.259   0.186   8.031  0.4516  0.1392  0.2373
   40POPC  H12X 5426   1.338   0.264   8.034  0.6844  0.0634 -2.0431
   40POPC  H12Y 5427   1.294   0.100   7.970 -1.0130 -0.3996  0.0948
   40POPC  C313 5428   1.225   0.126   8.167  0.1148 -0.5189  0.8898
   40POPC  H13X 5429   1.173   0.028   8.156  0.5880 -0.5017 -2.5278
   40POPC  H13Y 5430   1.160   0.203   8.215 -0.5627 -1.3066  1.2589
   40POPC  C314 5431   1.347   0.105   8.260  0.0092 -0.0983  0.3164
   40POPC  H14X 5432   1.373   0.200   8.313  0.4129  0.2557 -0.4994
   40POPC  H14Y 5433   1.428   0.084   8.187 -0.5973  1.1294 -0.7471
   40POPC  C315 5434   1.339  -0.020   8.358 -0.3883 -0.5519  0.2881
   40POPC  H15X 5435   1.254   0.010   8.423 -0.0134  0.3359  0.3787
   40POPC  H15Y 5436   1.431  -0.011   8.419  1.5643 -4.2989 -1.7654
   40POPC  C316 5437   1.332  -0.159   8.299 -0.7589 -0.3459 -0.4073
   40POPC  H16X 5438   1.433  -0.188   8.264 -0.1525 -0.0341  0.9893
   40POPC  H16Y 5439   1.262  -0.160   8.213 -0.0561 -0.8695 -0.9808
   40POPC  H16Z 5440   1.297  -0.228   8.380 -1.3149 -0.1923 -0.5090
   41CHL1    C3 5441   0.193   4.891  10.109 -0.5539 -0.7349 -0.1026
   41CHL1    H3 5442   0.282   4.824  10.101  0.4452  0.3249  1.4568
   41CHL1    O3 5443   0.140   4.881  10.243 -0.1511 -0.0534 -0.2052
   41CHL1   H3' 5444   0.074   4.950  10.253 -1.0220 -0.5856 -1.8490
   41CHL1    C4 5445   0.237   5.032  10.086  0.0201 -0.5681 -0.4012
   41CHL1   H4A 5446   0.169   5.110  10.127  0.8552 -0.0721  0.0719
   41CHL1   H4B 5447   0.319   5.057  10.156 -0.7968  0.5213  0.1870
   41CHL1    C5 5448   0.292   5.068   9.940 -0.1512  0.0522 -0.5202
   41CHL1    C6 5449   0.408   5.140   9.911  0.2632 -0.3390  0.5026
   41CHL1    H6 5450   0.468   5.176   9.996 -0.6665 -1.7791  1.8238
   41CHL1    C7 5451   0.460   5.172   9.773 -0.2353 -0.1934  0.0231
   41CHL1   H7A 5452   0.504   5.273   9.762  1.1052 -0.6544  0.8858
   41CHL1   H7B 5453   0.540   5.096   9.757 -2.1537 -2.2405 -0.4957
   41CHL1    C8 5454   0.351   5.156   9.671 -0.6456 -0.4473  0.7761
   41CHL1    H8 5455   0.294   5.251   9.674  0.4560  0.2793 -0.5222
   41CHL1   C14 5456   0.428   5.139   9.540  0.2092  0.0539  0.0717
   41CHL1   H14 5457   0.481   5.042   9.550 -0.7209 -0.7159 -1.9358
   41CHL1   C15 5458   0.539   5.246   9.505  0.3090  0.0662 -0.0283
   41CHL1  H15A 5459   0.489   5.345   9.500 -1.2926 -0.7417 -3.6022
   41CHL1  H15B 5460   0.636   5.240   9.559 -0.4055  0.6317  1.3408
   41CHL1   C16 5461   0.562   5.221   9.348 -0.0417  0.2570  0.4360
   41CHL1  H16A 5462   0.547   5.311   9.285  1.6681 -1.0914 -2.0821
   41CHL1  H16B 5463   0.662   5.176   9.333  0.6116  1.5389  0.7646
   41CHL1   C17 5464   0.452   5.114   9.299  0.6878  0.5358 -0.1888
   41CHL1   H17 5465   0.498   5.016   9.324 -1.3616 -0.5053 -0.2303
   41CHL1   C13 5466   0.341   5.129   9.414  0.2730 -0.4687 -0.0418
   41CHL1   C18 5467   0.246   5.258   9.399 -0.2621  0.4102 -0.0822
   41CHL1  H18A 5468   0.196   5.284   9.495 -2.0925  0.5701 -1.0428
   41CHL1  H18B 5469   0.306   5.347   9.368  0.3200 -0.8984 -3.0484
   41CHL1  H18C 5470   0.168   5.241   9.322  0.5635  0.4135 -0.9446
   41CHL1   C12 5471   0.260   5.000   9.441 -0.0244 -0.6893 -0.4312
   41CHL1  H12A 5472   0.188   4.978   9.359 -3.7557  1.5688  1.9744
   41CHL1  H12B 5473   0.339   4.922   9.441  1.4816  0.7672 -1.6101
   41CHL1   C11 5474   0.174   5.005   9.568  0.0945  1.0496  0.0682
   41CHL1  H11A 5475   0.109   5.093   9.546  1.7081  2.0576 -0.9037
   41CHL1  H11B 5476   0.116   4.911   9.563  1.4800  0.2413 -2.8286
   41CHL1    C9 5477   0.263   5.027   9.690 -0.4347 -0.0921 -0.0342
   41CHL1    H9 5478   0.335   4.942   9.691  0.2534  0.4289 -1.8115
   41CHL1   C10 5479   0.194   5.023   9.832 -0.1434  1.0552 -0.3224
   41CHL1   C19 5480   0.071   5.117   9.831 -0.0252 -0.1662  0.5059
   41CHL1  H19A 5481  -0.000   5.061   9.766 -0.6185 -0.4543  1.3775
   41CHL1  H19B 5482   0.016   5.122   9.927 -0.2064  3.4313  0.3335
   41CHL1  H19C 5483   0.084   5.225   9.812  0.4196  0.0733  2.0690
   41CHL1    C1 5484   0.142   4.876   9.861  0.3601 -0.2585  0.2340
   41CHL1   H1A 5485   0.060   4.852   9.790  0.2785 -1.2240  0.6382
   41CHL1   H1B 5486   0.225   4.808   9.831 -2.2114 -3.0895 -0.9070
   41CHL1    C2 5487   0.092   4.848  10.004  0.0016  0.5503 -0.1749
   41CHL1   H2A 5488   0.067   4.740  10.007  0.5277  0.3558 -1.7472
   41CHL1   H2B 5489  -0.008   4.893  10.023 -0.9451 -1.3694 -0.4566
   41CHL1   C20 5490   0.415   5.137   9.155 -0.3984  0.6425  0.0497
   41CHL1   H20 5491   0.364   5.236   9.152  0.4926  1.0857 -1.5223
   41CHL1   C21 5492   0.317   5.024   9.106  0.1958  0.3907  0.3991
   41CHL1  H21A 5493   0.219   5.033   9.157 -0.6622 -0.2881 -1.0429
   41CHL1  H21B 5494   0.362   4.923   9.120  1.7913  0.9898 -0.2341
   41CHL1  H21C 5495   0.305   5.023   8.995  0.9883  0.5441  0.3096
   41CHL1   C22 5496   0.538   5.124   9.064  0.4412  0.2981 -0.3361
   41CHL1  H22A 5497   0.623   5.185   9.103 -2.2299  2.4019  2.7110
   41CHL1  H22B 5498   0.570   5.018   9.051  3.9361  1.3469 -1.5359
   41CHL1   C23 5499   0.515   5.192   8.926 -0.5329  0.1193 -0.0000
   41CHL1  H23A 5500   0.431   5.145   8.870 -0.0582  2.6389 -3.1077
   41CHL1  H23B 5501   0.495   5.300   8.946 -1.1646  0.0150 -0.0461
   41CHL1   C24 5502   0.647   5.172   8.845  0.2223 -0.3968  1.0660
   41CHL1  H24A 5503   0.730   5.220   8.902  0.1774  1.5884 -0.4078
   41CHL1  H24B 5504   0.674   5.066   8.828  2.2035  0.2514 -0.3521
   41CHL1   C25 5505   0.625   5.244   8.707  0.1098 -0.1523 -0.3933
   41CHL1   H25 5506   0.517   5.241   8.680 -0.0535  1.5890 -0.0468
   41CHL1   C26 5507   0.679   5.390   8.712 -0.0670  0.0909 -0.6238
   41CHL1  H26A 5508   0.788   5.389   8.731 -0.3671 -1.3933  1.3875
   41CHL1  H26B 5509   0.654   5.442   8.617 -1.6955  1.7960  0.6627
   41CHL1  H26C 5510   0.634   5.447   8.796 -1.4871 -1.1814 -0.4563
   41CHL1   C27 5511   0.706   5.170   8.598 -0.1972  0.7251  0.6898
   41CHL1  H27A 5512   0.698   5.230   8.504  0.6096 -1.5781 -0.9615
   41CHL1  H27B 5513   0.814   5.162   8.622  0.1659 -0.8794 -1.2036
   41CHL1  H27C 5514   0.669   5.068   8.576 -2.0098  1.6115 -0.7056
   42CHL1    C3 5515   6.811   3.979   9.685 -0.0218  0.2825 -0.0226
   42CHL1    H3 5516   6.840   3.876   9.716  1.2429  0.2873 -1.0885
   42CHL1    O3 5517   6.789   4.041   9.813 -0.1249  1.2035  0.1088
   42CHL1   H3' 5518   6.722   4.108   9.800 -0.6381  1.3011  2.6433
   42CHL1    C4 5519   6.931   4.058   9.625 -0.3566  0.8761  0.4751
   42CHL1   H4A 5520   6.906   4.167   9.624  1.6000  1.3654 -0.0765
   42CHL1   H4B 5521   7.015   4.037   9.695  1.1880 -0.9076 -1.7529
   42CHL1    C5 5522   6.955   4.013   9.481 -0.7194  0.1797  0.3676
   42CHL1    C6 5523   7.080   3.981   9.451  0.2481  0.1706 -0.1826
   42CHL1    H6 5524   7.157   4.012   9.522  0.3443  1.5013 -0.8372
   42CHL1    C7 5525   7.118   3.935   9.314 -0.2665  0.3550  0.7506
   42CHL1   H7A 5526   7.208   3.991   9.280  0.7618 -0.5623  1.9088
   42CHL1   H7B 5527   7.144   3.827   9.322 -1.8460  0.0434  2.0164
   42CHL1    C8 5528   7.000   3.943   9.212 -0.4322  0.2432 -0.0449
   42CHL1    H8 5529   6.985   4.050   9.185  1.2974  0.8380  1.2001
   42CHL1   C14 5530   7.033   3.863   9.082 -0.4420  0.0353 -0.0857
   42CHL1   H14 5531   7.028   3.758   9.119 -0.5128  0.1978  0.3775
   42CHL1   C15 5532   7.173   3.877   9.013  0.1431 -0.6539 -0.4664
   42CHL1  H15A 5533   7.208   3.981   8.997  2.9835 -1.0634  2.1551
   42CHL1  H15B 5534   7.256   3.832   9.072  1.1702  1.0582 -0.5544
   42CHL1   C16 5535   7.153   3.807   8.875  0.0958 -0.1798 -0.0044
   42CHL1  H16A 5536   7.181   3.866   8.785  0.1133 -2.4381 -1.5366
   42CHL1  H16B 5537   7.221   3.720   8.871  1.0374  0.5887 -1.6921
   42CHL1   C17 5538   6.997   3.782   8.858 -0.4344 -0.2286 -0.0629
   42CHL1   H17 5539   6.987   3.679   8.900 -0.4938  0.3311  1.3586
   42CHL1   C13 5540   6.930   3.872   8.970  0.0633  0.0044 -0.2964
   42CHL1   C18 5541   6.921   4.011   8.909  0.0684 -0.2870  0.5779
   42CHL1  H18A 5542   7.012   4.050   8.860 -0.1647  0.4272  0.7098
   42CHL1  H18B 5543   6.842   4.020   8.832  1.5055  2.0650 -0.7036
   42CHL1  H18C 5544   6.888   4.068   8.999  0.1189 -3.0083  2.4834
   42CHL1   C12 5545   6.801   3.818   9.037 -0.3866  0.0210  0.2536
   42CHL1  H12A 5546   6.718   3.808   8.964  1.6865 -1.5667 -2.0716
   42CHL1  H12B 5547   6.824   3.714   9.070 -1.4306 -1.0026 -2.0122
   42CHL1   C11 5548   6.760   3.898   9.158  0.5184 -0.2842  0.1826
   42CHL1  H11A 5549   6.748   4.003   9.122  2.6878 -1.1065 -3.4092
   42CHL1  H11B 5550   6.664   3.862   9.201 -0.0916  1.4555  0.3758
   42CHL1    C9 5551   6.868   3.901   9.274  0.2295 -0.0595 -0.3825
   42CHL1    H9 5552   6.875   3.798   9.316 -0.0195 -0.1422 -0.5424
   42CHL1   C10 5553   6.827   3.990   9.393 -0.4520  0.0661  0.7923
   42CHL1   C19 5554   6.784   4.130   9.340  0.4810  0.3308  0.3191
   42CHL1  H19A 5555   6.765   4.197   9.426 -1.4154  0.7063 -0.3649
   42CHL1  H19B 5556   6.858   4.179   9.272 -2.0482  2.0626 -1.3630
   42CHL1  H19C 5557   6.696   4.133   9.273  1.3428  1.8587 -0.8395
   42CHL1    C1 5558   6.705   3.925   9.463  0.1485 -0.0343 -0.2902
   42CHL1   H1A 5559   6.619   3.951   9.398  1.3912 -0.4574 -2.2168
   42CHL1   H1B 5560   6.731   3.819   9.482  2.5365  0.0001 -2.6547
   42CHL1    C2 5561   6.680   3.983   9.606  0.6311 -1.9926 -0.0381
   42CHL1   H2A 5562   6.601   3.932   9.665 -1.1232  1.5895  0.9565
   42CHL1   H2B 5563   6.647   4.087   9.588  1.4136 -1.4889  1.3048
   42CHL1   C20 5564   6.957   3.774   8.710  0.8753 -0.6521  0.2873
   42CHL1   H20 5565   6.987   3.871   8.665  1.2521 -0.3336  1.2024
   42CHL1   C21 5566   6.803   3.746   8.700 -0.1460  0.4291 -0.3982
   42CHL1  H21A 5567   6.765   3.724   8.598 -0.1038 -0.9243 -0.1403
   42CHL1  H21B 5568   6.747   3.832   8.743  0.5302 -0.1869  1.8442
   42CHL1  H21C 5569   6.777   3.662   8.768  0.2767  0.4783 -0.1718
   42CHL1   C22 5570   7.037   3.676   8.621 -0.4080  0.6473  0.9426
   42CHL1  H22A 5571   7.144   3.705   8.624 -1.3745  4.6936  0.8504
   42CHL1  H22B 5572   7.024   3.572   8.659  2.1455 -1.0115 -2.2419
   42CHL1   C23 5573   7.002   3.675   8.470 -0.1044 -0.6020  0.9705
   42CHL1  H23A 5574   6.908   3.619   8.450 -0.2238 -0.5869  1.4970
   42CHL1  H23B 5575   6.999   3.783   8.442 -0.5736 -0.9930 -0.6192
   42CHL1   C24 5576   7.107   3.589   8.388  0.1032  0.3258 -0.9227
   42CHL1  H24A 5577   7.079   3.592   8.280 -0.8600 -0.1984 -0.6932
   42CHL1  H24B 5578   7.216   3.602   8.405  0.1592 -2.5866  1.6533
   42CHL1   C25 5579   7.085   3.441   8.424  0.2328 -0.5538 -0.3670
   42CHL1   H25 5580   7.063   3.427   8.532 -1.6991 -0.1176 -0.6664
   42CHL1   C26 5581   6.974   3.371   8.348  0.1074 -0.0601 -0.7068
   42CHL1  H26A 5582   6.880   3.430   8.353  1.1831  1.6341  1.6897
   42CHL1  H26B 5583   6.998   3.359   8.240  0.5623  1.1281 -0.7535
   42CHL1  H26C 5584   6.960   3.268   8.387 -0.9658  0.2818 -0.1511
   42CHL1   C27 5585   7.217   3.351   8.413 -0.1326 -0.3822 -0.4980
   42CHL1  H27A 5586   7.282   3.385   8.496 -1.4129  0.0258  0.3516
   42CHL1  H27B 5587   7.190   3.249   8.448 -2.9677  0.5381  0.2466
   42CHL1  H27C 5588   7.268   3.329   8.316 -0.7560 -1.9782 -0.4847
   43CHL1    C3 5589   1.448   3.216   9.987  0.0122  0.6229 -0.0707
   43CHL1    H3 5590   1.356   3.154   9.981 -0.3046  0.9798  0.8514
   43CHL1    O3 5591   1.454   3.258  10.120 -0.4103 -0.6797 -0.0536
   43CHL1   H3' 5592   1.497   3.184  10.163 -1.1245 -1.6717 -0.9746
   43CHL1    C4 5593   1.562   3.126   9.942 -0.4067  0.2462 -0.8228
   43CHL1   H4A 5594   1.656   3.178   9.972 -0.6555  0.0386  0.3664
   43CHL1   H4B 5595   1.565   3.033  10.003  0.9214  0.0936 -1.0910
   43CHL1    C5 5596   1.554   3.083   9.797 -0.0746  0.3947 -0.8182
   43CHL1    C6 5597   1.563   2.951   9.762 -0.8648  0.0357 -0.6165
   43CHL1    H6 5598   1.570   2.885   9.850  1.7300  0.0687 -0.7282
   43CHL1    C7 5599   1.576   2.912   9.619 -0.0523  0.3428  0.0293
   43CHL1   H7A 5600   1.653   2.833   9.604 -1.4424 -1.0100 -0.2075
   43CHL1   H7B 5601   1.476   2.885   9.581 -1.1217  1.4407  1.9337
   43CHL1    C8 5602   1.616   3.028   9.523  0.2145  0.4945  0.3868
   43CHL1    H8 5603   1.719   3.066   9.540  0.1606  0.1600  1.5445
   43CHL1   C14 5604   1.592   2.992   9.370 -0.1703 -0.4163  0.5427
   43CHL1   H14 5605   1.485   2.964   9.359  0.3971 -1.7278 -2.2414
   43CHL1   C15 5606   1.666   2.865   9.321 -0.5535 -0.4645 -0.0222
   43CHL1  H15A 5607   1.770   2.868   9.359 -0.5130  1.7527 -0.2163
   43CHL1  H15B 5608   1.619   2.772   9.360  0.9009 -0.4947  1.7548
   43CHL1   C16 5609   1.672   2.886   9.169 -0.2218  0.3319  0.2540
   43CHL1  H16A 5610   1.780   2.876   9.145  0.3112  0.0273  2.5588
   43CHL1  H16B 5611   1.622   2.810   9.104  0.3572  1.3708 -1.4681
   43CHL1   C17 5612   1.604   3.024   9.142  0.1299 -0.2294 -1.3509
   43CHL1   H17 5613   1.497   2.995   9.132 -0.0288 -0.1551  0.0018
   43CHL1   C13 5614   1.628   3.105   9.276 -0.4475  1.0814  0.9827
   43CHL1   C18 5615   1.782   3.136   9.279  0.2105 -0.2654  0.7355
   43CHL1  H18A 5616   1.816   3.194   9.190  2.3184 -0.9299  1.0383
   43CHL1  H18B 5617   1.807   3.201   9.366  1.7786  1.4754 -0.9314
   43CHL1  H18C 5618   1.848   3.047   9.283 -0.5427 -0.7951  1.9058
   43CHL1   C12 5619   1.536   3.224   9.300  0.6118 -0.5130 -0.9487
   43CHL1  H12A 5620   1.562   3.311   9.236  0.5776 -0.7455 -1.2836
   43CHL1  H12B 5621   1.435   3.186   9.272 -0.3205  0.6263  0.7316
   43CHL1   C11 5622   1.552   3.268   9.444  0.1877  1.0517  0.3495
   43CHL1  H11A 5623   1.657   3.304   9.449  1.1308 -1.6789  3.0666
   43CHL1  H11B 5624   1.492   3.359   9.464  0.1940  1.3550 -0.9028
   43CHL1    C9 5625   1.534   3.156   9.555  0.0800  1.6204 -0.2890
   43CHL1    H9 5626   1.430   3.116   9.545  1.1797 -1.3827 -1.0343
   43CHL1   C10 5627   1.549   3.205   9.699  0.1269  0.7272  0.0774
   43CHL1   C19 5628   1.686   3.278   9.719 -0.2792  0.0723 -0.3321
   43CHL1  H19A 5629   1.699   3.371   9.661  0.9239  0.2742  0.2422
   43CHL1  H19B 5630   1.714   3.310   9.822  1.3424  3.9200 -1.7735
   43CHL1  H19C 5631   1.763   3.206   9.685 -0.4957 -0.7856  0.9301
   43CHL1    C1 5632   1.436   3.294   9.741  0.7646 -0.1612 -0.3574
   43CHL1   H1A 5633   1.434   3.389   9.684 -2.8487 -0.7709 -1.4618
   43CHL1   H1B 5634   1.340   3.241   9.722  1.0666 -0.4854 -1.0443
   43CHL1    C2 5635   1.437   3.332   9.892  0.3816  0.4743 -0.1867
   43CHL1   H2A 5636   1.337   3.380   9.900 -0.2641  0.0738 -4.0612
   43CHL1   H2B 5637   1.515   3.408   9.912  1.6038 -0.8057  0.0995
   43CHL1   C20 5638   1.637   3.084   9.003 -0.8425  0.0808 -0.1150
   43CHL1   H20 5639   1.740   3.127   9.000 -0.6152 -0.1971  2.2093
   43CHL1   C21 5640   1.537   3.200   8.965 -0.6770 -0.7251 -0.2081
   43CHL1  H21A 5641   1.562   3.283   9.035 -1.0962 -1.0077  0.2794
   43CHL1  H21B 5642   1.438   3.153   8.975  0.3911 -3.3132 -1.0217
   43CHL1  H21C 5643   1.548   3.240   8.861 -0.6287  3.6019  1.2289
   43CHL1   C22 5644   1.637   2.979   8.888 -0.9522  0.2339 -0.0380
   43CHL1  H22A 5645   1.719   2.908   8.915 -0.0726  1.2613  0.0564
   43CHL1  H22B 5646   1.542   2.921   8.890 -0.2704 -0.9467  2.4273
   43CHL1   C23 5647   1.653   3.032   8.748  0.2034 -0.6283 -0.0223
   43CHL1  H23A 5648   1.553   3.056   8.705 -1.3807 -0.9326  3.1079
   43CHL1  H23B 5649   1.710   3.127   8.743  1.2060 -1.1478  1.0981
   43CHL1   C24 5650   1.741   2.939   8.656 -0.2961 -0.1411  0.4113
   43CHL1  H24A 5651   1.774   2.987   8.562 -2.3950 -0.3943 -0.4962
   43CHL1  H24B 5652   1.830   2.911   8.717  0.3903 -0.8462 -0.8596
   43CHL1   C25 5653   1.674   2.813   8.619 -0.6027 -0.5229  0.1443
   43CHL1   H25 5654   1.639   2.778   8.718 -0.7759 -0.7630 -0.0011
   43CHL1   C26 5655   1.545   2.825   8.526  0.2803  0.2238 -0.0862
   43CHL1  H26A 5656   1.499   2.724   8.521  0.6313  0.1145 -1.4683
   43CHL1  H26B 5657   1.478   2.900   8.572  0.4092 -0.7425  1.7570
   43CHL1  H26C 5658   1.577   2.854   8.424  2.5300 -1.3204  0.1053
   43CHL1   C27 5659   1.772   2.711   8.572 -0.1165  0.0703  0.3349
   43CHL1  H27A 5660   1.838   2.740   8.487 -0.9377 -2.6690 -1.3485
   43CHL1  H27B 5661   1.832   2.690   8.663 -1.7039 -1.1626  1.1483
   43CHL1  H27C 5662   1.718   2.620   8.540 -1.0477  0.9320 -0.6225
   44CHL1    C3 5663   0.696   4.884  10.118 -0.6291  0.1386  0.3963
   44CHL1    H3 5664   0.629   4.967  10.086  1.1467  1.5011  0.0097
   44CHL1    O3 5665   0.695   4.873  10.257 -0.4643 -0.0280  0.0257
   44CHL1   H3' 5666   0.787   4.854  10.279 -0.5612 -2.6039 -1.3782
   44CHL1    C4 5667   0.650   4.750  10.061 -0.0872 -0.0207  0.2434
   44CHL1   H4A 5668   0.710   4.668  10.106  0.2420  0.1583  0.1378
   44CHL1   H4B 5669   0.547   4.718  10.087  0.1820 -1.7040 -0.6201
   44CHL1    C5 5670   0.668   4.750   9.911  0.5914  0.7006  0.8861
   44CHL1    C6 5671   0.565   4.714   9.834 -0.0443 -0.9208  0.6057
   44CHL1    H6 5672   0.472   4.679   9.882 -0.1422 -1.3792  0.0883
   44CHL1    C7 5673   0.572   4.719   9.684  0.5270 -0.2923  1.1391
   44CHL1   H7A 5674   0.536   4.627   9.633  0.8962 -0.1254  0.5632
   44CHL1   H7B 5675   0.510   4.805   9.651 -0.8375 -1.7607 -0.3728
   44CHL1    C8 5676   0.717   4.741   9.618 -0.1171 -0.3844 -0.0329
   44CHL1    H8 5677   0.779   4.648   9.620  2.5309  1.2772  0.3675
   44CHL1   C14 5678   0.710   4.779   9.473 -0.0111 -0.1623  0.1243
   44CHL1   H14 5679   0.652   4.874   9.473 -0.1423 -0.2413  0.2303
   44CHL1   C15 5680   0.641   4.680   9.380  0.5908 -0.3485 -0.2751
   44CHL1  H15A 5681   0.675   4.575   9.398 -3.7398 -1.9085 -0.1407
   44CHL1  H15B 5682   0.535   4.654   9.397  1.3280 -2.1001  2.2987
   44CHL1   C16 5683   0.684   4.731   9.243  0.3733 -0.3649  0.2889
   44CHL1  H16A 5684   0.711   4.652   9.170 -1.1089  1.2943 -2.2377
   44CHL1  H16B 5685   0.595   4.787   9.206  0.2561  1.1944  2.6882
   44CHL1   C17 5686   0.795   4.837   9.260 -0.5024 -0.3714 -0.1820
   44CHL1   H17 5687   0.756   4.941   9.258 -0.4481 -0.3203  0.7981
   44CHL1   C13 5688   0.847   4.807   9.407 -0.2818  0.1905  0.4134
   44CHL1   C18 5689   0.932   4.679   9.394 -0.3345 -0.5283  0.4740
   44CHL1  H18A 5690   1.032   4.709   9.355 -0.7927  0.0201 -0.3052
   44CHL1  H18B 5691   0.948   4.643   9.498 -4.0898  0.4742  1.5445
   44CHL1  H18C 5692   0.885   4.594   9.340  0.2551 -0.3696 -0.3115
   44CHL1   C12 5693   0.919   4.924   9.475 -0.0699  0.0324  0.1110
   44CHL1  H12A 5694   1.022   4.939   9.439  1.0368  0.6595  3.2185
   44CHL1  H12B 5695   0.862   5.017   9.451  0.5759  0.2206 -0.7448
   44CHL1   C11 5696   0.924   4.899   9.629  0.0284 -0.0372  0.4844
   44CHL1  H11A 5697   0.997   4.819   9.655 -0.5486  0.0164  2.4534
   44CHL1  H11B 5698   0.953   4.983   9.694 -0.6244 -0.1135  0.8801
   44CHL1    C9 5699   0.792   4.843   9.692  0.3998 -0.5544 -0.5112
   44CHL1    H9 5700   0.722   4.929   9.693 -0.5915 -1.2715  1.8477
   44CHL1   C10 5701   0.799   4.807   9.848 -0.0664  0.2510 -0.1091
   44CHL1   C19 5702   0.900   4.691   9.871 -0.5818  0.3018 -0.2704
   44CHL1  H19A 5703   1.007   4.718   9.860 -0.4182  0.7102  1.8412
   44CHL1  H19B 5704   0.894   4.642   9.971 -2.2782  0.0660 -0.4587
   44CHL1  H19C 5705   0.880   4.607   9.800  0.2103 -1.9335  1.9915
   44CHL1    C1 5706   0.854   4.927   9.931 -0.0312  0.5014  0.3379
   44CHL1   H1A 5707   0.960   4.952   9.910 -0.3103  1.1074 -0.4135
   44CHL1   H1B 5708   0.798   5.018   9.899 -0.4169  0.1293 -0.0775
   44CHL1    C2 5709   0.840   4.907  10.087  0.0398 -0.0333 -0.1913
   44CHL1   H2A 5710   0.887   4.992  10.141 -0.7553  1.3300 -1.5433
   44CHL1   H2B 5711   0.888   4.809  10.107 -1.3664 -0.4084  1.5785
   44CHL1   C20 5712   0.898   4.838   9.143 -0.3711  0.0952 -0.6032
   44CHL1   H20 5713   0.959   4.746   9.152  0.6080  0.9078  1.7300
   44CHL1   C21 5714   1.002   4.953   9.152  0.7355  0.7321  0.0260
   44CHL1  H21A 5715   0.949   5.049   9.169 -0.1169  0.1333  0.7746
   44CHL1  H21B 5716   1.059   4.958   9.056  1.0378 -1.0553  0.0885
   44CHL1  H21C 5717   1.074   4.942   9.235 -0.2964  0.7841  0.9446
   44CHL1   C22 5718   0.833   4.830   9.005  0.1290  0.1040  0.2073
   44CHL1  H22A 5719   0.764   4.743   9.005 -1.2667  1.1757  1.1599
   44CHL1  H22B 5720   0.776   4.919   8.972 -0.9088 -0.6985 -0.2242
   44CHL1   C23 5721   0.934   4.824   8.890  0.5994 -0.7583  0.9188
   44CHL1  H23A 5722   1.007   4.908   8.891  1.3010 -1.2921 -1.0573
   44CHL1  H23B 5723   0.997   4.734   8.910  2.1333  0.4254  1.6316
   44CHL1   C24 5724   0.866   4.831   8.745  0.7156  0.4130 -0.6973
   44CHL1  H24A 5725   0.801   4.743   8.765  3.3252 -1.1316  1.5799
   44CHL1  H24B 5726   0.811   4.927   8.735  1.1869  0.7646  0.0549
   44CHL1   C25 5727   0.930   4.789   8.609 -0.3410 -0.0082  0.3686
   44CHL1   H25 5728   0.850   4.773   8.534  1.1868  0.9539 -1.5622
   44CHL1   C26 5729   1.020   4.913   8.567  0.3740  0.0980  0.4587
   44CHL1  H26A 5730   1.080   4.893   8.475  1.6932  0.9554  1.1030
   44CHL1  H26B 5731   0.953   5.000   8.553 -0.4059 -0.3206  1.4298
   44CHL1  H26C 5732   1.099   4.924   8.644  0.9145 -0.7072  0.0342
   44CHL1   C27 5733   1.017   4.663   8.612  0.4012  1.0260 -0.2645
   44CHL1  H27A 5734   1.048   4.624   8.512 -0.8916 -1.2006  0.1405
   44CHL1  H27B 5735   1.105   4.683   8.677 -0.2987  0.8798  0.7475
   44CHL1  H27C 5736   0.969   4.572   8.654  2.9369 -0.2925 -0.0520
   45CHL1    C3 5737   5.344   3.802  10.267  0.3176  0.1077 -0.3586
   45CHL1    H3 5738   5.283   3.879  10.319 -0.1882 -1.2489  1.1207
   45CHL1    O3 5739   5.403   3.720  10.362 -0.1343  0.1313 -1.0676
   45CHL1   H3' 5740   5.476   3.769  10.400  0.7716 -0.8578 -1.4946
   45CHL1    C4 5741   5.257   3.715  10.169  0.1449 -0.4940  0.1242
   45CHL1   H4A 5742   5.327   3.633  10.143 -0.0416 -0.2639 -1.1931
   45CHL1   H4B 5743   5.173   3.673  10.230  0.4565 -2.4176 -0.6954
   45CHL1    C5 5744   5.212   3.790  10.044 -0.9058  0.5253 -0.1796
   45CHL1    C6 5745   5.088   3.792  10.005  0.0845  0.1146 -0.2705
   45CHL1    H6 5746   5.016   3.727  10.057  0.5522  0.1055  0.3732
   45CHL1    C7 5747   5.026   3.863   9.890 -0.5759  0.1081 -0.0288
   45CHL1   H7A 5748   4.960   3.792   9.835 -1.0036 -1.6831  2.6040
   45CHL1   H7B 5749   4.966   3.952   9.920 -1.5879 -0.9631  1.2152
   45CHL1    C8 5750   5.127   3.923   9.797 -0.4556  0.3245 -0.2983
   45CHL1    H8 5751   5.088   4.018   9.755  0.2135  0.7516  0.0310
   45CHL1   C14 5752   5.154   3.841   9.673  0.8099 -0.5241  0.3429
   45CHL1   H14 5753   5.184   3.742   9.715  1.2962 -1.3066 -1.7352
   45CHL1   C15 5754   5.034   3.832   9.573 -0.2265 -0.3512  0.0232
   45CHL1  H15A 5755   5.038   3.739   9.512 -2.9461  0.2455 -1.2203
   45CHL1  H15B 5756   4.937   3.833   9.627  0.2851 -1.7285  1.0356
   45CHL1   C16 5757   5.039   3.946   9.468 -0.2047 -0.4895  0.3028
   45CHL1  H16A 5758   5.010   3.896   9.373 -4.9284  0.5633  0.9494
   45CHL1  H16B 5759   4.974   4.029   9.503  0.3304 -0.5051  1.3616
   45CHL1   C17 5760   5.184   3.989   9.479 -0.2033  0.1996  0.1227
   45CHL1   H17 5761   5.181   4.091   9.524 -0.8075  0.2789 -0.0925
   45CHL1   C13 5762   5.260   3.901   9.585 -0.8949 -0.4462 -0.2089
   45CHL1   C18 5763   5.330   3.775   9.520 -0.5513 -0.2767  0.1889
   45CHL1  H18A 5764   5.380   3.723   9.604 -1.3144 -1.7084 -0.2207
   45CHL1  H18B 5765   5.259   3.696   9.487 -0.2665 -0.4722  0.0467
   45CHL1  H18C 5766   5.411   3.808   9.451  0.4839  0.1532  1.5841
   45CHL1   C12 5767   5.375   3.978   9.654 -0.3374  0.3546  0.3276
   45CHL1  H12A 5768   5.444   3.900   9.694 -1.1162 -0.7562 -0.4343
   45CHL1  H12B 5769   5.438   4.044   9.591  0.9472 -0.6490  0.5084
   45CHL1   C11 5770   5.330   4.052   9.771 -0.4307  0.3270 -0.4347
   45CHL1  H11A 5771   5.416   4.098   9.825  1.2327 -3.1763  0.2020
   45CHL1  H11B 5772   5.271   4.138   9.733  0.2965  0.8433 -0.4273
   45CHL1    C9 5773   5.246   3.979   9.877  0.4553 -0.0054  0.8510
   45CHL1    H9 5774   5.195   4.049   9.946 -4.2045 -2.2843  0.1417
   45CHL1   C10 5775   5.317   3.878   9.971  0.5505  0.4699 -0.5621
   45CHL1   C19 5776   5.409   3.781   9.904  0.8025 -0.0966  0.1547
   45CHL1  H19A 5777   5.436   3.692   9.965  1.1562 -1.1128 -1.4238
   45CHL1  H19B 5778   5.363   3.734   9.814 -0.5191 -0.3334  0.9325
   45CHL1  H19C 5779   5.505   3.826   9.872 -0.5405  1.8094 -1.3706
   45CHL1    C1 5780   5.399   3.959  10.073  0.3444 -0.0584 -0.2366
   45CHL1   H1A 5781   5.476   4.023  10.025 -0.3056  1.3813  0.5772
   45CHL1   H1B 5782   5.333   4.030  10.128 -2.0799 -0.9546 -1.7903
   45CHL1    C2 5783   5.459   3.876  10.195  0.4771  0.1189 -0.6162
   45CHL1   H2A 5784   5.520   3.941  10.261  3.1237  0.1535 -2.9097
   45CHL1   H2B 5785   5.542   3.814  10.155 -1.1598 -1.0006 -2.4502
   45CHL1   C20 5786   5.245   4.022   9.344 -0.2172 -0.4509 -0.3713
   45CHL1   H20 5787   5.342   4.073   9.362 -0.3823 -0.6781  1.3288
   45CHL1   C21 5788   5.149   4.133   9.290  0.0848 -0.2866 -0.0733
   45CHL1  H21A 5789   5.041   4.108   9.279  0.2737 -0.7773 -0.9611
   45CHL1  H21B 5790   5.183   4.160   9.187  2.0742 -1.0320  0.3468
   45CHL1  H21C 5791   5.168   4.227   9.346 -0.9332 -2.0590  3.5516
   45CHL1   C22 5792   5.267   3.911   9.235 -0.3380 -0.7591  0.0096
   45CHL1  H22A 5793   5.291   3.808   9.267  2.5543 -1.0433 -2.6490
   45CHL1  H22B 5794   5.165   3.884   9.201 -0.5636 -1.0216  0.8608
   45CHL1   C23 5795   5.339   3.956   9.108 -0.4680  0.7994  0.2048
   45CHL1  H23A 5796   5.279   4.022   9.042  0.1612  2.3304  1.1098
   45CHL1  H23B 5797   5.423   4.017   9.147  0.2152 -1.5646  2.7126
   45CHL1   C24 5798   5.397   3.839   9.027  0.3404  0.1147  0.1673
   45CHL1  H24A 5799   5.477   3.783   9.080  0.5585 -0.1662 -0.4435
   45CHL1  H24B 5800   5.319   3.763   9.005  0.7767 -0.1957 -0.3600
   45CHL1   C25 5801   5.452   3.882   8.895  0.5294 -0.0248  0.3015
   45CHL1   H25 5802   5.372   3.930   8.836 -0.3238  1.3109  2.4030
   45CHL1   C26 5803   5.559   4.001   8.914 -0.2454  0.2215 -0.3106
   45CHL1  H26A 5804   5.611   4.019   8.817  0.6351 -3.2949 -0.6196
   45CHL1  H26B 5805   5.521   4.088   8.971 -0.3686 -0.3252  0.4579
   45CHL1  H26C 5806   5.642   3.955   8.970 -0.8201 -1.2841 -0.6359
   45CHL1   C27 5807   5.518   3.760   8.835 -0.2499  0.1730 -0.2704
   45CHL1  H27A 5808   5.605   3.735   8.900 -1.7373  1.2186  2.2951
   45CHL1  H27B 5809   5.448   3.674   8.827  1.4473 -1.2045 -0.9631
   45CHL1  H27C 5810   5.556   3.781   8.733 -1.4490  2.2308 -0.3415
   46CHL1    C3 5811   0.946   6.373  10.056 -0.1610  0.7594 -0.1571
   46CHL1    H3 5812   0.961   6.263  10.045 -2.5096  0.3553  0.2268
   46CHL1    O3 5813   0.949   6.411  10.192 -0.3308  0.1507 -0.3275
   46CHL1   H3' 5814   0.912   6.499  10.196 -1.3506 -0.1715 -2.0217
   46CHL1    C4 5815   1.060   6.440   9.975 -0.2292  0.4768  0.0856
   46CHL1   H4A 5816   1.066   6.550   9.976  1.6520  0.5284 -2.8826
   46CHL1   H4B 5817   1.154   6.402  10.021  0.7302  0.3530 -1.8774
   46CHL1    C5 5818   1.063   6.403   9.829  0.1515 -0.8288 -0.6215
   46CHL1    C6 5819   1.159   6.344   9.759 -0.4042  0.5478 -0.0973
   46CHL1    H6 5820   1.257   6.319   9.802 -0.2438 -0.9293 -1.2688
   46CHL1    C7 5821   1.156   6.323   9.614  0.5762 -0.0935 -0.2980
   46CHL1   H7A 5822   1.261   6.335   9.580  1.5375 -0.9366  2.1269
   46CHL1   H7B 5823   1.134   6.216   9.594  0.7192 -0.2040  0.1191
   46CHL1    C8 5824   1.053   6.388   9.530 -0.3144 -0.2736 -0.6989
   46CHL1    H8 5825   1.080   6.495   9.515 -1.9485  0.4929  1.3114
   46CHL1   C14 5826   1.032   6.324   9.389 -0.4286  0.5218 -0.1265
   46CHL1   H14 5827   0.991   6.222   9.402  1.0198 -0.5847 -3.2639
   46CHL1   C15 5828   1.154   6.310   9.297  0.0188  0.1465  0.3953
   46CHL1  H15A 5829   1.204   6.409   9.292  0.1658  0.0218 -2.3664
   46CHL1  H15B 5830   1.227   6.236   9.336  1.4290 -0.2178 -2.6456
   46CHL1   C16 5831   1.090   6.274   9.161 -0.1511  0.4264 -0.5512
   46CHL1  H16A 5832   1.125   6.349   9.088  2.7853  0.9081  1.1976
   46CHL1  H16B 5833   1.109   6.169   9.131 -0.4358 -0.3066  1.6311
   46CHL1   C17 5834   0.939   6.294   9.185 -0.6981 -0.7261 -0.4224
   46CHL1   H17 5835   0.903   6.192   9.209  1.9556 -1.1618  2.3072
   46CHL1   C13 5836   0.925   6.390   9.310 -0.6934 -0.2666 -0.0451
   46CHL1   C18 5837   0.953   6.540   9.261  0.8561 -0.3470 -0.1067
   46CHL1  H18A 5838   0.991   6.602   9.345  0.8654  1.2587 -1.2572
   46CHL1  H18B 5839   1.033   6.544   9.183 -0.0466 -1.4416 -1.1230
   46CHL1  H18C 5840   0.863   6.591   9.221 -0.1639 -2.7396 -1.0494
   46CHL1   C12 5841   0.794   6.370   9.388  0.2037 -0.5491 -0.7035
   46CHL1  H12A 5842   0.707   6.424   9.345 -0.1850  0.9820  1.8155
   46CHL1  H12B 5843   0.782   6.260   9.398  2.4807 -1.0216 -2.3352
   46CHL1   C11 5844   0.804   6.436   9.528  0.9075 -1.1464 -0.1503
   46CHL1  H11A 5845   0.831   6.542   9.509 -0.9703 -0.8024 -1.1743
   46CHL1  H11B 5846   0.709   6.434   9.585  0.5136 -0.5374 -0.7729
   46CHL1    C9 5847   0.919   6.384   9.609 -0.3781  0.4966 -0.0567
   46CHL1    H9 5848   0.888   6.278   9.617 -0.1445  0.4998  0.9675
   46CHL1   C10 5849   0.931   6.433   9.757  0.3174  0.1224  0.0461
   46CHL1   C19 5850   0.914   6.590   9.753 -0.0424  0.3019  0.1609
   46CHL1  H19A 5851   0.982   6.653   9.692 -0.8107  0.0600 -0.9876
   46CHL1  H19B 5852   0.813   6.618   9.714 -0.3486 -0.0980  0.6587
   46CHL1  H19C 5853   0.907   6.626   9.858 -1.8158  0.4446  0.0315
   46CHL1    C1 5854   0.807   6.372   9.841 -0.6226  0.2908 -0.1536
   46CHL1   H1A 5855   0.713   6.409   9.794 -0.7213  2.1704  1.3846
   46CHL1   H1B 5856   0.810   6.262   9.824  1.5614  0.7058 -3.0597
   46CHL1    C2 5857   0.815   6.400   9.995 -0.0164  0.0987  0.2300
   46CHL1   H2A 5858   0.734   6.340  10.042  0.2026 -1.1124 -0.8668
   46CHL1   H2B 5859   0.789   6.507  10.008  4.1926  1.3174 -0.0428
   46CHL1   C20 5860   0.868   6.338   9.061 -0.7193 -0.3898 -0.0991
   46CHL1   H20 5861   0.905   6.433   9.017  0.1278 -1.0461 -0.8809
   46CHL1   C21 5862   0.717   6.345   9.083  0.4164 -0.0615  0.2179
   46CHL1  H21A 5863   0.690   6.418   9.162  0.4898 -0.1765  0.3505
   46CHL1  H21B 5864   0.686   6.244   9.115 -0.3135 -0.5122 -1.7458
   46CHL1  H21C 5865   0.660   6.373   8.991  0.0152 -1.1870  0.1166
   46CHL1   C22 5866   0.885   6.232   8.949 -1.0822 -0.0995 -0.1024
   46CHL1  H22A 5867   0.910   6.132   8.992  3.3860  0.7374 -0.2243
   46CHL1  H22B 5868   0.785   6.208   8.908 -2.3270  2.4105  1.2630
   46CHL1   C23 5869   0.983   6.264   8.836  0.5449 -0.1392  0.0398
   46CHL1  H23A 5870   0.942   6.330   8.756  3.7778  1.8982 -0.1437
   46CHL1  H23B 5871   1.074   6.316   8.873 -1.3327  1.8422  2.2418
   46CHL1   C24 5872   1.036   6.142   8.774 -0.0900  0.1245  0.5132
   46CHL1  H24A 5873   1.112   6.179   8.702 -1.0381 -1.3969 -1.3669
   46CHL1  H24B 5874   1.093   6.085   8.851  1.7144 -1.9376 -2.1934
   46CHL1   C25 5875   0.933   6.049   8.709 -0.7787  0.0153  0.5644
   46CHL1   H25 5876   0.862   6.019   8.789 -2.8931  3.0617  0.0074
   46CHL1   C26 5877   0.845   6.119   8.601 -0.5542  0.3869 -0.5578
   46CHL1  H26A 5878   0.780   6.043   8.553  2.1980 -1.7308 -1.1650
   46CHL1  H26B 5879   0.779   6.197   8.645  0.8806 -0.5719  3.8007
   46CHL1  H26C 5880   0.912   6.160   8.523  0.4803  2.4461  1.3047
   46CHL1   C27 5881   0.984   5.921   8.649  0.0992  0.5393  0.2275
   46CHL1  H27A 5882   0.902   5.848   8.634  1.2785 -0.8644  0.3630
   46CHL1  H27B 5883   1.027   5.945   8.549  1.5083 -2.0882  0.1078
   46CHL1  H27C 5884   1.062   5.864   8.705 -0.9282  0.0536  1.2123
   47CHL1    C3 5885   1.178   3.755  10.038  0.5509 -0.6413 -0.0124
   47CHL1    H3 5886   1.190   3.645  10.049  1.9107 -0.2628  3.2738
   47CHL1    O3 5887   1.152   3.811  10.168  0.0971  0.1517 -0.4926
   47CHL1   H3' 5888   1.233   3.853  10.198  0.3777  0.4642 -1.6366
   47CHL1    C4 5889   1.308   3.821   9.984 -0.9359  0.1793  0.3640
   47CHL1   H4A 5890   1.300   3.931   9.997  0.3505  0.4843 -1.1306
   47CHL1   H4B 5891   1.393   3.793  10.050 -1.2371  1.8683  1.5658
   47CHL1    C5 5892   1.330   3.779   9.836 -0.0199 -0.4268  0.0239
   47CHL1    C6 5893   1.450   3.723   9.804  0.3627 -0.5137  0.7909
   47CHL1    H6 5894   1.523   3.700   9.882 -0.8201 -2.0241  1.4980
   47CHL1    C7 5895   1.485   3.691   9.663 -0.4381 -0.0455  0.2483
   47CHL1   H7A 5896   1.587   3.733   9.652 -0.7770  0.9080  0.6347
   47CHL1   H7B 5897   1.485   3.581   9.643 -0.6668  0.5557 -4.0072
   47CHL1    C8 5898   1.388   3.761   9.557 -0.2744 -0.2810  0.2115
   47CHL1    H8 5899   1.432   3.863   9.547 -0.1360 -0.5387 -2.4818
   47CHL1   C14 5900   1.398   3.688   9.428 -0.1682  0.1252  0.9998
   47CHL1   H14 5901   1.347   3.591   9.448 -1.8045  1.2006  2.3660
   47CHL1   C15 5902   1.545   3.661   9.368 -0.8443 -0.3258 -0.2393
   47CHL1  H15A 5903   1.618   3.743   9.383  0.3882 -0.6167 -3.7597
   47CHL1  H15B 5904   1.592   3.571   9.412  1.9008 -0.9344 -3.9469
   47CHL1   C16 5905   1.509   3.636   9.220  0.1069  0.0688 -0.3780
   47CHL1  H16A 5906   1.570   3.709   9.163  1.7361  0.1728  1.3975
   47CHL1  H16B 5907   1.524   3.531   9.187 -1.1382 -0.0418 -0.6506
   47CHL1   C17 5908   1.361   3.670   9.198  0.3863  0.1284 -0.1947
   47CHL1   H17 5909   1.313   3.574   9.226  0.4854 -0.0331 -0.5725
   47CHL1   C13 5910   1.318   3.764   9.311 -0.2941 -0.0334 -0.2889
   47CHL1   C18 5911   1.365   3.911   9.288  0.6422 -0.8524  0.7289
   47CHL1  H18A 5912   1.365   3.965   9.385 -0.4820 -1.8705  1.3178
   47CHL1  H18B 5913   1.469   3.922   9.250  0.6403 -2.1985  0.2587
   47CHL1  H18C 5914   1.290   3.953   9.218  3.4132  1.3450 -1.1310
   47CHL1   C12 5915   1.175   3.765   9.355  0.3628 -0.3866  0.1028
   47CHL1  H12A 5916   1.113   3.823   9.284  1.8102 -0.5625 -1.3631
   47CHL1  H12B 5917   1.130   3.664   9.362  0.6006 -0.4797  0.3115
   47CHL1   C11 5918   1.144   3.828   9.490 -0.5258  0.0420  0.2182
   47CHL1  H11A 5919   1.166   3.937   9.486  1.3339 -0.3268 -0.0941
   47CHL1  H11B 5920   1.036   3.805   9.503 -0.9346  1.9029  0.4902
   47CHL1    C9 5921   1.244   3.764   9.596  0.9435 -0.3385  0.4230
   47CHL1    H9 5922   1.221   3.656   9.609 -0.8406 -0.0270  0.0025
   47CHL1   C10 5923   1.220   3.826   9.740  0.1822 -0.4826 -0.1986
   47CHL1   C19 5924   1.198   3.979   9.742 -0.6274 -0.0167  0.1658
   47CHL1  H19A 5925   1.210   4.013   9.847  2.4605 -0.5735  0.0987
   47CHL1  H19B 5926   1.272   4.029   9.675  0.6265 -2.9129 -0.7407
   47CHL1  H19C 5927   1.093   3.993   9.708 -0.0463 -1.3214 -2.3908
   47CHL1    C1 5928   1.091   3.756   9.799 -0.3107  0.4471  0.1301
   47CHL1   H1A 5929   1.009   3.790   9.731  0.1622  0.6055 -0.3658
   47CHL1   H1B 5930   1.104   3.646   9.793 -0.8460  0.4267 -0.8952
   47CHL1    C2 5931   1.060   3.786   9.949 -0.1366  0.2614  0.2048
   47CHL1   H2A 5932   0.972   3.725   9.979 -0.4819  0.3345 -0.6259
   47CHL1   H2B 5933   1.036   3.894   9.960 -1.4537  0.0194 -0.1732
   47CHL1   C20 5934   1.321   3.711   9.056  0.2619  0.7398 -0.0282
   47CHL1   H20 5935   1.384   3.799   9.031  2.1473 -0.9627 -1.5998
   47CHL1   C21 5936   1.167   3.731   9.045  0.3699  0.1537  0.2696
   47CHL1  H21A 5937   1.127   3.713   8.943 -0.2740  0.6818  0.4244
   47CHL1  H21B 5938   1.133   3.835   9.065 -1.3629 -0.1933 -0.6479
   47CHL1  H21C 5939   1.111   3.662   9.112  0.9930 -0.9920 -0.3609
   47CHL1   C22 5940   1.360   3.597   8.953  0.3702  0.0061  0.4252
   47CHL1  H22A 5941   1.440   3.535   9.000 -0.2011 -1.2804 -0.2374
   47CHL1  H22B 5942   1.276   3.525   8.940 -0.3787  0.6135  1.7479
   47CHL1   C23 5943   1.397   3.656   8.810 -0.2488  0.3061  0.3528
   47CHL1  H23A 5944   1.313   3.718   8.772 -0.5983 -0.6725 -0.5335
   47CHL1  H23B 5945   1.484   3.725   8.820  0.4058  0.2692 -3.3948
   47CHL1   C24 5946   1.445   3.554   8.706  0.5078  0.1363 -0.0313
   47CHL1  H24A 5947   1.524   3.502   8.765  0.4620  0.5743  0.4263
   47CHL1  H24B 5948   1.365   3.481   8.680  0.7116  0.1524 -0.7137
   47CHL1   C25 5949   1.523   3.618   8.590  0.5401  0.2290  0.1637
   47CHL1   H25 5950   1.601   3.681   8.638  0.0839 -0.1061  1.4021
   47CHL1   C26 5951   1.582   3.505   8.506 -0.6734  0.9109  0.6061
   47CHL1  H26A 5952   1.647   3.442   8.570 -0.9871  2.3948  2.4997
   47CHL1  H26B 5953   1.634   3.545   8.416  2.1352  0.0033  1.7017
   47CHL1  H26C 5954   1.498   3.446   8.464 -0.9540  2.2289 -0.8124
   47CHL1   C27 5955   1.433   3.711   8.513  0.8244 -1.0353  0.1433
   47CHL1  H27A 5956   1.345   3.670   8.460  1.5738  1.2089 -3.1937
   47CHL1  H27B 5957   1.399   3.799   8.572 -1.5349 -1.4977 -0.4158
   47CHL1  H27C 5958   1.501   3.754   8.435  0.5164  0.3961  0.6225
   48CHL1    C3 5959   2.895   5.219  10.240 -0.4882  0.1870  0.0990
   48CHL1    H3 5960   2.843   5.317  10.247 -0.3557  0.2690 -0.0659
   48CHL1    O3 5961   2.916   5.161  10.369  0.0469  0.4136 -0.4994
   48CHL1   H3' 5962   3.002   5.119  10.364  0.5081  1.4004 -1.5092
   48CHL1    C4 5963   2.807   5.131  10.151 -0.6349 -0.9548 -0.1499
   48CHL1   H4A 5964   2.844   5.027  10.160  0.5489 -0.3854  2.6793
   48CHL1   H4B 5965   2.711   5.123  10.205  0.2937  0.0477  1.7242
   48CHL1    C5 5966   2.806   5.182  10.010 -0.0323  0.2461 -0.4590
   48CHL1    C6 5967   2.688   5.210   9.953 -0.7497  0.2925 -0.0418
   48CHL1    H6 5968   2.597   5.198  10.013  0.3676  2.3003  2.2146
   48CHL1    C7 5969   2.671   5.251   9.812 -0.1545 -0.2154  0.1544
   48CHL1   H7A 5970   2.582   5.211   9.759 -1.2860 -0.6868  2.3059
   48CHL1   H7B 5971   2.662   5.362   9.812  1.1094 -0.1055 -0.2332
   48CHL1    C8 5972   2.799   5.217   9.733  0.1466  0.1747 -0.5495
   48CHL1    H8 5973   2.798   5.106   9.727 -0.4409  0.2220 -1.4177
   48CHL1   C14 5974   2.793   5.273   9.600 -0.3273 -0.5874  0.9738
   48CHL1   H14 5975   2.786   5.381   9.627 -2.4103 -1.1113  2.7589
   48CHL1   C15 5976   2.671   5.251   9.505 -0.6488  0.3522 -0.2672
   48CHL1  H15A 5977   2.618   5.154   9.515  0.1658 -0.0527  0.2609
   48CHL1  H15B 5978   2.597   5.330   9.530  2.1477  2.6203  1.4918
   48CHL1   C16 5979   2.730   5.269   9.363  0.5199  0.0796  0.0573
   48CHL1  H16A 5980   2.720   5.177   9.303 -0.9213  0.8319 -0.9248
   48CHL1  H16B 5981   2.659   5.338   9.312  1.7923  1.7879  0.4752
   48CHL1   C17 5982   2.869   5.323   9.372  0.0060  0.9770 -0.4746
   48CHL1   H17 5983   2.865   5.434   9.379 -1.3165  1.0574 -2.0274
   48CHL1   C13 5984   2.912   5.268   9.502 -0.6110  0.6450  0.2081
   48CHL1   C18 5985   2.947   5.115   9.491  0.0408  0.9842  0.7640
   48CHL1  H18A 5986   2.986   5.082   9.590  5.1786  0.9505 -0.9905
   48CHL1  H18B 5987   2.857   5.054   9.468  0.7491 -0.0831  0.7505
   48CHL1  H18C 5988   3.026   5.086   9.418 -0.6455 -1.0994  0.8005
   48CHL1   C12 5989   3.033   5.332   9.572  0.7752  0.0536  0.0602
   48CHL1  H12A 5990   3.129   5.299   9.526 -0.5313 -2.1917 -1.1750
   48CHL1  H12B 5991   3.034   5.443   9.562  2.7747 -0.0453 -1.7225
   48CHL1   C11 5992   3.051   5.277   9.718 -0.0448  0.2268 -0.5719
   48CHL1  H11A 5993   3.097   5.176   9.706  0.4173  0.3719 -0.0490
   48CHL1  H11B 5994   3.125   5.333   9.779 -0.6437 -0.0966  0.4884
   48CHL1    C9 5995   2.922   5.269   9.807 -0.6608 -0.4713 -0.1212
   48CHL1    H9 5996   2.910   5.379   9.821 -0.8275 -0.7672  2.6220
   48CHL1   C10 5997   2.947   5.203   9.942  0.5505 -0.2637 -0.3996
   48CHL1   C19 5998   3.002   5.059   9.927 -0.4544  0.2331  0.3717
   48CHL1  H19A 5999   3.099   5.055   9.873 -0.1454  0.3421  0.9100
   48CHL1  H19B 6000   3.031   5.006  10.020  0.1932 -0.0475  0.0165
   48CHL1  H19C 6001   2.934   4.993   9.870  0.1707  0.6278 -0.8680
   48CHL1    C1 6002   3.040   5.288  10.028  0.0337 -0.0192 -0.7953
   48CHL1   H1A 6003   3.142   5.282   9.985  0.2427 -1.0102 -0.1941
   48CHL1   H1B 6004   3.002   5.392  10.031 -0.8178 -0.3056 -1.2065
   48CHL1    C2 6005   3.038   5.240  10.174  0.6694 -0.5377  0.4553
   48CHL1   H2A 6006   3.092   5.315  10.235 -0.9447  1.6660 -0.6840
   48CHL1   H2B 6007   3.099   5.148  10.186 -2.0918 -2.7466 -1.3399
   48CHL1   C20 6008   2.954   5.283   9.250  0.6677 -0.3295 -0.4832
   48CHL1   H20 6009   2.971   5.174   9.240  1.6568 -0.0457 -2.5135
   48CHL1   C21 6010   3.096   5.340   9.265  0.3052 -0.3663  0.2598
   48CHL1  H21A 6011   3.159   5.270   9.323  0.0403  0.3302  1.4212
   48CHL1  H21B 6012   3.091   5.434   9.323  2.1017  1.6631 -2.6041
   48CHL1  H21C 6013   3.153   5.362   9.172  2.8679  1.9022  2.1983
   48CHL1   C22 6014   2.892   5.303   9.110  0.4444 -0.1349  0.5432
   48CHL1  H22A 6015   2.976   5.278   9.042  1.5180  2.1992  0.8941
   48CHL1  H22B 6016   2.821   5.220   9.094 -0.6010  0.0261  3.6176
   48CHL1   C23 6017   2.832   5.444   9.068  0.2741 -0.0916  0.4808
   48CHL1  H23A 6018   2.740   5.447   9.131  1.1692  1.7589  1.7671
   48CHL1  H23B 6019   2.895   5.530   9.097  0.3911  1.4111 -3.5888
   48CHL1   C24 6020   2.783   5.465   8.922 -0.4325  0.4250  0.5517
   48CHL1  H24A 6021   2.706   5.546   8.919  0.0856  0.8982 -0.5299
   48CHL1  H24B 6022   2.875   5.482   8.862 -0.6842 -1.1582 -0.3558
   48CHL1   C25 6023   2.715   5.333   8.860  0.2130 -0.1850  0.2157
   48CHL1   H25 6024   2.779   5.245   8.878  1.8562  0.7569 -0.7311
   48CHL1   C26 6025   2.573   5.309   8.923 -0.3805  0.0576  0.3433
   48CHL1  H26A 6026   2.576   5.311   9.034  0.9372  2.8954  0.3455
   48CHL1  H26B 6027   2.497   5.387   8.900 -3.2947 -2.5655  0.3607
   48CHL1  H26C 6028   2.524   5.213   8.896  2.2696 -1.2182 -0.2158
   48CHL1   C27 6029   2.692   5.345   8.700 -0.1796  0.3471 -0.1123
   48CHL1  H27A 6030   2.763   5.416   8.652 -1.1810  1.8834  0.6007
   48CHL1  H27B 6031   2.705   5.248   8.646 -3.6965 -0.9159  1.0275
   48CHL1  H27C 6032   2.590   5.374   8.666 -0.1617 -0.1230 -0.5923
   49CHL1    C3 6033   1.428   1.202  10.052  0.1388  0.3189 -0.3448
   49CHL1    H3 6034   1.360   1.290  10.055  1.0861  1.0396  1.6130
   49CHL1    O3 6035   1.482   1.164  10.177  0.4314 -0.1710 -0.3420
   49CHL1   H3' 6036   1.556   1.106  10.159  1.4804  1.8328 -3.2092
   49CHL1    C4 6037   1.344   1.081  10.009  0.3190 -0.0467 -0.4141
   49CHL1   H4A 6038   1.416   0.998  10.029 -0.3739 -1.0820 -1.9753
   49CHL1   H4B 6039   1.260   1.059  10.079  0.4715  1.4768  0.2647
   49CHL1    C5 6040   1.288   1.084   9.868  0.0308 -0.1309  0.4553
   49CHL1    C6 6041   1.156   1.072   9.847  0.3091  0.2182  0.4766
   49CHL1    H6 6042   1.090   1.050   9.932 -1.4940  0.9539 -0.6688
   49CHL1    C7 6043   1.106   1.068   9.703  0.4509  0.4739 -0.1944
   49CHL1   H7A 6044   1.027   0.990   9.693  1.6037 -1.1893  2.4871
   49CHL1   H7B 6045   1.051   1.164   9.691  0.9574  0.4317 -3.8916
   49CHL1    C8 6046   1.212   1.046   9.595  0.0133  0.2122 -0.8608
   49CHL1    H8 6047   1.247   0.941   9.595  0.5934  0.3926 -0.0019
   49CHL1   C14 6048   1.161   1.080   9.456  0.2019  0.4096  0.0204
   49CHL1   H14 6049   1.141   1.189   9.463  1.8771  0.7629 -0.3589
   49CHL1   C15 6050   1.029   1.006   9.407 -0.3100  0.2853 -0.3229
   49CHL1  H15A 6051   1.052   0.902   9.438  0.5455  0.3676 -0.6629
   49CHL1  H15B 6052   0.939   1.055   9.450  0.3839  1.7784 -0.5088
   49CHL1   C16 6053   1.041   1.037   9.249 -0.8312  0.3201 -0.6406
   49CHL1  H16A 6054   1.057   0.936   9.205 -0.8688 -0.5096  1.1161
   49CHL1  H16B 6055   0.949   1.089   9.214 -1.8562  0.0610  1.4411
   49CHL1   C17 6056   1.179   1.106   9.212 -0.1704 -0.4114 -0.9466
   49CHL1   H17 6057   1.148   1.212   9.212  1.5026  0.1078 -0.7137
   49CHL1   C13 6058   1.264   1.067   9.332 -0.1186 -0.4385 -0.3532
   49CHL1   C18 6059   1.314   0.923   9.318 -0.1769 -0.0935 -0.1181
   49CHL1  H18A 6060   1.387   0.915   9.235  1.0737  3.1568  0.5520
   49CHL1  H18B 6061   1.363   0.879   9.408  0.2566  0.4843 -0.0685
   49CHL1  H18C 6062   1.233   0.856   9.282  0.1514 -0.6167  0.1032
   49CHL1   C12 6063   1.384   1.160   9.374  1.1542 -0.2731  0.4144
   49CHL1  H12A 6064   1.465   1.148   9.300  2.7651 -1.6973  2.2913
   49CHL1  H12B 6065   1.346   1.264   9.363 -0.2695 -0.5252  2.4423
   49CHL1   C11 6066   1.441   1.131   9.511  0.2745  0.0954  0.2567
   49CHL1  H11A 6067   1.488   1.031   9.511 -2.5582 -1.3880  2.2309
   49CHL1  H11B 6068   1.517   1.210   9.534 -1.2775  1.8388 -0.3336
   49CHL1    C9 6069   1.332   1.136   9.623 -0.1059  0.4564 -0.1893
   49CHL1    H9 6070   1.293   1.239   9.607 -0.9429 -0.3106 -4.1315
   49CHL1   C10 6071   1.396   1.122   9.763 -0.2417 -0.1850  0.0108
   49CHL1   C19 6072   1.486   0.990   9.759  0.0396  0.0225 -0.3429
   49CHL1  H19A 6073   1.489   0.938   9.857 -0.7021  0.6553  0.0260
   49CHL1  H19B 6074   1.446   0.917   9.685  0.0392 -0.3190 -0.0140
   49CHL1  H19C 6075   1.590   1.021   9.737  0.6933 -1.2701  0.7227
   49CHL1    C1 6076   1.487   1.247   9.806  0.6119 -0.0751  0.0858
   49CHL1   H1A 6077   1.571   1.263   9.736 -0.2305 -0.9627 -1.1707
   49CHL1   H1B 6078   1.420   1.336   9.809  0.5675 -0.1146  0.3050
   49CHL1    C2 6079   1.543   1.222   9.949  0.4207  0.6566  0.5455
   49CHL1   H2A 6080   1.610   1.303   9.985  0.3793  1.4680 -1.0816
   49CHL1   H2B 6081   1.600   1.128   9.966 -0.5426  0.3290  2.0833
   49CHL1   C20 6082   1.221   1.071   9.076 -0.4760 -0.1615  0.1365
   49CHL1   H20 6083   1.254   0.965   9.082 -1.2905 -0.5387 -1.5248
   49CHL1   C21 6084   1.341   1.166   9.030 -0.7050  0.4153 -0.8299
   49CHL1  H21A 6085   1.307   1.262   8.984 -0.4643 -0.3747 -2.7436
   49CHL1  H21B 6086   1.396   1.101   8.958 -1.0731 -1.5721  0.6168
   49CHL1  H21C 6087   1.403   1.178   9.121 -1.7766  0.7646 -0.1281
   49CHL1   C22 6088   1.106   1.079   8.975  0.3347  0.0715  0.2388
   49CHL1  H22A 6089   1.025   1.007   9.000 -1.3639  1.5098 -0.9229
   49CHL1  H22B 6090   1.060   1.179   8.965 -2.5523 -1.4256 -3.6498
   49CHL1   C23 6091   1.145   1.033   8.836  0.2097 -0.1063  0.5236
   49CHL1  H23A 6092   1.052   1.039   8.775  1.1756 -1.5536 -1.2228
   49CHL1  H23B 6093   1.214   1.113   8.800  0.1103  0.3301  1.2780
   49CHL1   C24 6094   1.212   0.895   8.821  0.3649  0.1807 -0.0471
   49CHL1  H24A 6095   1.312   0.897   8.870 -0.1051 -0.1358  0.9462
   49CHL1  H24B 6096   1.149   0.829   8.885  0.1366 -0.9663 -1.4164
   49CHL1   C25 6097   1.211   0.836   8.680  0.0647 -0.5680 -0.1016
   49CHL1   H25 6098   1.101   0.832   8.670 -0.4742  2.2363  2.9702
   49CHL1   C26 6099   1.277   0.924   8.572  0.1089 -0.2733 -0.0504
   49CHL1  H26A 6100   1.291   0.853   8.488  1.2340 -1.0811  0.7917
   49CHL1  H26B 6101   1.205   1.004   8.544  0.7828  0.3360 -0.0666
   49CHL1  H26C 6102   1.377   0.956   8.610 -0.8283  1.1416  1.3445
   49CHL1   C27 6103   1.276   0.691   8.676  0.4805 -1.1775 -0.5948
   49CHL1  H27A 6104   1.384   0.705   8.698  0.6248 -1.6247 -1.0190
   49CHL1  H27B 6105   1.226   0.642   8.762 -0.1661  0.4609  0.0070
   49CHL1  H27C 6106   1.253   0.633   8.584  1.2470 -2.1218 -0.1972
   50CHL1    C3 6107   4.200   3.437  10.134 -0.0807  0.4069 -0.7800
   50CHL1    H3 6108   4.127   3.520  10.135  0.6848  1.0873 -0.3842
   50CHL1    O3 6109   4.255   3.415  10.265  0.1335 -0.1490  1.2450
   50CHL1   H3' 6110   4.350   3.426  10.255 -0.1988  1.6444 -0.4379
   50CHL1    C4 6111   4.113   3.315  10.106  0.6051  0.7188  0.8825
   50CHL1   H4A 6112   4.180   3.230  10.131 -0.0116 -0.5756 -1.4849
   50CHL1   H4B 6113   4.030   3.315  10.180 -1.7656  0.1914 -1.5904
   50CHL1    C5 6114   4.055   3.306   9.960  0.4816 -0.3253 -0.7017
   50CHL1    C6 6115   3.923   3.296   9.933 -0.7664  0.1497  0.3065
   50CHL1    H6 6116   3.847   3.289  10.012 -1.0653  0.5132  0.0578
   50CHL1    C7 6117   3.866   3.280   9.791 -0.0420  0.6364  0.6144
   50CHL1   H7A 6118   3.791   3.200   9.778  1.6803 -0.7100 -1.6762
   50CHL1   H7B 6119   3.804   3.368   9.763  0.2443 -0.1225 -2.7629
   50CHL1    C8 6120   3.983   3.258   9.687  0.2719 -0.2895  0.3064
   50CHL1    H8 6121   4.004   3.148   9.690  5.3742  0.4355  0.8339
   50CHL1   C14 6122   3.930   3.306   9.548  0.6029  0.2069 -0.0407
   50CHL1   H14 6123   3.907   3.415   9.547  0.4050  0.1883  1.1972
   50CHL1   C15 6124   3.799   3.226   9.511 -0.1027  0.1120  0.5622
   50CHL1  H15A 6125   3.810   3.119   9.536  1.2110  0.1349  0.1163
   50CHL1  H15B 6126   3.706   3.272   9.553  0.9783  0.1644  3.0431
   50CHL1   C16 6127   3.806   3.250   9.359 -0.0394  0.0173 -0.3576
   50CHL1  H16A 6128   3.792   3.151   9.312  1.1678 -2.1260  3.4358
   50CHL1  H16B 6129   3.720   3.317   9.334  0.0966  0.9426  1.4461
   50CHL1   C17 6130   3.941   3.318   9.315  0.5011  0.3213 -0.5498
   50CHL1   H17 6131   3.924   3.427   9.314  1.1092  0.4207 -0.3792
   50CHL1   C13 6132   4.028   3.280   9.437 -0.4553  0.6008 -0.3427
   50CHL1   C18 6133   4.068   3.126   9.426  0.5987  0.1342 -0.2339
   50CHL1  H18A 6134   4.097   3.077   9.522  0.5242 -0.3876 -0.4758
   50CHL1  H18B 6135   3.981   3.069   9.386  0.9723  0.8259 -2.1277
   50CHL1  H18C 6136   4.156   3.120   9.359  2.2165  1.3782  1.6628
   50CHL1   C12 6137   4.152   3.369   9.472  0.7908  0.1313 -0.0406
   50CHL1  H12A 6138   4.225   3.363   9.389 -2.2417  1.7074 -3.0781
   50CHL1  H12B 6139   4.112   3.473   9.473 -2.0806 -0.8942  0.0877
   50CHL1   C11 6140   4.210   3.327   9.606 -0.1976  1.1342  0.9613
   50CHL1  H11A 6141   4.250   3.225   9.586 -1.2555  1.0630 -1.2126
   50CHL1  H11B 6142   4.293   3.395   9.635  0.2734  0.6249  0.8160
   50CHL1    C9 6143   4.107   3.333   9.722 -0.0486  0.2040  0.5091
   50CHL1    H9 6144   4.080   3.441   9.711 -1.8165 -0.4618 -2.7594
   50CHL1   C10 6145   4.166   3.315   9.860  0.3104  0.0696  0.1870
   50CHL1   C19 6146   4.247   3.181   9.857 -0.1457 -0.0945  0.0158
   50CHL1  H19A 6147   4.339   3.194   9.796  0.2126 -0.8224  0.3945
   50CHL1  H19B 6148   4.287   3.154   9.957 -1.4367  1.8781  1.1359
   50CHL1  H19C 6149   4.180   3.105   9.812  1.0772 -0.9026 -0.4725
   50CHL1    C1 6150   4.255   3.437   9.883 -0.4432 -0.7741 -0.9266
   50CHL1   H1A 6151   4.346   3.440   9.819 -0.1396  2.2667 -0.5100
   50CHL1   H1B 6152   4.207   3.535   9.863  0.3286 -0.0882  0.4227
   50CHL1    C2 6153   4.314   3.453  10.030  0.7298  0.4747  0.1122
   50CHL1   H2A 6154   4.361   3.552  10.047 -0.4678  1.7039 -3.0159
   50CHL1   H2B 6155   4.386   3.370  10.047 -1.2734 -1.6652 -1.3259
   50CHL1   C20 6156   3.983   3.295   9.174 -0.4846  0.2826 -0.1725
   50CHL1   H20 6157   4.038   3.199   9.166  3.1662  2.3061 -1.4784
   50CHL1   C21 6158   4.074   3.419   9.141 -0.2611  0.5723  0.5940
   50CHL1  H21A 6159   4.158   3.429   9.213  0.3106 -0.4302  0.0926
   50CHL1  H21B 6160   4.003   3.504   9.130 -0.4717  0.2573 -0.6930
   50CHL1  H21C 6161   4.134   3.403   9.049  0.5318 -0.9374  1.3296
   50CHL1   C22 6162   3.865   3.279   9.073  0.1750 -0.2278 -0.5229
   50CHL1  H22A 6163   3.791   3.201   9.100  0.5641 -1.4450 -2.7102
   50CHL1  H22B 6164   3.814   3.378   9.065  0.9504  0.5571  2.7388
   50CHL1   C23 6165   3.905   3.258   8.928  0.2845 -0.5889 -0.0451
   50CHL1  H23A 6166   3.948   3.353   8.890 -0.9643 -0.2129 -0.5783
   50CHL1  H23B 6167   3.985   3.181   8.930  3.3910  2.3535 -0.6258
   50CHL1   C24 6168   3.797   3.217   8.826  0.2170  0.5036 -0.2536
   50CHL1  H24A 6169   3.698   3.247   8.866  0.7260  2.7423 -0.5486
   50CHL1  H24B 6170   3.817   3.273   8.732 -0.3142 -1.1630 -1.3879
   50CHL1   C25 6171   3.805   3.064   8.782  0.3082  0.6837  0.0874
   50CHL1   H25 6172   3.908   3.050   8.745  0.1413 -1.8305  0.4539
   50CHL1   C26 6173   3.756   2.975   8.894 -0.3318  0.3428 -0.0832
   50CHL1  H26A 6174   3.650   2.992   8.923 -0.4541 -0.6782  0.0820
   50CHL1  H26B 6175   3.749   2.870   8.859 -4.8552  0.0563  0.9730
   50CHL1  H26C 6176   3.818   2.987   8.985  0.0666 -1.4521 -0.0984
   50CHL1   C27 6177   3.713   3.042   8.658 -0.3045 -0.1582 -0.1932
   50CHL1  H27A 6178   3.606   3.029   8.686 -0.1953 -1.1580 -0.1748
   50CHL1  H27B 6179   3.717   3.126   8.586 -1.9705 -1.2967 -1.6960
   50CHL1  H27C 6180   3.748   2.946   8.612  0.5901  0.0230  0.0882
   51CHL1    C3 6181   0.247   5.565  10.174  0.3109 -0.1206 -0.7655
   51CHL1    H3 6182   0.157   5.630  10.173 -2.5010 -3.6811 -0.8543
   51CHL1    O3 6183   0.266   5.508  10.301  0.2454  0.1979  0.5121
   51CHL1   H3' 6184   0.355   5.473  10.298 -1.4904 -4.9182 -0.3057
   51CHL1    C4 6185   0.236   5.460  10.054 -0.6454  0.2468  0.4565
   51CHL1   H4A 6186   0.331   5.403  10.065 -0.0916  1.1470  0.4000
   51CHL1   H4B 6187   0.156   5.388  10.083 -2.1579  1.5725 -0.3159
   51CHL1    C5 6188   0.236   5.530   9.923 -0.2179  0.2133 -0.3141
   51CHL1    C6 6189   0.137   5.503   9.834 -0.3903 -0.0119  0.4556
   51CHL1    H6 6190   0.061   5.436   9.876  1.3597 -2.5560 -0.1991
   51CHL1    C7 6191   0.133   5.550   9.690 -0.4871 -0.1531 -0.1075
   51CHL1   H7A 6192   0.113   5.465   9.621  0.4695 -1.3083  0.9606
   51CHL1   H7B 6193   0.047   5.619   9.683 -1.9356 -1.7891  0.6615
   51CHL1    C8 6194   0.269   5.620   9.643 -0.6565  0.0960 -0.2006
   51CHL1    H8 6195   0.352   5.551   9.618  0.5077  1.7627 -1.1499
   51CHL1   C14 6196   0.246   5.704   9.521  0.4695  0.8362  0.1544
   51CHL1   H14 6197   0.158   5.767   9.546 -0.9227 -0.8542 -0.2405
   51CHL1   C15 6198   0.193   5.635   9.390  0.0250 -0.2115 -0.6238
   51CHL1  H15A 6199   0.251   5.541   9.375  0.6959  0.2439 -0.9239
   51CHL1  H15B 6200   0.084   5.614   9.396  0.1148 -0.3434  1.5864
   51CHL1   C16 6201   0.230   5.737   9.289 -0.3698  0.1549 -0.1384
   51CHL1  H16A 6202   0.300   5.695   9.214  0.3943 -1.2684  1.3042
   51CHL1  H16B 6203   0.133   5.763   9.240  0.0928  1.7379 -0.2467
   51CHL1   C17 6204   0.303   5.858   9.353 -0.1339  0.1689 -0.1017
   51CHL1   H17 6205   0.218   5.922   9.385 -0.7357 -0.4582 -0.4315
   51CHL1   C13 6206   0.361   5.795   9.481 -0.4835 -0.3940  0.2508
   51CHL1   C18 6207   0.487   5.710   9.439  0.5863 -0.2739  0.2526
   51CHL1  H18A 6208   0.469   5.669   9.337  0.6552  0.5601 -0.1074
   51CHL1  H18B 6209   0.580   5.771   9.430 -0.4184  1.4769  1.2303
   51CHL1  H18C 6210   0.497   5.632   9.517 -0.7601  0.9531  1.7260
   51CHL1   C12 6211   0.394   5.885   9.598  0.5765 -1.3319  0.5724
   51CHL1  H12A 6212   0.485   5.945   9.575 -0.4683  0.7250  1.5603
   51CHL1  H12B 6213   0.311   5.953   9.629  0.3829 -0.5562 -1.4745
   51CHL1   C11 6214   0.436   5.809   9.723  0.7848 -0.1623  0.0963
   51CHL1  H11A 6215   0.528   5.749   9.704  1.0505  1.0190 -2.8821
   51CHL1  H11B 6216   0.460   5.884   9.801  0.7794  0.4613 -0.4883
   51CHL1    C9 6217   0.319   5.712   9.763 -0.2763 -0.0085 -0.5634
   51CHL1    H9 6218   0.231   5.779   9.780  0.3385  0.5600  0.4462
   51CHL1   C10 6219   0.347   5.631   9.900 -0.2255  0.4050  0.2351
   51CHL1   C19 6220   0.478   5.551   9.883  0.9302  0.3308  0.1914
   51CHL1  H19A 6221   0.559   5.625   9.900 -0.7578  2.4131 -0.4316
   51CHL1  H19B 6222   0.492   5.472   9.960  0.5461  1.3656  1.3427
   51CHL1  H19C 6223   0.488   5.500   9.784 -3.2532  0.1918 -0.3595
   51CHL1    C1 6224   0.358   5.724  10.026 -0.0883 -0.6343 -0.0566
   51CHL1   H1A 6225   0.443   5.793  10.009 -0.1669 -0.9012 -1.7311
   51CHL1   H1B 6226   0.273   5.796  10.031  0.8050  1.0352 -4.3324
   51CHL1    C2 6227   0.375   5.646  10.151  0.0346  0.2309  0.5644
   51CHL1   H2A 6228   0.395   5.708  10.240  1.6044  0.0269  0.3787
   51CHL1   H2B 6229   0.469   5.589  10.165  1.9394  3.3971  1.7320
   51CHL1   C20 6230   0.392   5.943   9.254 -0.3385 -0.0369  0.5221
   51CHL1   H20 6231   0.488   5.891   9.238  1.1691  2.4387  1.0474
   51CHL1   C21 6232   0.430   6.071   9.326 -0.0795 -0.7860  0.8475
   51CHL1  H21A 6233   0.498   6.050   9.412  0.5689  1.0691  0.8311
   51CHL1  H21B 6234   0.347   6.133   9.366 -0.8631 -0.1242 -1.6591
   51CHL1  H21C 6235   0.493   6.132   9.259  0.5613 -0.3752  1.7927
   51CHL1   C22 6236   0.324   5.963   9.119 -0.5310 -0.3378 -0.7326
   51CHL1  H22A 6237   0.294   5.862   9.082  0.5266 -0.0961 -2.3966
   51CHL1  H22B 6238   0.235   6.026   9.138  0.9365  1.4361  0.5179
   51CHL1   C23 6239   0.409   6.028   9.012  0.9265 -0.3226  0.4141
   51CHL1  H23A 6240   0.446   6.129   9.039  1.1521  0.1972 -1.6392
   51CHL1  H23B 6241   0.506   5.976   8.995  2.2260  1.8694  0.7988
   51CHL1   C24 6242   0.325   6.048   8.881 -0.4067 -0.2398  0.4780
   51CHL1  H24A 6243   0.291   5.949   8.844 -0.1292 -1.2085  2.6728
   51CHL1  H24B 6244   0.231   6.102   8.905  0.4798  1.9421 -0.6355
   51CHL1   C25 6245   0.404   6.124   8.772  0.3802  0.7207  0.0589
   51CHL1   H25 6246   0.434   6.221   8.817  1.6252  0.6453 -0.5868
   51CHL1   C26 6247   0.525   6.049   8.727 -0.3193  0.1981  0.0099
   51CHL1  H26A 6248   0.589   6.093   8.647  2.2472 -0.6185  1.4750
   51CHL1  H26B 6249   0.604   6.046   8.805  0.5435  2.2565 -0.7270
   51CHL1  H26C 6250   0.493   5.949   8.689  0.6715  0.0591 -0.5074
   51CHL1   C27 6251   0.310   6.148   8.648 -0.5486  0.3303 -0.5445
   51CHL1  H27A 6252   0.274   6.046   8.622 -1.4469  0.5588 -0.2266
   51CHL1  H27B 6253   0.217   6.203   8.674 -1.4050 -1.6329  0.8182
   51CHL1  H27C 6254   0.368   6.188   8.562  0.1353 -0.6056 -0.5359
   52CHL1    C3 6255   2.102   3.552   9.937  0.1148 -0.0841 -0.4772
   52CHL1    H3 6256   2.111   3.663   9.939 -1.0201  0.0165  1.0990
   52CHL1    O3 6257   2.102   3.516  10.074  0.2213  0.3483  0.4361
   52CHL1   H3' 6258   2.116   3.421  10.072  0.6480  0.4024 -1.2066
   52CHL1    C4 6259   1.979   3.504   9.859 -0.0301 -0.2011 -0.2441
   52CHL1   H4A 6260   1.959   3.397   9.884  0.2032 -0.3421 -0.6386
   52CHL1   H4B 6261   1.897   3.558   9.910  2.3260  0.6033  3.0047
   52CHL1    C5 6262   1.984   3.529   9.710  0.8732  0.3170 -0.4311
   52CHL1    C6 6263   1.897   3.614   9.651  0.6646 -0.5593 -0.8568
   52CHL1    H6 6264   1.816   3.660   9.709 -1.0690 -1.4193 -2.4697
   52CHL1    C7 6265   1.896   3.649   9.506 -0.4388 -0.4279  0.4488
   52CHL1   H7A 6266   1.796   3.631   9.461  0.2380 -2.0749 -0.4551
   52CHL1   H7B 6267   1.940   3.750   9.488  1.7135 -1.4692 -0.4618
   52CHL1    C8 6268   1.983   3.550   9.431  0.1298  0.5614  0.1144
   52CHL1    H8 6269   1.930   3.454   9.411  0.9368  0.4981 -2.0459
   52CHL1   C14 6270   2.006   3.603   9.286 -0.4366  0.2406 -0.3148
   52CHL1   H14 6271   2.062   3.698   9.306  2.1603 -1.4497  1.0180
   52CHL1   C15 6272   1.897   3.656   9.187 -0.0268 -0.0657 -0.2438
   52CHL1  H15A 6273   1.820   3.576   9.201  1.1989 -1.0276  1.4087
   52CHL1  H15B 6274   1.865   3.758   9.215 -0.1019  0.8906 -3.4091
   52CHL1   C16 6275   1.963   3.655   9.050  0.6116 -0.0833 -0.2127
   52CHL1  H16A 6276   1.907   3.582   8.987 -0.1310  1.3657 -1.2825
   52CHL1  H16B 6277   1.965   3.754   9.002  0.4381  0.6387  1.2040
   52CHL1   C17 6278   2.104   3.594   9.069 -0.8647 -0.1010  0.2437
   52CHL1   H17 6279   2.174   3.679   9.087 -1.5434  0.9971 -1.9538
   52CHL1   C13 6280   2.099   3.516   9.200  0.3639  0.0789 -0.1307
   52CHL1   C18 6281   2.025   3.382   9.170 -0.0424 -0.2871 -0.2070
   52CHL1  H18A 6282   1.934   3.402   9.110 -0.0574  1.8188  0.4211
   52CHL1  H18B 6283   2.087   3.309   9.114  0.7980 -1.3485  1.9647
   52CHL1  H18C 6284   2.004   3.338   9.270  1.4280 -1.4316 -0.3647
   52CHL1   C12 6285   2.237   3.490   9.269  0.8398 -0.3909  0.2483
   52CHL1  H12A 6286   2.300   3.419   9.211  0.1266  0.6509 -1.9183
   52CHL1  H12B 6287   2.299   3.580   9.288  1.4371 -1.4057  3.8207
   52CHL1   C11 6288   2.210   3.430   9.410 -0.6762 -0.5413 -0.3860
   52CHL1  H11A 6289   2.183   3.322   9.407 -3.4244  0.0910 -1.1712
   52CHL1  H11B 6290   2.313   3.430   9.453 -0.4872 -0.2181 -0.8319
   52CHL1    C9 6291   2.120   3.523   9.491  0.7342 -0.0820  0.1729
   52CHL1    H9 6292   2.168   3.623   9.502  1.3141 -0.2455 -0.8067
   52CHL1   C10 6293   2.104   3.473   9.641 -0.6659 -0.0148 -1.4090
   52CHL1   C19 6294   2.093   3.317   9.639  0.2401 -0.1048 -0.3824
   52CHL1  H19A 6295   2.032   3.286   9.552  1.3174 -2.0670 -0.4954
   52CHL1  H19B 6296   2.195   3.275   9.628  0.5670  1.2656 -4.0677
   52CHL1  H19C 6297   2.046   3.277   9.732  4.4935 -1.2629  1.5250
   52CHL1    C1 6298   2.231   3.520   9.724 -0.1413 -0.0965  0.1090
   52CHL1   H1A 6299   2.319   3.463   9.686 -0.2599 -0.2062 -0.0041
   52CHL1   H1B 6300   2.243   3.628   9.704 -3.2717  0.1584 -0.9087
   52CHL1    C2 6301   2.227   3.493   9.875 -0.7212  0.2326  0.5328
   52CHL1   H2A 6302   2.318   3.525   9.929 -0.6528  0.0411  0.5304
   52CHL1   H2B 6303   2.224   3.383   9.883  1.6017 -0.3456 -3.7659
   52CHL1   C20 6304   2.177   3.523   8.947  0.2551 -0.3087 -0.7580
   52CHL1   H20 6305   2.150   3.415   8.947  0.4590 -0.3614 -1.3157
   52CHL1   C21 6306   2.333   3.536   8.953  0.1584 -0.2554 -0.6036
   52CHL1  H21A 6307   2.357   3.644   8.942  0.0846 -0.1016  0.5982
   52CHL1  H21B 6308   2.389   3.475   8.879  0.7554  1.1367 -1.3475
   52CHL1  H21C 6309   2.360   3.501   9.055 -1.4265 -0.4115 -0.2072
   52CHL1   C22 6310   2.129   3.568   8.810  0.2872 -0.6298 -0.1900
   52CHL1  H22A 6311   2.021   3.554   8.790  0.4143 -0.4335 -1.0201
   52CHL1  H22B 6312   2.147   3.677   8.808  0.9121 -0.7345 -0.5210
   52CHL1   C23 6313   2.200   3.505   8.682  0.4683 -0.1864  0.0020
   52CHL1  H23A 6314   2.267   3.425   8.721  0.0827  0.8414  2.9472
   52CHL1  H23B 6315   2.131   3.449   8.615  0.2964 -0.5554  0.4830
   52CHL1   C24 6316   2.289   3.607   8.598 -0.8235  0.5553  0.1617
   52CHL1  H24A 6317   2.239   3.705   8.612 -2.8693 -0.4695  0.3200
   52CHL1  H24B 6318   2.388   3.596   8.647 -0.4792  0.4318 -0.5462
   52CHL1   C25 6319   2.293   3.583   8.444 -0.6182  0.3352  0.0670
   52CHL1   H25 6320   2.188   3.579   8.407 -0.9773 -0.8853  1.1130
   52CHL1   C26 6321   2.370   3.700   8.381 -1.0300  0.2238 -0.0746
   52CHL1  H26A 6322   2.474   3.687   8.417 -1.2291  0.6977  0.7098
   52CHL1  H26B 6323   2.368   3.679   8.272 -0.2430  0.0180 -0.0504
   52CHL1  H26C 6324   2.323   3.793   8.421 -2.3168 -0.8258  0.9881
   52CHL1   C27 6325   2.353   3.453   8.401  0.4273 -0.4314 -0.1187
   52CHL1  H27A 6326   2.349   3.432   8.291  0.4889  0.7571 -0.3623
   52CHL1  H27B 6327   2.460   3.460   8.430  0.3125 -2.5132  0.9876
   52CHL1  H27C 6328   2.302   3.370   8.454 -1.6200  0.3117 -0.8428
   53CHL1    C3 6329   2.558   3.146  10.063  0.4921 -0.3033  0.8618
   53CHL1    H3 6330   2.661   3.188  10.071  0.4078 -0.3118  2.2360
   53CHL1    O3 6331   2.513   3.135  10.191  0.6008 -0.4286  0.4486
   53CHL1   H3' 6332   2.532   3.216  10.239  1.3826 -0.4978  0.2698
   53CHL1    C4 6333   2.476   3.247   9.994  0.0451 -0.5560  0.0483
   53CHL1   H4A 6334   2.367   3.225   9.997 -0.4655  0.7120 -3.9449
   53CHL1   H4B 6335   2.481   3.348  10.040 -3.9793 -0.1881  0.0642
   53CHL1    C5 6336   2.530   3.254   9.854  0.8798  0.1986  0.2557
   53CHL1    C6 6337   2.564   3.375   9.795  0.8128  0.6184  0.2721
   53CHL1    H6 6338   2.579   3.464   9.857  1.3183  0.1242  0.8670
   53CHL1    C7 6339   2.589   3.389   9.649  0.6659  0.0150 -0.0791
   53CHL1   H7A 6340   2.528   3.472   9.609  0.4484 -0.4458 -0.7137
   53CHL1   H7B 6341   2.695   3.422   9.640  1.4270 -2.1591  0.2377
   53CHL1    C8 6342   2.555   3.264   9.567  0.8061 -0.3968 -0.0715
   53CHL1    H8 6343   2.445   3.267   9.553  0.8369  1.3275 -0.0957
   53CHL1   C14 6344   2.618   3.274   9.430 -0.2031 -0.4698  0.3061
   53CHL1   H14 6345   2.726   3.271   9.452 -0.4418 -0.6834  1.5012
   53CHL1   C15 6346   2.603   3.403   9.347  0.3030 -0.0649 -0.2071
   53CHL1  H15A 6347   2.507   3.452   9.374  0.4682 -0.3705  0.9875
   53CHL1  H15B 6348   2.684   3.466   9.390  1.5813 -2.4228  1.0571
   53CHL1   C16 6349   2.624   3.349   9.206 -0.0248 -0.0602  0.9741
   53CHL1  H16A 6350   2.531   3.361   9.146  0.8226 -0.5023 -0.4602
   53CHL1  H16B 6351   2.707   3.399   9.151 -0.5472 -0.2368  0.0033
   53CHL1   C17 6352   2.651   3.195   9.212 -0.2859 -0.4277 -0.0551
   53CHL1   H17 6353   2.759   3.180   9.232  0.5484  3.3092 -1.0098
   53CHL1   C13 6354   2.583   3.150   9.341 -0.4956 -0.1249 -0.7004
   53CHL1   C18 6355   2.430   3.137   9.318 -0.3809 -0.2026 -0.4188
   53CHL1  H18A 6356   2.391   3.213   9.246  1.8901  0.1877 -1.3027
   53CHL1  H18B 6357   2.419   3.042   9.261  1.8764  0.1733 -1.5968
   53CHL1  H18C 6358   2.362   3.153   9.405  0.6966  4.7781 -0.1712
   53CHL1   C12 6359   2.644   3.028   9.400 -0.1840  0.4392  0.7742
   53CHL1  H12A 6360   2.632   2.935   9.342 -2.2900  0.9874  0.2420
   53CHL1  H12B 6361   2.754   3.041   9.403 -0.0968  2.1979 -3.3848
   53CHL1   C11 6362   2.596   3.003   9.543 -0.4789 -0.1411 -0.2204
   53CHL1  H11A 6363   2.500   2.947   9.541 -0.2727 -0.6914  2.3933
   53CHL1  H11B 6364   2.672   2.940   9.593  1.5647  1.1344 -1.5443
   53CHL1    C9 6365   2.596   3.137   9.639  0.0581 -0.1178  0.5785
   53CHL1    H9 6366   2.704   3.154   9.659  0.8416  0.0428 -3.1100
   53CHL1   C10 6367   2.533   3.121   9.780  0.0584 -0.5229  0.0992
   53CHL1   C19 6368   2.387   3.074   9.752 -0.0609 -0.0968 -0.7901
   53CHL1  H19A 6369   2.340   3.125   9.666  0.8567  0.1265 -1.1697
   53CHL1  H19B 6370   2.387   2.975   9.701 -1.2628  0.8544 -2.7002
   53CHL1  H19C 6371   2.327   3.075   9.846  0.0876  0.6978 -0.6963
   53CHL1    C1 6372   2.610   3.011   9.852 -0.0730 -0.1539 -0.1355
   53CHL1   H1A 6373   2.590   2.918   9.796  3.0699  0.6775 -2.9538
   53CHL1   H1B 6374   2.720   3.027   9.848  0.2779 -2.4809 -0.7844
   53CHL1    C2 6375   2.565   3.005   9.997  0.0936  0.6638 -0.3057
   53CHL1   H2A 6376   2.638   2.949  10.060 -0.7143  2.3947  2.3312
   53CHL1   H2B 6377   2.465   2.962  10.017 -0.1463  1.8951  1.3719
   53CHL1   C20 6378   2.625   3.111   9.089 -0.8962 -0.3095  0.2371
   53CHL1   H20 6379   2.599   3.008   9.122 -0.7617 -0.7632 -0.9843
   53CHL1   C21 6380   2.765   3.098   9.013 -0.0827 -0.0356  0.6876
   53CHL1  H21A 6381   2.757   3.027   8.928 -1.3313 -0.1834  0.9078
   53CHL1  H21B 6382   2.849   3.080   9.084 -1.7122  0.4648  2.8634
   53CHL1  H21C 6383   2.792   3.199   8.976  0.9843 -0.1947  1.0014
   53CHL1   C22 6384   2.514   3.172   8.991  0.1620 -0.3928 -0.2427
   53CHL1  H22A 6385   2.419   3.188   9.046  1.3209 -0.4724  1.8600
   53CHL1  H22B 6386   2.538   3.273   8.951  0.1506 -1.2039 -2.4517
   53CHL1   C23 6387   2.478   3.084   8.864 -0.8366 -0.7891  0.3325
   53CHL1  H23A 6388   2.564   3.043   8.807 -1.6022  0.2979 -1.7104
   53CHL1  H23B 6389   2.437   2.986   8.897  0.9226 -2.1250 -1.2907
   53CHL1   C24 6390   2.392   3.155   8.758 -0.1082 -0.8174 -0.0758
   53CHL1  H24A 6391   2.309   3.200   8.816  2.2134  2.4053  1.0444
   53CHL1  H24B 6392   2.444   3.248   8.725 -0.5631 -1.0061 -1.3719
   53CHL1   C25 6393   2.358   3.059   8.639  0.0032 -0.0329 -0.7033
   53CHL1   H25 6394   2.353   2.957   8.684  0.9253  0.9247  1.7660
   53CHL1   C26 6395   2.222   3.090   8.580 -0.1793  0.1518 -0.0983
   53CHL1  H26A 6396   2.134   3.051   8.637 -0.8883 -0.0150 -1.2817
   53CHL1  H26B 6397   2.214   3.198   8.557 -1.6678  0.0476 -0.1818
   53CHL1  H26C 6398   2.212   3.044   8.480  3.2660 -1.9548  0.3472
   53CHL1   C27 6399   2.468   3.073   8.533  0.3496  0.0903 -0.3725
   53CHL1  H27A 6400   2.570   3.055   8.572  0.2884  1.0598  0.2670
   53CHL1  H27B 6401   2.463   3.007   8.444  1.2815 -0.5647  0.0453
   53CHL1  H27C 6402   2.466   3.176   8.489  0.1530  0.7298  1.0849
   54CHL1    C3 6403   2.214   5.360  10.116 -0.0559 -0.4228  0.1747
   54CHL1    H3 6404   2.110   5.330  10.089 -0.9525  3.1061 -0.7959
   54CHL1    O3 6405   2.238   5.322  10.250  0.0716  0.4404 -0.5730
   54CHL1   H3' 6406   2.149   5.321  10.285  0.6251 -1.0106  0.9301
   54CHL1    C4 6407   2.319   5.290  10.031 -0.1111 -0.6010  0.4315
   54CHL1   H4A 6408   2.420   5.326  10.060 -0.5694  0.9749  0.1853
   54CHL1   H4B 6409   2.311   5.181  10.051 -0.3179 -0.6842 -0.0689
   54CHL1    C5 6410   2.292   5.318   9.885 -0.1404 -0.6955  0.3906
   54CHL1    C6 6411   2.269   5.217   9.799  0.0926  0.5465 -0.8640
   54CHL1    H6 6412   2.272   5.115   9.840  2.0897  1.3350  1.1370
   54CHL1    C7 6413   2.253   5.239   9.651 -0.6143 -0.1199 -0.2583
   54CHL1   H7A 6414   2.320   5.182   9.583 -0.3714  0.1449 -0.2475
   54CHL1   H7B 6415   2.148   5.210   9.632 -0.4617 -0.3336 -0.7835
   54CHL1    C8 6416   2.283   5.385   9.604  0.1141  0.4060  0.4087
   54CHL1    H8 6417   2.394   5.394   9.602  0.0603  1.0094 -0.0159
   54CHL1   C14 6418   2.232   5.407   9.462 -0.2113  0.3238 -0.0418
   54CHL1   H14 6419   2.123   5.417   9.477 -0.1511  0.2170  0.5046
   54CHL1   C15 6420   2.257   5.303   9.356 -0.0125  0.6841 -0.8609
   54CHL1  H15A 6421   2.365   5.282   9.363 -0.0485  0.6804 -0.2481
   54CHL1  H15B 6422   2.193   5.213   9.367  1.6792 -0.3128  1.5592
   54CHL1   C16 6423   2.226   5.372   9.229 -0.0559  0.2507  0.1840
   54CHL1  H16A 6424   2.305   5.348   9.155 -0.4975 -1.9764  0.3502
   54CHL1  H16B 6425   2.131   5.336   9.184  1.0409 -3.3361  0.3995
   54CHL1   C17 6426   2.218   5.527   9.255  0.1348 -0.1104 -0.3672
   54CHL1   H17 6427   2.109   5.550   9.248 -0.0684  0.0890  2.5204
   54CHL1   C13 6428   2.266   5.539   9.399 -0.3914 -0.1777 -0.9065
   54CHL1   C18 6429   2.423   5.558   9.401  0.2513 -0.5680  0.0578
   54CHL1  H18A 6430   2.473   5.491   9.327  0.0900  1.4902 -2.0429
   54CHL1  H18B 6431   2.433   5.660   9.357 -0.8723 -0.9788 -1.2303
   54CHL1  H18C 6432   2.466   5.555   9.503  1.0984  1.2234 -0.1987
   54CHL1   C12 6433   2.190   5.649   9.484  0.3051  0.0234  0.4661
   54CHL1  H12A 6434   2.213   5.742   9.427 -2.3208 -1.9124 -4.3347
   54CHL1  H12B 6435   2.083   5.621   9.482  0.3517 -0.3013  1.5652
   54CHL1   C11 6436   2.228   5.636   9.635  0.5407  0.6099  0.4954
   54CHL1  H11A 6437   2.332   5.673   9.644  0.9170 -0.7985  2.9971
   54CHL1  H11B 6438   2.158   5.697   9.696  1.6020  0.4045  1.9886
   54CHL1    C9 6439   2.227   5.485   9.697 -0.4333  0.4394 -0.4129
   54CHL1    H9 6440   2.120   5.456   9.704 -0.4767  0.6536 -0.1825
   54CHL1   C10 6441   2.279   5.467   9.846 -0.3708  0.0928  0.1783
   54CHL1   C19 6442   2.421   5.540   9.860  0.5216  0.5050 -0.0761
   54CHL1  H19A 6443   2.494   5.510   9.782 -0.0682  0.7576 -0.7413
   54CHL1  H19B 6444   2.406   5.650   9.851 -0.1988  0.4206  0.0288
   54CHL1  H19C 6445   2.473   5.511   9.954 -1.4258 -0.4731  0.7526
   54CHL1    C1 6446   2.182   5.536   9.944  0.1265 -1.1229  0.4572
   54CHL1   H1A 6447   2.175   5.646   9.930 -1.2348 -1.0022  1.8059
   54CHL1   H1B 6448   2.080   5.492   9.931  0.1585 -1.4005  1.1012
   54CHL1    C2 6449   2.221   5.513  10.095 -0.0909 -0.5311  0.5306
   54CHL1   H2A 6450   2.154   5.576  10.157  0.3705  2.3049 -1.6324
   54CHL1   H2B 6451   2.326   5.550  10.102  0.2484 -1.5103  0.7268
   54CHL1   C20 6452   2.286   5.600   9.138  0.3237 -0.4056  0.7682
   54CHL1   H20 6453   2.390   5.565   9.119  0.4319 -0.4264  1.3651
   54CHL1   C21 6454   2.285   5.756   9.153  0.2585 -0.1262 -0.3181
   54CHL1  H21A 6455   2.177   5.784   9.154  0.2090 -0.2887 -0.7513
   54CHL1  H21B 6456   2.335   5.805   9.067  1.8021 -0.5514  0.3114
   54CHL1  H21C 6457   2.329   5.795   9.246 -1.6690 -0.1620  0.6636
   54CHL1   C22 6458   2.216   5.576   9.006  0.4285 -0.2611  0.2027
   54CHL1  H22A 6459   2.215   5.466   8.993 -1.4691 -0.1123 -1.3929
   54CHL1  H22B 6460   2.106   5.591   9.010  0.2621 -1.3116 -0.3510
   54CHL1   C23 6461   2.278   5.627   8.877  0.3871 -0.3521  0.2676
   54CHL1  H23A 6462   2.273   5.738   8.886  1.2311 -0.5033  3.4513
   54CHL1  H23B 6463   2.383   5.591   8.875  1.2538  1.9513 -2.0349
   54CHL1   C24 6464   2.213   5.566   8.754  0.7379 -0.1775  0.1912
   54CHL1  H24A 6465   2.210   5.456   8.770 -0.2107 -0.0583  0.9180
   54CHL1  H24B 6466   2.114   5.616   8.751  0.2770 -0.9632  1.5537
   54CHL1   C25 6467   2.298   5.593   8.624 -0.2623  0.9654 -0.1654
   54CHL1   H25 6468   2.392   5.534   8.635 -1.6509 -1.1997  0.6475
   54CHL1   C26 6469   2.242   5.516   8.502 -0.2119 -0.1052  0.1236
   54CHL1  H26A 6470   2.132   5.535   8.503  0.0041  1.3279  1.4748
   54CHL1  H26B 6471   2.288   5.551   8.407  0.6395  0.5171  0.7516
   54CHL1  H26C 6472   2.251   5.406   8.507 -3.1586 -0.3901  1.2839
   54CHL1   C27 6473   2.312   5.738   8.597  0.2309  0.2368  0.2888
   54CHL1  H27A 6474   2.334   5.810   8.679  0.1203  2.1207 -1.2656
   54CHL1  H27B 6475   2.379   5.759   8.510  0.1126  1.2268  0.4210
   54CHL1  H27C 6476   2.219   5.785   8.557  0.0350  0.0399  0.5170
   55CHL1    C3 6477   3.959   2.333  10.251 -0.0466 -0.0227 -0.0346
   55CHL1    H3 6478   4.054   2.373  10.208 -0.0961 -0.7894 -0.8785
   55CHL1    O3 6479   3.962   2.372  10.389  0.0451  0.6871 -0.7180
   55CHL1   H3' 6480   3.888   2.325  10.429 -0.3059 -1.0019 -3.1486
   55CHL1    C4 6481   3.835   2.395  10.182 -0.8149  0.1994 -0.3865
   55CHL1   H4A 6482   3.745   2.375  10.243 -1.5494 -1.7350 -1.9999
   55CHL1   H4B 6483   3.852   2.504  10.194 -1.1623  0.1432  0.7230
   55CHL1    C5 6484   3.815   2.355  10.035 -0.4348 -0.3764  1.0038
   55CHL1    C6 6485   3.805   2.452   9.937 -0.0518  0.1118 -0.1575
   55CHL1    H6 6486   3.802   2.560   9.961 -0.0349 -0.4374  2.6056
   55CHL1    C7 6487   3.781   2.412   9.794  0.4920  0.3144 -0.0447
   55CHL1   H7A 6488   3.708   2.479   9.745 -0.9254  0.2625  1.8461
   55CHL1   H7B 6489   3.880   2.420   9.746  0.2506 -0.3869 -0.6870
   55CHL1    C8 6490   3.730   2.271   9.774 -0.4043 -0.0557 -0.3608
   55CHL1    H8 6491   3.623   2.264   9.804 -1.5908  2.7344 -3.2439
   55CHL1   C14 6492   3.740   2.224   9.628 -0.6011  0.6857  0.4483
   55CHL1   H14 6493   3.848   2.215   9.601 -0.4623  1.1943  0.8219
   55CHL1   C15 6494   3.690   2.322   9.514 -0.5624 -0.0013  0.4413
   55CHL1  H15A 6495   3.593   2.374   9.534  0.8615  2.4140  1.5331
   55CHL1  H15B 6496   3.764   2.405   9.506 -1.0044  0.4638  1.0833
   55CHL1   C16 6497   3.660   2.233   9.393 -0.7833  0.5934  0.1873
   55CHL1  H16A 6498   3.551   2.229   9.371 -0.3904  3.1959 -3.0027
   55CHL1  H16B 6499   3.716   2.261   9.301  0.5227  0.3196  0.8815
   55CHL1   C17 6500   3.687   2.079   9.442 -0.4378  0.6995 -0.3692
   55CHL1   H17 6501   3.793   2.052   9.424 -1.5740 -3.6135 -1.7675
   55CHL1   C13 6502   3.683   2.090   9.602 -0.5227  0.4619  0.4845
   55CHL1   C18 6503   3.537   2.091   9.654  0.2018  0.0126  0.6904
   55CHL1  H18A 6504   3.537   2.072   9.764 -1.0492  0.7391  0.8283
   55CHL1  H18B 6505   3.487   2.187   9.631 -0.8534 -0.5587  0.5697
   55CHL1  H18C 6506   3.477   2.011   9.606  0.3330 -0.0831  0.6855
   55CHL1   C12 6507   3.776   1.995   9.675  0.2349 -0.2225 -0.6643
   55CHL1  H12A 6508   3.739   1.891   9.667 -3.6203  1.0740 -1.7370
   55CHL1  H12B 6509   3.877   2.001   9.628 -0.2487 -0.0865 -1.7148
   55CHL1   C11 6510   3.792   2.021   9.826  0.2942  0.6678  0.2934
   55CHL1  H11A 6511   3.693   1.991   9.867  0.1889 -0.4325 -0.7175
   55CHL1  H11B 6512   3.861   1.949   9.873  0.3833  0.6071  0.0696
   55CHL1    C9 6513   3.821   2.174   9.857 -0.2087  0.2009  0.4282
   55CHL1    H9 6514   3.924   2.192   9.820 -0.2369  1.1440  0.7794
   55CHL1   C10 6515   3.818   2.206  10.007  0.2506 -0.2315  0.1563
   55CHL1   C19 6516   3.685   2.149  10.080 -0.6174  0.2987 -0.3661
   55CHL1  H19A 6517   3.681   2.038  10.075  1.3522  0.1448  0.7909
   55CHL1  H19B 6518   3.681   2.180  10.186 -3.6957  1.3785 -0.6686
   55CHL1  H19C 6519   3.590   2.192  10.041 -0.3721 -0.4436 -1.8410
   55CHL1    C1 6520   3.941   2.137  10.079 -0.8395 -0.5344  0.0874
   55CHL1   H1A 6521   3.923   2.028  10.070 -0.6733 -0.4508 -1.7892
   55CHL1   H1B 6522   4.034   2.161  10.023 -0.8307  3.0468  1.4093
   55CHL1    C2 6523   3.967   2.181  10.224 -0.0005  0.7009 -0.5936
   55CHL1   H2A 6524   4.064   2.141  10.261 -0.6405 -1.1142 -0.8007
   55CHL1   H2B 6525   3.887   2.135  10.285 -0.9299 -0.6892 -2.7711
   55CHL1   C20 6526   3.602   1.986   9.369  0.4256 -0.0192 -0.2386
   55CHL1   H20 6527   3.498   2.004   9.404  0.0317  1.2772 -1.9640
   55CHL1   C21 6528   3.634   1.843   9.402 -0.3437  0.8509 -0.1210
   55CHL1  H21A 6529   3.575   1.770   9.342  1.4977 -2.6496  1.9553
   55CHL1  H21B 6530   3.618   1.812   9.507  2.7243 -0.8574 -0.0125
   55CHL1  H21C 6531   3.740   1.829   9.370 -0.5510  2.0473 -1.4068
   55CHL1   C22 6532   3.607   2.017   9.216  0.3461  0.6281  0.0291
   55CHL1  H22A 6533   3.546   2.107   9.189  0.3990  1.0220  1.1831
   55CHL1  H22B 6534   3.715   2.034   9.196  0.5534  0.1128  0.7166
   55CHL1   C23 6535   3.552   1.912   9.123 -0.2142  0.5624  0.3600
   55CHL1  H23A 6536   3.603   1.815   9.142 -0.6996  0.5485  1.6646
   55CHL1  H23B 6537   3.448   1.883   9.147 -0.0433 -1.9592 -1.4851
   55CHL1   C24 6538   3.558   1.952   8.974 -0.2664 -0.2802 -0.0612
   55CHL1  H24A 6539   3.498   2.043   8.953  1.1613  1.5539  3.1083
   55CHL1  H24B 6540   3.665   1.981   8.964 -0.3431  0.3583  0.8672
   55CHL1   C25 6541   3.533   1.836   8.876  1.0198 -0.3514 -0.2180
   55CHL1   H25 6542   3.448   1.774   8.912 -0.3407  0.7384 -1.4040
   55CHL1   C26 6543   3.510   1.899   8.736  0.3055 -0.2348  0.5374
   55CHL1  H26A 6544   3.593   1.963   8.699 -2.5032  1.8241 -2.7534
   55CHL1  H26B 6545   3.498   1.827   8.653  0.8945  1.0751 -0.7316
   55CHL1  H26C 6546   3.421   1.965   8.725  0.9217  0.2566 -2.1653
   55CHL1   C27 6547   3.657   1.740   8.875  0.4502 -0.5158 -0.0899
   55CHL1  H27A 6548   3.699   1.720   8.976 -0.7167 -0.6110  0.3867
   55CHL1  H27B 6549   3.622   1.644   8.832 -0.3079 -0.2181 -0.1433
   55CHL1  H27C 6550   3.735   1.782   8.808  0.9514 -0.7000  0.3702
   56CHL1    C3 6551   2.108   1.668  10.048  0.4453  0.3226 -0.0385
   56CHL1    H3 6552   2.156   1.568  10.046  0.3135  0.2229  1.1413
   56CHL1    O3 6553   2.139   1.738  10.166  0.1039  0.2106  0.6547
   56CHL1   H3' 6554   2.067   1.734  10.230 -0.2125  2.1937  0.4645
   56CHL1    C4 6555   2.173   1.752   9.929 -0.1603  0.0532  0.2818
   56CHL1   H4A 6556   2.138   1.857   9.942  1.6558  0.5171  1.8792
   56CHL1   H4B 6557   2.282   1.739   9.942  0.1175  0.8509 -1.0403
   56CHL1    C5 6558   2.140   1.693   9.790  0.3166  0.3849  0.1156
   56CHL1    C6 6559   2.237   1.665   9.699 -0.0646 -0.0311 -0.2681
   56CHL1    H6 6560   2.339   1.693   9.726 -0.5662  2.7880 -1.0355
   56CHL1    C7 6561   2.212   1.608   9.563  0.6203  0.6416  0.7842
   56CHL1   H7A 6562   2.273   1.660   9.486 -0.0724 -1.0879 -1.0324
   56CHL1   H7B 6563   2.238   1.501   9.548 -2.3674  0.1334 -1.9614
   56CHL1    C8 6564   2.058   1.607   9.532 -0.0595  0.5701 -0.2167
   56CHL1    H8 6565   2.034   1.713   9.510 -1.1926  0.1766 -1.0089
   56CHL1   C14 6566   2.024   1.520   9.410 -0.5675  0.2649  0.3160
   56CHL1   H14 6567   2.066   1.424   9.448  2.9524  1.5031 -0.0881
   56CHL1   C15 6568   2.107   1.550   9.287 -0.1764  0.9983 -0.2880
   56CHL1  H15A 6569   2.097   1.659   9.267 -1.9198  0.5833 -2.0131
   56CHL1  H15B 6570   2.212   1.517   9.298  0.2064  1.6606 -1.7604
   56CHL1   C16 6571   2.031   1.462   9.185  0.7157  0.2111 -0.4535
   56CHL1  H16A 6572   2.010   1.528   9.098 -0.0183 -0.8189 -1.0756
   56CHL1  H16B 6573   2.075   1.370   9.141  0.4240  0.4828 -1.3415
   56CHL1   C17 6574   1.895   1.415   9.246 -0.2950 -0.2090  0.1569
   56CHL1   H17 6575   1.909   1.311   9.282  0.3197 -0.6266 -1.2176
   56CHL1   C13 6576   1.878   1.499   9.371 -0.5056 -0.4633  0.0007
   56CHL1   C18 6577   1.821   1.634   9.336  0.9837  0.1047 -0.0524
   56CHL1  H18A 6578   1.712   1.628   9.316  0.9528  1.2340 -0.2820
   56CHL1  H18B 6579   1.847   1.707   9.415 -1.6948  0.4156  0.6371
   56CHL1  H18C 6580   1.877   1.679   9.251  0.4383 -1.1882 -1.1255
   56CHL1   C12 6581   1.801   1.444   9.493 -0.0193  0.4792  0.0211
   56CHL1  H12A 6582   1.694   1.417   9.488 -1.0217  3.8382  1.2451
   56CHL1  H12B 6583   1.854   1.346   9.504 -1.3561 -0.3435 -0.6408
   56CHL1   C11 6584   1.826   1.520   9.618  0.2386 -0.2776  0.0304
   56CHL1  H11A 6585   1.764   1.611   9.613  1.2788  0.4185 -0.4857
   56CHL1  H11B 6586   1.790   1.465   9.708 -0.3139  1.3307  0.8200
   56CHL1    C9 6587   1.977   1.559   9.657 -0.2789  0.6581  0.4122
   56CHL1    H9 6588   2.027   1.461   9.668 -0.3953  0.1663 -2.5297
   56CHL1   C10 6589   1.993   1.663   9.772 -0.5192  0.1546 -0.2791
   56CHL1   C19 6590   1.924   1.801   9.744 -0.3550 -0.8173 -0.0289
   56CHL1  H19A 6591   1.970   1.838   9.650  3.2113 -2.4933  0.9003
   56CHL1  H19B 6592   1.814   1.782   9.748 -0.5391  0.2575  0.5351
   56CHL1  H19C 6593   1.945   1.877   9.822 -2.4493 -1.0410  0.8183
   56CHL1    C1 6594   1.935   1.590   9.896 -0.2200  0.1615  0.6267
   56CHL1   H1A 6595   1.825   1.590   9.882 -0.4018  0.5600  1.9388
   56CHL1   H1B 6596   1.962   1.483   9.906 -1.2321 -0.0957  0.6310
   56CHL1    C2 6597   1.962   1.655  10.031 -0.4082  0.2549 -0.1142
   56CHL1   H2A 6598   1.920   1.601  10.118 -2.7242  1.3889 -0.4527
   56CHL1   H2B 6599   1.912   1.754  10.033 -0.3136  0.2914  0.3985
   56CHL1   C20 6600   1.782   1.401   9.141  0.2751  0.2595 -0.0972
   56CHL1   H20 6601   1.749   1.503   9.113  0.6131 -0.1074 -1.9555
   56CHL1   C21 6602   1.662   1.338   9.202  0.1783 -0.7467 -0.0766
   56CHL1  H21A 6603   1.631   1.405   9.286 -0.1122 -0.6608 -0.2528
   56CHL1  H21B 6604   1.678   1.236   9.243 -1.5622 -0.2463  2.0893
   56CHL1  H21C 6605   1.575   1.337   9.133  1.5174  0.3189 -1.8484
   56CHL1   C22 6606   1.825   1.329   9.011  0.3215  0.3941 -0.1712
   56CHL1  H22A 6607   1.923   1.368   8.975  0.4381 -0.1935 -0.4997
   56CHL1  H22B 6608   1.841   1.223   9.040 -0.7833  0.9002  2.5908
   56CHL1   C23 6609   1.724   1.314   8.891 -0.8519 -0.6486  0.1933
   56CHL1  H23A 6610   1.630   1.273   8.934 -0.7611  1.8504  3.0657
   56CHL1  H23B 6611   1.702   1.417   8.858  2.4399  0.2859  0.5464
   56CHL1   C24 6612   1.795   1.246   8.776 -0.0226  0.6949  0.1589
   56CHL1  H24A 6613   1.884   1.307   8.752  0.2654  0.1393 -0.2055
   56CHL1  H24B 6614   1.837   1.153   8.820 -1.8168  0.5951  1.7931
   56CHL1   C25 6615   1.710   1.235   8.648 -0.9758  0.1916 -0.0927
   56CHL1   H25 6616   1.703   1.336   8.601  3.3178  0.5454 -0.4340
   56CHL1   C26 6617   1.780   1.141   8.545 -0.1673  0.3403  0.0359
   56CHL1  H26A 6618   1.779   1.038   8.588 -1.2479 -0.0261 -0.8089
   56CHL1  H26B 6619   1.725   1.151   8.449 -0.7765  0.0084  0.3432
   56CHL1  H26C 6620   1.886   1.172   8.531  0.7833 -2.7446 -0.3883
   56CHL1   C27 6621   1.564   1.184   8.664 -0.0789 -0.0989 -0.2612
   56CHL1  H27A 6622   1.516   1.150   8.569 -0.3116 -0.2460 -0.0933
   56CHL1  H27B 6623   1.569   1.087   8.717  1.1437 -0.2775 -0.6857
   56CHL1  H27C 6624   1.499   1.255   8.719  0.3191 -0.3998  0.6016
   57CHL1    C3 6625   3.626   3.742  10.224 -0.6052 -0.1571  0.0933
   57CHL1    H3 6626   3.706   3.816  10.204 -0.2408 -0.6351 -0.2612
   57CHL1    O3 6627   3.619   3.722  10.365  0.5999 -0.4262  0.3729
   57CHL1   H3' 6628   3.603   3.806  10.409 -0.9769 -1.2383  1.4280
   57CHL1    C4 6629   3.491   3.803  10.178  0.2386 -0.2159 -0.5989
   57CHL1   H4A 6630   3.403   3.747  10.215  0.3976  0.0714  0.2268
   57CHL1   H4B 6631   3.479   3.902  10.227  0.1857 -1.2970  1.6636
   57CHL1    C5 6632   3.493   3.808  10.023  0.0144  0.1735  0.2328
   57CHL1    C6 6633   3.460   3.922   9.959 -0.1525 -0.2485  0.3933
   57CHL1    H6 6634   3.436   4.007  10.025 -2.1358 -1.7852  1.7654
   57CHL1    C7 6635   3.444   3.939   9.810  0.8136  0.6233  0.4573
   57CHL1   H7A 6636   3.350   3.991   9.780  1.4792  1.8644  0.4619
   57CHL1   H7B 6637   3.524   3.993   9.756 -1.7110  2.5363 -1.6438
   57CHL1    C8 6638   3.431   3.796   9.743 -0.2843 -0.4682 -0.4690
   57CHL1    H8 6639   3.329   3.754   9.758  0.4092 -2.7370 -1.6748
   57CHL1   C14 6640   3.458   3.814   9.590 -0.2673 -1.4081  0.1555
   57CHL1   H14 6641   3.560   3.855   9.574 -1.0573  0.7347  0.3735
   57CHL1   C15 6642   3.366   3.912   9.518 -0.1941  0.1169 -0.6893
   57CHL1  H15A 6643   3.272   3.890   9.572  0.6600  0.7427  1.1495
   57CHL1  H15B 6644   3.400   4.016   9.538  1.7457 -0.3473 -1.3804
   57CHL1   C16 6645   3.370   3.871   9.375  0.6575 -1.0190  0.0854
   57CHL1  H16A 6646   3.270   3.847   9.334  0.4713  0.8730 -0.6786
   57CHL1  H16B 6647   3.403   3.961   9.318 -0.0008 -0.9794 -0.2357
   57CHL1   C17 6648   3.461   3.746   9.364  0.4086  0.3635  0.5376
   57CHL1   H17 6649   3.562   3.792   9.361  0.2514  0.7622  1.1461
   57CHL1   C13 6650   3.448   3.686   9.507  0.9310  0.5247  0.2736
   57CHL1   C18 6651   3.307   3.615   9.507 -0.2449 -0.1676  0.1140
   57CHL1  H18A 6652   3.227   3.678   9.463  0.7525  1.2850  0.2665
   57CHL1  H18B 6653   3.308   3.517   9.456  0.2854  0.0465 -0.3011
   57CHL1  H18C 6654   3.269   3.602   9.611  0.9199  0.5565  0.6667
   57CHL1   C12 6655   3.556   3.594   9.558 -0.1292  0.1204 -0.5708
   57CHL1  H12A 6656   3.551   3.492   9.515  0.4728  0.3039 -1.0988
   57CHL1  H12B 6657   3.654   3.644   9.542  0.3130 -0.0708  1.3533
   57CHL1   C11 6658   3.543   3.573   9.705 -0.1492  0.3475 -0.1882
   57CHL1  H11A 6659   3.453   3.515   9.733 -0.3143  0.0058 -1.3847
   57CHL1  H11B 6660   3.629   3.510   9.737  0.3172  1.1717  0.2193
   57CHL1    C9 6661   3.537   3.702   9.795  0.3462 -0.3576 -0.3334
   57CHL1    H9 6662   3.632   3.758   9.783 -1.1023  2.7585  1.4430
   57CHL1   C10 6663   3.532   3.680   9.947 -0.0428 -0.1948 -0.6556
   57CHL1   C19 6664   3.429   3.575   9.972 -0.3487  0.6829 -0.8951
   57CHL1  H19A 6665   3.339   3.587   9.909  1.0937  0.2802 -3.1333
   57CHL1  H19B 6666   3.474   3.474   9.956 -0.2184  0.4430  0.7583
   57CHL1  H19C 6667   3.389   3.574  10.076  0.4021  0.9990 -0.5944
   57CHL1    C1 6668   3.666   3.633  10.007 -0.2217  0.2701 -0.4955
   57CHL1   H1A 6669   3.693   3.532   9.971 -1.8881 -0.7661  0.9323
   57CHL1   H1B 6670   3.745   3.710   9.993  0.8709 -1.1744 -2.6584
   57CHL1    C2 6671   3.660   3.610  10.162  0.4457  0.1971  0.4409
   57CHL1   H2A 6672   3.761   3.580  10.198  0.4642  1.7156  1.7998
   57CHL1   H2B 6673   3.580   3.541  10.196 -0.8107  1.4357  0.0929
   57CHL1   C20 6674   3.447   3.656   9.236 -0.6787 -0.5655  0.8798
   57CHL1   H20 6675   3.356   3.593   9.240  0.1900 -1.8844  0.2708
   57CHL1   C21 6676   3.557   3.553   9.228 -0.2579 -0.6639  0.2965
   57CHL1  H21A 6677   3.543   3.500   9.132 -0.6392 -0.0999  0.0343
   57CHL1  H21B 6678   3.548   3.481   9.312 -1.3566 -1.3606 -0.4041
   57CHL1  H21C 6679   3.659   3.597   9.228 -1.1417  1.5318  0.3614
   57CHL1   C22 6680   3.430   3.731   9.102 -0.4386 -0.2645  0.0050
   57CHL1  H22A 6681   3.402   3.664   9.017  0.9117  0.5414 -1.1199
   57CHL1  H22B 6682   3.336   3.790   9.111 -1.6264 -2.1956  0.9095
   57CHL1   C23 6683   3.535   3.833   9.045  0.2134  0.4424 -0.3835
   57CHL1  H23A 6684   3.567   3.889   9.136  3.1359 -0.9858 -0.4158
   57CHL1  H23B 6685   3.630   3.789   9.009  0.4530 -0.0640  0.8397
   57CHL1   C24 6686   3.475   3.946   8.958 -0.0119  0.3296  0.8414
   57CHL1  H24A 6687   3.364   3.951   8.970 -0.0647  2.5496 -0.0392
   57CHL1  H24B 6688   3.534   4.037   8.980 -0.2462  0.5714  0.4809
   57CHL1   C25 6689   3.490   3.924   8.808 -0.4313  0.0139 -0.3261
   57CHL1   H25 6690   3.589   3.875   8.806 -0.7099 -0.7291  1.5904
   57CHL1   C26 6691   3.392   3.816   8.758 -0.0743  0.1459  0.0263
   57CHL1  H26A 6692   3.399   3.809   8.647  0.8995  1.1868 -0.0012
   57CHL1  H26B 6693   3.413   3.715   8.800  0.7617 -0.8654 -2.6148
   57CHL1  H26C 6694   3.287   3.847   8.776 -0.3717 -0.1251 -1.1211
   57CHL1   C27 6695   3.486   4.053   8.731  0.3861  0.3348  0.8018
   57CHL1  H27A 6696   3.573   4.122   8.747 -0.9081  1.9689  1.0622
   57CHL1  H27B 6697   3.504   4.024   8.625  2.3019 -1.5291  1.5611
   57CHL1  H27C 6698   3.389   4.105   8.743 -0.2443 -0.2736 -1.2899
   58CHL1    C3 6699   6.291   1.425  10.129 -0.2020 -0.3669  0.3367
   58CHL1    H3 6700   6.224   1.337  10.124 -2.8943  1.5396  0.7109
   58CHL1    O3 6701   6.312   1.463  10.263  0.1861  0.6606 -0.4650
   58CHL1   H3' 6702   6.247   1.528  10.287 -0.2595  0.0018  0.1501
   58CHL1    C4 6703   6.422   1.406  10.051  0.4294  0.3425 -0.2316
   58CHL1   H4A 6704   6.480   1.499  10.068 -2.1596  2.1038 -0.4094
   58CHL1   H4B 6705   6.484   1.329  10.102  0.8981  0.1305 -1.0915
   58CHL1    C5 6706   6.413   1.381   9.903  0.3350  0.9077 -0.3347
   58CHL1    C6 6707   6.466   1.272   9.845  0.1856 -0.0959  0.6444
   58CHL1    H6 6708   6.526   1.202   9.905 -1.4046 -1.4388  0.7236
   58CHL1    C7 6709   6.456   1.247   9.690 -0.3513 -0.0485  0.2597
   58CHL1   H7A 6710   6.554   1.242   9.637  0.2106  1.1262  1.1478
   58CHL1   H7B 6711   6.404   1.150   9.677 -2.1068  0.3815  3.2192
   58CHL1    C8 6712   6.381   1.358   9.613 -0.0552 -0.4007  0.3907
   58CHL1    H8 6713   6.461   1.432   9.591 -1.0309  0.4087 -0.5584
   58CHL1   C14 6714   6.321   1.304   9.483  0.3414  0.6605 -0.8617
   58CHL1   H14 6715   6.233   1.247   9.519 -0.1155  1.9266  0.0943
   58CHL1   C15 6716   6.416   1.222   9.395 -0.8827 -0.2343 -0.6829
   58CHL1  H15A 6717   6.518   1.265   9.390 -1.9286  2.4489 -0.3270
   58CHL1  H15B 6718   6.433   1.120   9.436 -0.5717 -0.2707 -0.8986
   58CHL1   C16 6719   6.350   1.235   9.259 -0.1926  1.0821 -0.4522
   58CHL1  H16A 6720   6.427   1.263   9.184 -1.1843  0.6254 -1.6893
   58CHL1  H16B 6721   6.300   1.139   9.235 -0.6917  0.6277  2.1125
   58CHL1   C17 6722   6.234   1.331   9.262 -0.1258 -0.5311 -0.3904
   58CHL1   H17 6723   6.146   1.265   9.281  0.7595 -2.3132 -2.0271
   58CHL1   C13 6724   6.262   1.408   9.386  0.1033  0.7649 -0.7788
   58CHL1   C18 6725   6.364   1.516   9.362  0.0561  0.1426  0.5951
   58CHL1  H18A 6726   6.382   1.566   9.460 -1.8718 -0.7852  1.4942
   58CHL1  H18B 6727   6.456   1.470   9.320  0.7139  0.3674  1.7246
   58CHL1  H18C 6728   6.324   1.604   9.308  0.0621 -0.5039 -0.4940
   58CHL1   C12 6729   6.145   1.477   9.466  0.2234 -0.5455 -0.3654
   58CHL1  H12A 6730   6.108   1.562   9.406 -0.9572  0.5514  1.7916
   58CHL1  H12B 6731   6.067   1.398   9.482 -2.2727  1.5227 -1.6206
   58CHL1   C11 6732   6.189   1.520   9.608 -0.6739 -0.1747 -0.3496
   58CHL1  H11A 6733   6.255   1.609   9.596  0.0268 -0.6299  0.0256
   58CHL1  H11B 6734   6.092   1.556   9.648 -1.2711  0.6490 -2.4471
   58CHL1    C9 6735   6.268   1.421   9.691 -0.9207  0.2224  0.1584
   58CHL1    H9 6736   6.188   1.347   9.712  1.0391 -2.0741  0.0231
   58CHL1   C10 6737   6.320   1.476   9.833  0.4671  0.1200  0.1028
   58CHL1   C19 6738   6.392   1.607   9.827  0.4948  0.5249  0.1191
   58CHL1  H19A 6739   6.449   1.630   9.919 -0.4724  0.2887  0.7991
   58CHL1  H19B 6740   6.462   1.611   9.741  1.1784 -0.6522  0.6038
   58CHL1  H19C 6741   6.311   1.678   9.800 -1.5392 -0.5928  2.7631
   58CHL1    C1 6742   6.186   1.503   9.918  0.0784  0.3653 -0.2490
   58CHL1   H1A 6743   6.113   1.572   9.869  0.1000  2.1613  2.0740
   58CHL1   H1B 6744   6.136   1.404   9.918 -3.2795  1.8354  2.6895
   58CHL1    C2 6745   6.207   1.540  10.065  0.6311  0.0650  0.1272
   58CHL1   H2A 6746   6.105   1.545  10.110  0.9164 -0.5794  0.8463
   58CHL1   H2B 6747   6.262   1.636  10.069  1.1849 -0.2741  0.7443
   58CHL1   C20 6748   6.201   1.396   9.129 -0.5987  0.6181 -0.3738
   58CHL1   H20 6749   6.283   1.465   9.100 -1.5860  2.0895  0.2040
   58CHL1   C21 6750   6.076   1.493   9.141  0.0673  0.9119 -0.1048
   58CHL1  H21A 6751   5.983   1.441   9.171 -1.2991  3.6322  0.6799
   58CHL1  H21B 6752   6.052   1.541   9.044  0.2129  1.0851 -0.0567
   58CHL1  H21C 6753   6.093   1.580   9.208 -1.1897 -0.7895  2.5902
   58CHL1   C22 6754   6.189   1.287   9.017  0.2739  0.7649  0.4969
   58CHL1  H22A 6755   6.273   1.215   9.027  0.1253 -0.0168 -2.7966
   58CHL1  H22B 6756   6.102   1.226   9.049 -0.6013  1.3435 -0.7230
   58CHL1   C23 6757   6.177   1.342   8.869  0.1837  0.6787 -0.1559
   58CHL1  H23A 6758   6.183   1.452   8.884 -1.8726  0.7207  0.5331
   58CHL1  H23B 6759   6.261   1.309   8.803 -0.6485 -0.3979 -0.7130
   58CHL1   C24 6760   6.051   1.294   8.810 -0.3027 -0.4847  0.3860
   58CHL1  H24A 6761   6.044   1.187   8.780 -2.1280 -0.0387 -0.9268
   58CHL1  H24B 6762   5.970   1.295   8.886 -1.2374  0.8841 -0.5814
   58CHL1   C25 6763   6.010   1.379   8.685  0.1784 -0.2455 -0.0801
   58CHL1   H25 6764   6.020   1.488   8.706  0.1641 -0.0175 -1.1497
   58CHL1   C26 6765   6.107   1.356   8.564  0.6545 -0.2890  0.0023
   58CHL1  H26A 6766   6.207   1.400   8.584 -0.3353  1.7644  0.6745
   58CHL1  H26B 6767   6.116   1.247   8.546  2.8403 -0.4834  1.8415
   58CHL1  H26C 6768   6.065   1.404   8.473 -0.3336 -1.1560 -0.0285
   58CHL1   C27 6769   5.863   1.346   8.653 -0.0996  0.4554 -0.2620
   58CHL1  H27A 6770   5.803   1.410   8.720  0.2920 -0.8736  1.4560
   58CHL1  H27B 6771   5.832   1.386   8.555 -2.5986  4.5175  1.9258
   58CHL1  H27C 6772   5.833   1.241   8.673  0.9772  0.0060 -0.8761
   59CHL1    C3 6773   6.346   0.487  10.387  0.1245  0.3425 -0.0217
   59CHL1    H3 6774   6.411   0.575  10.370  0.8429 -0.5766 -2.4402
   59CHL1    O3 6775   6.370   0.439  10.519  0.4649  0.4219  0.1346
   59CHL1   H3' 6776   6.449   0.485  10.548  0.4642  0.2321  0.4407
   59CHL1    C4 6777   6.198   0.532  10.390  0.3404  0.1406  0.2965
   59CHL1   H4A 6778   6.134   0.456  10.440 -1.0878  0.5915 -0.7626
   59CHL1   H4B 6779   6.200   0.625  10.450  2.9149  0.3158  0.0512
   59CHL1    C5 6780   6.138   0.561  10.253 -0.2924  0.5475 -0.7479
   59CHL1    C6 6781   6.075   0.678  10.233 -0.2425  0.5770  0.2328
   59CHL1    H6 6782   6.057   0.749  10.315  2.0807  0.8474  0.5873
   59CHL1    C7 6783   6.024   0.715  10.094  0.0069  0.2974 -0.3445
   59CHL1   H7A 6784   5.916   0.741  10.094  0.3648  1.8759 -0.7336
   59CHL1   H7B 6785   6.064   0.809  10.050 -1.1317  0.8851 -0.1627
   59CHL1    C8 6786   6.017   0.596   9.998  0.1220  0.5849  0.1120
   59CHL1    H8 6787   5.934   0.533  10.036  0.5112 -0.7803 -1.1775
   59CHL1   C14 6788   5.973   0.639   9.857  0.3026  0.6938 -0.2494
   59CHL1   H14 6789   6.043   0.721   9.829 -0.9719  1.4361 -1.4251
   59CHL1   C15 6790   5.824   0.676   9.835  0.0859 -0.0894  0.5637
   59CHL1  H15A 6791   5.749   0.608   9.880 -1.9038  0.0507 -2.3191
   59CHL1  H15B 6792   5.811   0.783   9.861  2.0333 -0.0490  1.6176
   59CHL1   C16 6793   5.799   0.662   9.687  0.0179  0.1364  0.1265
   59CHL1  H16A 6794   5.704   0.606   9.677  1.4691 -2.2295 -1.6474
   59CHL1  H16B 6795   5.776   0.759   9.638  0.5224  2.3348  3.8759
   59CHL1   C17 6796   5.919   0.577   9.624  0.3282 -0.5212  0.6372
   59CHL1   H17 6797   5.989   0.650   9.578  0.1595  0.7148  2.2701
   59CHL1   C13 6798   5.993   0.523   9.755 -0.0625  0.0305  0.6329
   59CHL1   C18 6799   5.913   0.399   9.805 -0.1083 -0.5824 -0.2411
   59CHL1  H18A 6800   5.807   0.427   9.821 -0.0154 -1.1383  1.5216
   59CHL1  H18B 6801   5.926   0.329   9.720  3.1567  0.0508 -0.3933
   59CHL1  H18C 6802   5.952   0.363   9.903  1.1233  3.9878  1.2046
   59CHL1   C12 6803   6.138   0.485   9.747  0.0382 -0.3626  0.0731
   59CHL1  H12A 6804   6.150   0.399   9.677 -1.9666  1.4531 -2.7402
   59CHL1  H12B 6805   6.198   0.567   9.700  0.6635 -0.7567  0.1761
   59CHL1   C11 6806   6.189   0.443   9.891 -0.2189  0.3835  0.7137
   59CHL1  H11A 6807   6.151   0.339   9.901  2.1052 -0.5686  0.2828
   59CHL1  H11B 6808   6.299   0.429   9.885 -0.4505 -1.2372 -0.7268
   59CHL1    C9 6809   6.152   0.532  10.008  0.6014  1.0064  0.1041
   59CHL1    H9 6810   6.222   0.617   9.998  1.4825  0.0577 -2.4965
   59CHL1   C10 6811   6.173   0.462  10.145  0.2445 -0.1554 -0.0625
   59CHL1   C19 6812   6.081   0.342  10.157  0.0002 -0.7104 -0.5746
   59CHL1  H19A 6813   6.093   0.270  10.074 -1.6095  1.1743 -2.5354
   59CHL1  H19B 6814   6.110   0.287  10.249 -1.3094 -1.4037 -0.5545
   59CHL1  H19C 6815   5.977   0.379  10.161 -0.6042 -2.3806  0.4369
   59CHL1    C1 6816   6.316   0.419  10.153 -0.4698  0.3748 -0.1365
   59CHL1   H1A 6817   6.315   0.329  10.087 -1.5057 -0.6304  1.1833
   59CHL1   H1B 6818   6.381   0.500  10.115  0.8863 -0.6063  0.0163
   59CHL1    C2 6819   6.367   0.375  10.292 -0.3459  0.0880  0.3451
   59CHL1   H2A 6820   6.475   0.350  10.281 -0.1932  1.1764 -0.8794
   59CHL1   H2B 6821   6.316   0.286  10.335  1.8218 -1.9410 -0.9788
   59CHL1   C20 6822   5.875   0.473   9.519 -0.5807  0.4563  0.0041
   59CHL1   H20 6823   5.807   0.404   9.574 -0.9365 -0.3574 -1.4111
   59CHL1   C21 6824   5.998   0.400   9.449 -0.1028  0.4620  0.2649
   59CHL1  H21A 6825   6.064   0.477   9.404  1.6101 -1.6616 -1.0543
   59CHL1  H21B 6826   5.955   0.335   9.369  0.9448 -0.3582  0.3408
   59CHL1  H21C 6827   6.061   0.340   9.517  0.1527  1.7817  1.2329
   59CHL1   C22 6828   5.787   0.530   9.409  0.2474 -0.3985 -0.0216
   59CHL1  H22A 6829   5.716   0.600   9.457  2.0961  1.4946  0.0724
   59CHL1  H22B 6830   5.847   0.598   9.345  1.0977  1.5367  2.6783
   59CHL1   C23 6831   5.716   0.418   9.320 -0.0236 -0.0223  0.1984
   59CHL1  H23A 6832   5.790   0.365   9.256  0.7310 -0.0492  1.0720
   59CHL1  H23B 6833   5.664   0.348   9.389 -0.2998  0.7293  0.7575
   59CHL1   C24 6834   5.602   0.495   9.237 -0.2520 -0.5519 -0.9729
   59CHL1  H24A 6835   5.535   0.516   9.323  2.5312  1.0254  1.0046
   59CHL1  H24B 6836   5.649   0.585   9.193  2.6759 -1.4052  0.1576
   59CHL1   C25 6837   5.549   0.403   9.128 -0.0630 -0.5942 -0.1540
   59CHL1   H25 6838   5.549   0.297   9.162  0.7005  0.0366  1.9692
   59CHL1   C26 6839   5.414   0.444   9.064  0.8892 -0.4589 -0.4522
   59CHL1  H26A 6840   5.398   0.373   8.980 -0.4754 -1.1741  0.3632
   59CHL1  H26B 6841   5.338   0.429   9.144 -0.2728 -1.1576 -1.6451
   59CHL1  H26C 6842   5.415   0.545   9.020 -2.0574 -0.4910 -0.7876
   59CHL1   C27 6843   5.661   0.400   9.013 -0.0457  0.0237 -0.1968
   59CHL1  H27A 6844   5.697   0.501   8.986 -1.0208  0.6397  0.6937
   59CHL1  H27B 6845   5.747   0.341   9.051  0.4116 -1.5313 -3.3662
   59CHL1  H27C 6846   5.633   0.359   8.914  3.0903 -1.1188 -0.7176
   60CHL1    C3 6847   5.959   5.584  10.085  0.5488  0.2416 -0.0395
   60CHL1    H3 6848   6.010   5.680  10.060  0.3967  0.3422  0.0372
   60CHL1    O3 6849   5.929   5.569  10.227  0.1259  0.2422 -0.0217
   60CHL1   H3' 6850   5.934   5.474  10.240  2.0381  0.4814  1.2569
   60CHL1    C4 6851   5.835   5.568   9.996  0.4445  0.1005 -0.4378
   60CHL1   H4A 6852   5.769   5.484  10.024 -2.6894  3.0575  1.8857
   60CHL1   H4B 6853   5.762   5.648  10.022  1.3256  1.1736 -1.1344
   60CHL1    C5 6854   5.875   5.565   9.855  0.3278 -0.7311  0.2002
   60CHL1    C6 6855   5.820   5.654   9.770 -1.2296 -0.3547 -0.0226
   60CHL1    H6 6856   5.738   5.717   9.809 -2.0027 -0.6866 -1.0648
   60CHL1    C7 6857   5.840   5.663   9.626  0.9686  0.1190 -0.8107
   60CHL1   H7A 6858   5.742   5.660   9.574 -0.8929 -2.0435  2.4617
   60CHL1   H7B 6859   5.896   5.758   9.613  0.6094  0.5944  0.8702
   60CHL1    C8 6860   5.916   5.537   9.568  0.9753  0.0427 -0.7296
   60CHL1    H8 6861   5.839   5.457   9.563  0.4064  0.4096  1.2792
   60CHL1   C14 6862   5.971   5.558   9.425  0.1628  0.1001  0.3510
   60CHL1   H14 6863   6.043   5.641   9.437 -1.2304  1.6964 -1.6307
   60CHL1   C15 6864   5.875   5.600   9.313  0.5002  0.2083  0.4295
   60CHL1  H15A 6865   5.783   5.538   9.315  1.9159 -1.9643  1.3063
   60CHL1  H15B 6866   5.849   5.708   9.317  1.2886  0.4254 -0.0018
   60CHL1   C16 6867   5.945   5.577   9.178  0.2440 -0.0717 -0.2145
   60CHL1  H16A 6868   5.889   5.495   9.128  1.7950 -2.1460  1.2844
   60CHL1  H16B 6869   5.958   5.668   9.115 -0.0946 -0.2078 -0.4820
   60CHL1   C17 6870   6.084   5.512   9.221 -0.3718 -0.2208 -0.3518
   60CHL1   H17 6871   6.158   5.593   9.240  0.4996 -0.5595 -2.1288
   60CHL1   C13 6872   6.061   5.453   9.360  0.4184 -1.3452 -0.9254
   60CHL1   C18 6873   5.981   5.324   9.334 -0.5954 -0.0566 -0.5534
   60CHL1  H18A 6874   5.959   5.278   9.432  2.8045 -0.1107  0.2916
   60CHL1  H18B 6875   5.882   5.331   9.284 -0.3722 -0.1765 -1.0199
   60CHL1  H18C 6876   6.052   5.256   9.282 -0.9933 -0.5992 -0.3952
   60CHL1   C12 6877   6.181   5.432   9.454  0.3786  0.2166 -0.4047
   60CHL1  H12A 6878   6.242   5.347   9.417  0.0621 -0.7228  1.1397
   60CHL1  H12B 6879   6.245   5.522   9.468 -1.3105  1.2382  1.1092
   60CHL1   C11 6880   6.125   5.394   9.594 -0.4810  0.1728 -0.3670
   60CHL1  H11A 6881   6.068   5.299   9.582 -0.5237  0.0418  0.7726
   60CHL1  H11B 6882   6.208   5.385   9.668 -1.3093 -0.1443  0.5358
   60CHL1    C9 6883   6.025   5.496   9.662 -0.6918  0.2141  0.4290
   60CHL1    H9 6884   6.088   5.588   9.666  0.1980 -0.4142  1.2850
   60CHL1   C10 6885   5.979   5.466   9.803 -0.2074 -0.3144  0.0780
   60CHL1   C19 6886   5.911   5.330   9.814 -0.3920 -0.1335 -0.6183
   60CHL1  H19A 6887   5.804   5.340   9.786 -0.3999  0.3062 -0.4344
   60CHL1  H19B 6888   5.958   5.255   9.747 -0.7252  0.0694 -1.0879
   60CHL1  H19C 6889   5.922   5.295   9.919 -0.3394 -0.5534 -0.7597
   60CHL1    C1 6890   6.102   5.488   9.893 -0.2773 -0.1955 -0.4717
   60CHL1   H1A 6891   6.174   5.406   9.873 -0.2964 -0.1931 -0.5521
   60CHL1   H1B 6892   6.163   5.578   9.872 -0.4540  0.1507  0.4278
   60CHL1    C2 6893   6.073   5.492  10.045 -0.3497 -0.2952  0.0373
   60CHL1   H2A 6894   6.157   5.536  10.102 -0.3482  0.2333 -0.3643
   60CHL1   H2B 6895   6.053   5.387  10.076  1.4133 -0.6732 -0.0104
   60CHL1   C20 6896   6.148   5.429   9.104 -0.2305  0.7648 -0.5655
   60CHL1   H20 6897   6.088   5.339   9.077  3.6158 -1.7799 -1.4800
   60CHL1   C21 6898   6.290   5.378   9.147  0.2660 -0.3818 -0.1302
   60CHL1  H21A 6899   6.281   5.301   9.226  0.8441  0.2187  0.5370
   60CHL1  H21B 6900   6.351   5.468   9.171 -0.8015  1.0464 -2.3451
   60CHL1  H21C 6901   6.343   5.320   9.069 -0.1709 -2.8892  1.3551
   60CHL1   C22 6902   6.170   5.513   8.978  0.6954 -0.5373 -0.6520
   60CHL1  H22A 6903   6.095   5.594   8.961  2.1315  1.2628  1.0683
   60CHL1  H22B 6904   6.262   5.570   9.004  1.0276 -1.6672  0.7526
   60CHL1   C23 6905   6.187   5.424   8.854  0.3910 -0.8085  0.2245
   60CHL1  H23A 6906   6.262   5.348   8.882 -0.2891 -1.2415  0.9214
   60CHL1  H23B 6907   6.101   5.357   8.830 -0.8520  0.9017 -0.3226
   60CHL1   C24 6908   6.232   5.502   8.729  0.5678  0.2222  0.4226
   60CHL1  H24A 6909   6.329   5.550   8.754  0.4824 -0.6959  2.8334
   60CHL1  H24B 6910   6.249   5.421   8.655  2.0332  1.7247 -0.9425
   60CHL1   C25 6911   6.141   5.613   8.676 -0.1341  0.0627  0.3229
   60CHL1   H25 6912   6.112   5.672   8.765  2.1303  0.5689  0.7934
   60CHL1   C26 6913   6.207   5.707   8.574  0.0535 -0.4542  0.1047
   60CHL1  H26A 6914   6.271   5.645   8.507 -0.7968 -0.7723 -0.4328
   60CHL1  H26B 6915   6.136   5.763   8.509  0.0632  0.1550  0.6152
   60CHL1  H26C 6916   6.272   5.785   8.618  0.8661 -0.1891 -1.5028
   60CHL1   C27 6917   6.007   5.556   8.619 -0.6265  0.1269  0.0047
   60CHL1  H27A 6918   5.935   5.633   8.585 -1.3673 -1.1942 -1.5686
   60CHL1  H27B 6919   6.034   5.495   8.530 -3.5981  0.8354 -1.5152
   60CHL1  H27C 6920   5.964   5.494   8.700  2.5280 -0.5271  1.3601
   61CHL1    C3 6921   2.628   6.254  10.196  1.0701 -0.7812 -0.0094
   61CHL1    H3 6922   2.552   6.190  10.148  1.1570 -2.2219  1.6761
   61CHL1    O3 6923   2.583   6.269  10.325 -0.6464  0.0184  0.7259
   61CHL1   H3' 6924   2.635   6.338  10.366  2.5561 -2.0184  0.4462
   61CHL1    C4 6925   2.769   6.180  10.198  0.3939 -0.1692 -0.4935
   61CHL1   H4A 6926   2.840   6.236  10.261 -0.3705  1.2619 -0.8604
   61CHL1   H4B 6927   2.759   6.077  10.239 -0.7141 -0.5886 -1.7436
   61CHL1    C5 6928   2.825   6.180  10.054 -0.4798 -0.3730  0.3440
   61CHL1    C6 6929   2.859   6.063   9.994 -0.5844  0.3659 -0.1765
   61CHL1    H6 6930   2.850   5.968  10.050  0.9042 -0.3248 -1.0655
   61CHL1    C7 6931   2.925   6.055   9.867  0.2007  0.1833  0.6532
   61CHL1   H7A 6932   3.014   5.989   9.873  0.5814  0.4228 -1.5350
   61CHL1   H7B 6933   2.863   6.013   9.784  0.2332 -0.0496  0.7462
   61CHL1    C8 6934   2.974   6.190   9.818  0.0633  0.3875 -0.5029
   61CHL1    H8 6935   3.058   6.220   9.885  0.8307  0.9630 -1.6890
   61CHL1   C14 6936   3.020   6.177   9.678 -0.3304 -0.3526 -0.3283
   61CHL1   H14 6937   2.928   6.154   9.620  0.0008 -0.5440 -0.7829
   61CHL1   C15 6938   3.122   6.060   9.646  0.2272  0.5444  0.4963
   61CHL1  H15A 6939   3.176   6.042   9.741  1.2239  1.0446  0.0451
   61CHL1  H15B 6940   3.078   5.968   9.602 -3.8550  3.0351 -1.2111
   61CHL1   C16 6941   3.208   6.124   9.534  0.6570 -0.1101 -0.0853
   61CHL1  H16A 6942   3.308   6.140   9.580  1.0515 -0.8892 -0.6487
   61CHL1  H16B 6943   3.228   6.053   9.451 -0.1491  0.4777 -0.8034
   61CHL1   C17 6944   3.151   6.254   9.490  0.3437  0.7771  0.1091
   61CHL1   H17 6945   3.065   6.236   9.421 -0.0370 -1.8149  1.1511
   61CHL1   C13 6946   3.081   6.307   9.621 -0.5936  0.2673  0.6747
   61CHL1   C18 6947   3.198   6.354   9.713 -0.0588 -0.2625 -0.6435
   61CHL1  H18A 6948   3.181   6.360   9.823  1.9727 -0.6557 -0.2598
   61CHL1  H18B 6949   3.287   6.293   9.689  0.7243  0.9658 -0.9919
   61CHL1  H18C 6950   3.238   6.457   9.696 -0.0975 -0.4815 -2.1635
   61CHL1   C12 6951   2.964   6.411   9.616 -0.0338  0.3691  0.3517
   61CHL1  H12A 6952   3.002   6.508   9.577  3.3922 -0.6831  0.7043
   61CHL1  H12B 6953   2.889   6.366   9.547  0.0666  0.0637  0.4407
   61CHL1   C11 6954   2.914   6.432   9.763  1.3931  0.6875  0.1620
   61CHL1  H11A 6955   3.001   6.488   9.804  1.3125  0.2761  0.9164
   61CHL1  H11B 6956   2.826   6.500   9.762  0.4477 -0.4617 -1.6384
   61CHL1    C9 6957   2.871   6.302   9.835  0.5270  0.6004  0.3741
   61CHL1    H9 6958   2.781   6.261   9.784  1.8742  1.2966 -2.8037
   61CHL1   C10 6959   2.833   6.313   9.981 -0.3654 -0.8745 -0.2220
   61CHL1   C19 6960   2.936   6.408  10.047  0.1105 -0.0316  0.0643
   61CHL1  H19A 6961   2.903   6.419  10.152  0.1250 -0.9021  0.1667
   61CHL1  H19B 6962   3.035   6.358  10.050  0.0558 -0.1483 -0.0521
   61CHL1  H19C 6963   2.956   6.502   9.990 -1.4322  0.4290  0.2389
   61CHL1    C1 6964   2.698   6.381   9.984  1.0213  0.2752 -0.2754
   61CHL1   H1A 6965   2.696   6.486   9.946 -1.1362  0.9404  1.4213
   61CHL1   H1B 6966   2.633   6.314   9.924  2.5885 -1.2902 -0.3148
   61CHL1    C2 6967   2.639   6.391  10.127 -0.3448  0.0302 -0.3287
   61CHL1   H2A 6968   2.535   6.428  10.121 -0.8810 -1.3356  0.2408
   61CHL1   H2B 6969   2.703   6.461  10.185  0.6234 -1.4985  0.5239
   61CHL1   C20 6970   3.249   6.341   9.417  0.0290 -0.6173  0.0955
   61CHL1   H20 6971   3.332   6.363   9.488  0.4119  1.7992 -0.9992
   61CHL1   C21 6972   3.184   6.471   9.377  0.5972 -0.1843  0.3912
   61CHL1  H21A 6973   3.104   6.451   9.302  0.1253 -2.0939  1.3436
   61CHL1  H21B 6974   3.258   6.535   9.325 -0.1070 -1.2377 -2.0530
   61CHL1  H21C 6975   3.144   6.531   9.462 -0.9510  0.5867 -0.8321
   61CHL1   C22 6976   3.308   6.273   9.286 -0.0334  0.2833 -0.3821
   61CHL1  H22A 6977   3.242   6.211   9.223  0.3458 -0.7212  0.1779
   61CHL1  H22B 6978   3.332   6.354   9.214 -1.6725  0.6824 -0.4991
   61CHL1   C23 6979   3.435   6.182   9.302 -0.2063 -0.2494  0.5697
   61CHL1  H23A 6980   3.507   6.214   9.380 -0.7042 -0.1805  1.0106
   61CHL1  H23B 6981   3.400   6.077   9.312  1.6027 -1.0450 -0.8337
   61CHL1   C24 6982   3.515   6.175   9.166 -0.4520  0.3001  0.0898
   61CHL1  H24A 6983   3.445   6.146   9.085  0.3697 -0.6643 -0.3052
   61CHL1  H24B 6984   3.551   6.279   9.148 -0.0546 -0.0990 -1.5833
   61CHL1   C25 6985   3.632   6.079   9.161 -0.2453 -1.3160 -0.1463
   61CHL1   H25 6986   3.608   5.977   9.198  2.2018 -1.4244  1.3551
   61CHL1   C26 6987   3.679   6.059   9.017 -0.3587 -0.0078  0.2048
   61CHL1  H26A 6988   3.605   6.009   8.951  0.6796 -1.9891  0.4383
   61CHL1  H26B 6989   3.716   6.143   8.954  0.2294 -0.3229  0.1220
   61CHL1  H26C 6990   3.761   5.983   9.023  1.5369  1.8421 -0.8248
   61CHL1   C27 6991   3.753   6.126   9.240  1.0193  0.3253 -1.1042
   61CHL1  H27A 6992   3.780   6.233   9.224 -2.1968  1.3686 -0.1850
   61CHL1  H27B 6993   3.721   6.124   9.346 -0.9960 -0.5792 -1.6811
   61CHL1  H27C 6994   3.842   6.065   9.214 -1.0745 -2.9954 -0.9688
   62CHL1    C3 6995   3.154   3.291  10.030 -0.6577 -0.3582 -0.5992
   62CHL1    H3 6996   3.161   3.395   9.993  0.5102 -0.1565  0.1650
   62CHL1    O3 6997   3.130   3.302  10.167  0.0823 -0.6095 -0.7794
   62CHL1   H3' 6998   3.170   3.231  10.219 -1.1849  0.0388  1.2013
   62CHL1    C4 6999   3.053   3.195   9.973 -0.1146 -0.3669  0.2247
   62CHL1   H4A 7000   3.055   3.094  10.019 -0.4217 -0.7126 -0.5050
   62CHL1   H4B 7001   2.953   3.234   9.999  0.1813  0.6896 -0.1835
   62CHL1    C5 7002   3.078   3.199   9.820 -0.0621  0.7115 -0.5200
   62CHL1    C6 7003   2.984   3.243   9.729  0.3277 -0.0459 -0.2042
   62CHL1    H6 7004   2.884   3.271   9.765 -0.3987  0.1652 -2.2272
   62CHL1    C7 7005   2.999   3.238   9.581 -0.2067  1.0311  0.3018
   62CHL1   H7A 7006   2.925   3.171   9.532  2.7218 -2.5794  0.3821
   62CHL1   H7B 7007   2.996   3.339   9.535  0.8192  2.4188  3.0922
   62CHL1    C8 7008   3.127   3.160   9.534 -0.4905 -0.0356  0.0455
   62CHL1    H8 7009   3.108   3.051   9.525 -0.3772  0.1296 -4.3593
   62CHL1   C14 7010   3.157   3.202   9.387 -0.4320 -0.2958 -0.5321
   62CHL1   H14 7011   3.166   3.312   9.406 -2.9344 -0.0497 -0.4122
   62CHL1   C15 7012   3.043   3.193   9.279  0.0057  0.5196  1.3750
   62CHL1  H15A 7013   2.981   3.101   9.285  0.3392  0.2053  0.2330
   62CHL1  H15B 7014   2.968   3.275   9.287 -0.0411  0.3654  2.9030
   62CHL1   C16 7015   3.129   3.202   9.143 -0.5548  0.0304 -0.6071
   62CHL1  H16A 7016   3.110   3.117   9.074 -0.3769  1.1529 -2.0617
   62CHL1  H16B 7017   3.108   3.292   9.082  3.0248  0.6249 -1.1483
   62CHL1   C17 7018   3.280   3.199   9.184  0.0158  0.2037  0.0263
   62CHL1   H17 7019   3.306   3.306   9.177  0.7296 -0.0552 -4.3637
   62CHL1   C13 7020   3.285   3.151   9.332  0.6529  0.3414  1.1153
   62CHL1   C18 7021   3.293   2.993   9.345  0.7688 -0.2264 -0.6061
   62CHL1  H18A 7022   3.269   2.951   9.445 -1.0704 -0.9649 -1.3233
   62CHL1  H18B 7023   3.219   2.954   9.272  0.6492 -0.7506 -0.2114
   62CHL1  H18C 7024   3.395   2.958   9.318  1.4332  0.1817  1.2404
   62CHL1   C12 7025   3.396   3.210   9.427  0.3613 -0.6402 -0.2102
   62CHL1  H12A 7026   3.496   3.176   9.392  0.0596  0.7250 -2.6917
   62CHL1  H12B 7027   3.407   3.321   9.423  4.6279 -0.7749  1.9738
   62CHL1   C11 7028   3.383   3.166   9.577 -0.5225 -0.4895  0.4390
   62CHL1  H11A 7029   3.411   3.060   9.595  1.2067  0.2621  2.6579
   62CHL1  H11B 7030   3.456   3.226   9.635 -0.3563 -1.0900  0.8533
   62CHL1    C9 7031   3.242   3.199   9.628  0.1969  0.9625  0.7344
   62CHL1    H9 7032   3.246   3.310   9.636 -1.4972  1.0478  0.7528
   62CHL1   C10 7033   3.223   3.153   9.776  0.1085  0.7660  0.3013
   62CHL1   C19 7034   3.231   3.002   9.794 -0.6114 -0.0110 -0.1337
   62CHL1  H19A 7035   3.331   2.963   9.767 -1.0566  0.3281 -2.4717
   62CHL1  H19B 7036   3.211   2.975   9.900 -0.1450  3.0606  0.8489
   62CHL1  H19C 7037   3.163   2.953   9.721 -0.9816 -0.5567  0.5738
   62CHL1    C1 7038   3.335   3.228   9.865  0.3400  0.4306 -0.1857
   62CHL1   H1A 7039   3.428   3.167   9.857  0.7492  0.9473  0.5984
   62CHL1   H1B 7040   3.348   3.330   9.823  0.2223  0.1164 -1.0030
   62CHL1    C2 7041   3.299   3.233  10.014 -0.1947  0.5854 -0.3541
   62CHL1   H2A 7042   3.364   3.293  10.082  1.2116  0.5165 -1.5885
   62CHL1   H2B 7043   3.303   3.126  10.045 -1.2975  0.0667 -1.9053
   62CHL1   C20 7044   3.367   3.132   9.084  0.1019 -0.3075  0.2262
   62CHL1   H20 7045   3.346   3.023   9.085  0.0794 -0.3101  1.7451
   62CHL1   C21 7046   3.516   3.154   9.123  0.7475  0.0929  0.1605
   62CHL1  H21A 7047   3.572   3.149   9.027 -0.3128  1.4651 -0.5698
   62CHL1  H21B 7048   3.540   3.068   9.189 -0.8435 -0.6335 -0.1576
   62CHL1  H21C 7049   3.529   3.252   9.174 -0.3783  1.1847 -1.5301
   62CHL1   C22 7050   3.341   3.179   8.938  0.2808 -0.3206  0.0496
   62CHL1  H22A 7051   3.411   3.121   8.874 -0.3103  1.7751 -2.6876
   62CHL1  H22B 7052   3.235   3.154   8.915  0.0386 -0.3844  1.2003
   62CHL1   C23 7053   3.367   3.326   8.917 -0.3503 -0.5378 -0.1585
   62CHL1  H23A 7054   3.306   3.394   8.980 -0.0916  3.9346 -4.1914
   62CHL1  H23B 7055   3.469   3.363   8.941 -0.7738 -0.8769  2.5024
   62CHL1   C24 7056   3.323   3.363   8.775  0.4280 -0.0336  0.0421
   62CHL1  H24A 7057   3.219   3.322   8.773  1.0505 -1.8281  1.7389
   62CHL1  H24B 7058   3.314   3.473   8.763 -0.2476 -0.1461 -0.5886
   62CHL1   C25 7059   3.396   3.309   8.643 -0.0155 -0.0519 -0.8674
   62CHL1   H25 7060   3.423   3.202   8.656  1.6805  0.4677  0.3004
   62CHL1   C26 7061   3.302   3.324   8.524 -0.3694 -0.2863 -0.4534
   62CHL1  H26A 7062   3.277   3.427   8.492 -0.7087  0.5700  2.3482
   62CHL1  H26B 7063   3.345   3.280   8.431  0.4946  1.8442 -1.1067
   62CHL1  H26C 7064   3.201   3.280   8.538 -0.2777 -0.6469 -0.8495
   62CHL1   C27 7065   3.530   3.380   8.620 -0.2450 -1.0880  0.6291
   62CHL1  H27A 7066   3.522   3.491   8.622  0.8319 -0.9750 -0.4760
   62CHL1  H27B 7067   3.589   3.354   8.711  0.9883 -2.1932 -0.4331
   62CHL1  H27C 7068   3.586   3.354   8.528  4.5564  2.5900  2.0926
   63CHL1    C3 7069   4.076   6.142  10.198 -0.9883 -0.5978  0.0320
   63CHL1    H3 7070   4.069   6.046  10.253 -0.3071 -0.3346  0.5780
   63CHL1    O3 7071   4.091   6.248  10.293  0.6827 -0.1905 -0.2577
   63CHL1   H3' 7072   4.184   6.269  10.304  1.0691 -1.3006 -1.2909
   63CHL1    C4 7073   4.187   6.135  10.091  0.6359 -0.3610 -0.6038
   63CHL1   H4A 7074   4.207   6.243  10.069  1.6146  0.3122  2.9134
   63CHL1   H4B 7075   4.278   6.108  10.149 -0.4107 -1.3724  0.6112
   63CHL1    C5 7076   4.165   6.054   9.968 -0.3803 -0.1411 -0.0868
   63CHL1    C6 7077   4.259   5.961   9.928 -0.0673  0.1442  0.3555
   63CHL1    H6 7078   4.353   5.960   9.984 -0.2121 -0.4892  0.5915
   63CHL1    C7 7079   4.234   5.858   9.822 -0.2330  0.6676 -0.4714
   63CHL1   H7A 7080   4.328   5.842   9.765 -0.8541  1.2845 -1.7105
   63CHL1   H7B 7081   4.208   5.763   9.875  0.9285  1.1963  1.1184
   63CHL1    C8 7082   4.118   5.898   9.734 -0.0049 -0.3145  0.4056
   63CHL1    H8 7083   4.151   5.989   9.679  0.1087 -0.7577 -0.2737
   63CHL1   C14 7084   4.076   5.782   9.636 -0.1329  0.5427  0.8045
   63CHL1   H14 7085   4.041   5.702   9.704 -1.5255  0.0389 -0.4733
   63CHL1   C15 7086   4.189   5.708   9.556 -0.1186  0.2027 -0.1492
   63CHL1  H15A 7087   4.260   5.786   9.523  0.2271 -0.1535 -0.2628
   63CHL1  H15B 7088   4.239   5.634   9.622  0.3858  0.3061 -0.4096
   63CHL1   C16 7089   4.113   5.642   9.438 -0.0580  0.4141 -0.3904
   63CHL1  H16A 7090   4.149   5.686   9.343 -0.2049  0.2594 -0.5177
   63CHL1  H16B 7091   4.131   5.533   9.449  1.4575  0.6686 -0.1464
   63CHL1   C17 7092   3.959   5.685   9.462 -0.5413  0.0993  0.4449
   63CHL1   H17 7093   3.918   5.602   9.522  1.0125 -0.0366  1.3825
   63CHL1   C13 7094   3.965   5.815   9.548 -0.9022  0.1399  0.8171
   63CHL1   C18 7095   4.008   5.937   9.467  0.2646 -0.7858  0.1780
   63CHL1  H18A 7096   3.933   5.964   9.390  0.1086  2.0058  1.2058
   63CHL1  H18B 7097   4.020   6.034   9.520  1.0888 -0.1399 -1.1481
   63CHL1  H18C 7098   4.103   5.922   9.411 -0.2089 -0.5215 -0.7138
   63CHL1   C12 7099   3.841   5.844   9.632 -0.3225 -0.1708  0.5431
   63CHL1  H12A 7100   3.751   5.862   9.570 -0.6924 -2.1509  0.4336
   63CHL1  H12B 7101   3.825   5.756   9.698  0.7431  1.7519  3.6344
   63CHL1   C11 7102   3.863   5.956   9.742 -0.7209 -0.4366 -0.2857
   63CHL1  H11A 7103   3.853   6.051   9.686 -0.3056 -0.5228 -0.5044
   63CHL1  H11B 7104   3.778   5.953   9.814 -1.2149  0.6333 -0.8073
   63CHL1    C9 7105   3.991   5.937   9.821 -0.2174 -0.2576  0.1125
   63CHL1    H9 7106   3.962   5.842   9.871 -3.3723  1.6432  2.2119
   63CHL1   C10 7107   4.022   6.057   9.916 -0.2923 -0.3602  0.1402
   63CHL1   C19 7108   4.022   6.185   9.829 -0.2885 -0.1436 -0.3525
   63CHL1  H19A 7109   4.094   6.175   9.744 -0.6976 -0.9603 -0.6062
   63CHL1  H19B 7110   3.920   6.195   9.786 -0.6292 -0.7257  0.3130
   63CHL1  H19C 7111   4.045   6.278   9.886  1.6454  1.2279 -3.0922
   63CHL1    C1 7112   3.908   6.069  10.023  0.2960 -0.3791  0.3046
   63CHL1   H1A 7113   3.812   6.097   9.975  0.6706  1.1694  0.4063
   63CHL1   H1B 7114   3.900   5.973  10.078  2.0541 -0.7956 -0.0888
   63CHL1    C2 7115   3.937   6.172  10.136 -0.6461 -0.1085  0.7235
   63CHL1   H2A 7116   3.855   6.184  10.211 -1.4530  1.9081 -0.3768
   63CHL1   H2B 7117   3.930   6.272  10.087 -0.9629  0.0106  1.0086
   63CHL1   C20 7118   3.883   5.699   9.331 -0.2253 -0.2778  0.0764
   63CHL1   H20 7119   3.891   5.789   9.266 -1.0795 -0.8339 -0.8487
   63CHL1   C21 7120   3.728   5.674   9.360  0.0266  0.5931 -0.2094
   63CHL1  H21A 7121   3.684   5.739   9.439  0.6226  2.3388 -1.2626
   63CHL1  H21B 7122   3.703   5.572   9.396 -2.4547  0.5290 -1.8618
   63CHL1  H21C 7123   3.659   5.684   9.274  0.0923 -1.0349 -0.4847
   63CHL1   C22 7124   3.915   5.569   9.239  0.2169 -0.0181 -0.3230
   63CHL1  H22A 7125   3.922   5.470   9.289 -0.6625  0.1403  0.1394
   63CHL1  H22B 7126   3.819   5.566   9.183  0.7172  1.1186 -1.2671
   63CHL1   C23 7127   4.012   5.593   9.124 -0.0592  0.4959  0.3522
   63CHL1  H23A 7128   3.965   5.664   9.053  0.2962  1.2051  0.8221
   63CHL1  H23B 7129   4.104   5.640   9.163 -0.0408 -0.6517  1.7727
   63CHL1   C24 7130   4.049   5.460   9.048  0.3719 -0.3673 -0.1830
   63CHL1  H24A 7131   4.103   5.389   9.113  1.4328  0.8023  0.2493
   63CHL1  H24B 7132   3.955   5.410   9.015 -0.5234  1.2219 -0.1697
   63CHL1   C25 7133   4.129   5.479   8.916 -0.2819 -0.0156  0.3236
   63CHL1   H25 7134   4.073   5.556   8.859 -0.1019 -0.5202 -0.5496
   63CHL1   C26 7135   4.274   5.548   8.922  0.5060  0.0087 -0.1916
   63CHL1  H26A 7136   4.337   5.467   8.964 -2.2333 -1.5585  1.1872
   63CHL1  H26B 7137   4.304   5.580   8.820  2.3595  0.1212  0.3635
   63CHL1  H26C 7138   4.273   5.632   8.994  0.8849  0.4049 -0.6409
   63CHL1   C27 7139   4.133   5.350   8.840 -0.1957  0.1914 -0.1732
   63CHL1  H27A 7140   4.036   5.297   8.845 -0.2181  0.0372 -1.7601
   63CHL1  H27B 7141   4.157   5.361   8.732 -1.2280 -0.1027 -0.4434
   63CHL1  H27C 7142   4.210   5.284   8.885 -1.0662  0.0417  1.1612
   64CHL1    C3 7143   3.869   4.008  10.053 -0.3941  0.2746  0.1419
   64CHL1    H3 7144   3.771   3.955  10.048  0.7906 -1.9274 -1.9290
   64CHL1    O3 7145   3.905   4.046  10.183  0.6990  0.4014 -0.4010
   64CHL1   H3' 7146   3.832   4.093  10.223  1.3671  0.8955  0.2700
   64CHL1    C4 7147   3.975   3.906   9.981  0.0856  1.1737 -0.0225
   64CHL1   H4A 7148   4.072   3.954  10.007  1.3790 -1.2018 -0.1886
   64CHL1   H4B 7149   3.971   3.803  10.022  1.9719  0.9261 -0.3482
   64CHL1    C5 7150   3.964   3.877   9.827  0.1446  0.2718  0.5973
   64CHL1    C6 7151   3.955   3.757   9.769  0.4531 -0.5868  0.3272
   64CHL1    H6 7152   3.960   3.665   9.829  0.3887 -1.2867 -0.7309
   64CHL1    C7 7153   3.941   3.734   9.623 -0.2254  0.2368 -0.0369
   64CHL1   H7A 7154   3.989   3.638   9.592 -1.0312 -0.4983  0.9138
   64CHL1   H7B 7155   3.833   3.713   9.607 -0.3216 -0.0996  0.9729
   64CHL1    C8 7156   3.977   3.862   9.542 -0.0335 -0.2595 -0.1633
   64CHL1    H8 7157   4.087   3.874   9.552 -0.4175  2.3155  2.0809
   64CHL1   C14 7158   3.936   3.849   9.396 -0.7526 -0.7790  0.2606
   64CHL1   H14 7159   3.825   3.848   9.401 -0.7347  0.4953  3.1749
   64CHL1   C15 7160   3.983   3.731   9.311  0.3909  0.3291  0.0932
   64CHL1  H15A 7161   4.090   3.723   9.340 -0.0236 -3.5835  1.0155
   64CHL1  H15B 7162   3.932   3.635   9.330 -1.5585  1.2703 -0.1074
   64CHL1   C16 7163   3.965   3.776   9.161  0.3142 -0.8165  0.1395
   64CHL1  H16A 7164   4.058   3.747   9.108  0.7610  1.2276 -0.3055
   64CHL1  H16B 7165   3.889   3.716   9.107 -3.3191  2.0700  1.6049
   64CHL1   C17 7166   3.923   3.931   9.164 -0.8446  0.0920 -0.3465
   64CHL1   H17 7167   3.815   3.908   9.158 -0.8255 -0.1793  0.3320
   64CHL1   C13 7168   3.967   3.973   9.310 -0.3781 -1.4197  0.3059
   64CHL1   C18 7169   4.112   4.018   9.293 -0.1975  0.3125 -0.2430
   64CHL1  H18A 7170   4.174   3.933   9.256  0.4144 -0.2516  1.9290
   64CHL1  H18B 7171   4.126   4.098   9.218 -1.4096  1.1986  0.4567
   64CHL1  H18C 7172   4.156   4.046   9.391 -2.0809  0.4326  0.6072
   64CHL1   C12 7173   3.883   4.092   9.360  0.8591  0.2854  0.1302
   64CHL1  H12A 7174   3.917   4.180   9.302 -2.3172  1.0523 -0.7472
   64CHL1  H12B 7175   3.776   4.066   9.345  0.3527 -0.6056  4.1199
   64CHL1   C11 7176   3.911   4.115   9.508 -0.5597  0.2813  0.1455
   64CHL1  H11A 7177   4.013   4.159   9.503 -1.0841  1.6973  1.1193
   64CHL1  H11B 7178   3.840   4.192   9.546 -0.2207 -0.3133  2.0770
   64CHL1    C9 7179   3.912   3.987   9.599  0.4308  1.0645  0.4469
   64CHL1    H9 7180   3.807   3.950   9.603  1.0566 -0.9354 -0.2787
   64CHL1   C10 7181   3.946   4.011   9.752  0.1690  0.6751  0.3783
   64CHL1   C19 7182   4.082   4.085   9.742 -0.0782  0.0963  0.2492
   64CHL1  H19A 7183   4.167   4.032   9.694  1.3164  1.2076  1.4083
   64CHL1  H19B 7184   4.074   4.187   9.699  1.2109  0.0439 -0.1653
   64CHL1  H19C 7185   4.119   4.117   9.841 -0.9370  0.9253  0.3140
   64CHL1    C1 7186   3.833   4.100   9.816  0.5050  0.1257 -0.6723
   64CHL1   H1A 7187   3.825   4.201   9.771  0.1065  0.4365  0.0675
   64CHL1   H1B 7188   3.730   4.060   9.803 -0.0223  0.3745  2.0688
   64CHL1    C2 7189   3.864   4.131   9.968  0.4897  0.6474  0.9145
   64CHL1   H2A 7190   3.795   4.208  10.008 -0.6526  1.3801 -2.1568
   64CHL1   H2B 7191   3.958   4.190   9.957 -0.7214  2.0836 -4.6719
   64CHL1   C20 7192   3.971   4.010   9.041 -0.1198 -0.3123 -0.4435
   64CHL1   H20 7193   3.986   4.118   9.062  2.7103 -0.7042 -0.1278
   64CHL1   C21 7194   3.857   4.005   8.941 -0.0124  0.0189  0.4433
   64CHL1  H21A 7195   3.779   4.078   8.972 -0.3959 -0.1840 -0.0384
   64CHL1  H21B 7196   3.808   3.905   8.937 -2.5748  1.2294 -0.9229
   64CHL1  H21C 7197   3.890   4.038   8.840 -0.1482  0.7492  0.6334
   64CHL1   C22 7198   4.110   3.963   8.979 -0.6527 -1.0016 -0.0201
   64CHL1  H22A 7199   4.185   3.930   9.054  0.5896 -2.5071 -1.8029
   64CHL1  H22B 7200   4.102   3.876   8.910  1.7727 -1.0790 -0.3205
   64CHL1   C23 7201   4.183   4.079   8.905 -0.4176 -0.4487 -0.5858
   64CHL1  H23A 7202   4.127   4.104   8.811 -0.4330  0.0249 -0.4543
   64CHL1  H23B 7203   4.175   4.162   8.978  0.3823 -0.6433 -0.2712
   64CHL1   C24 7204   4.331   4.042   8.875  0.7586  0.8562  0.6862
   64CHL1  H24A 7205   4.372   3.997   8.968  2.0240 -3.2133 -1.5567
   64CHL1  H24B 7206   4.334   3.961   8.799  1.1477  3.6090 -2.4503
   64CHL1   C25 7207   4.418   4.155   8.831  0.0210  0.9284  0.4875
   64CHL1   H25 7208   4.391   4.247   8.887 -0.9772 -0.0860  1.7248
   64CHL1   C26 7209   4.562   4.125   8.866  0.1003  0.4604 -0.0744
   64CHL1  H26A 7210   4.629   4.203   8.825  1.0316 -0.5677 -0.5572
   64CHL1  H26B 7211   4.578   4.109   8.974 -0.8384 -0.1121 -0.0073
   64CHL1  H26C 7212   4.585   4.028   8.817 -3.2017  1.0089 -3.1528
   64CHL1   C27 7213   4.408   4.180   8.681  0.4056  0.2197  0.3290
   64CHL1  H27A 7214   4.299   4.162   8.665  0.4693  1.6220 -2.0592
   64CHL1  H27B 7215   4.429   4.281   8.641 -0.9033 -0.6314 -2.8547
   64CHL1  H27C 7216   4.459   4.110   8.612  0.3616 -0.7944  1.2931
   65CHL1    C3 7217   0.193   0.932  10.258  0.1390 -0.0280  0.6139
   65CHL1    H3 7218   0.161   0.827  10.274 -0.2763 -0.0040 -0.0054
   65CHL1    O3 7219   0.226   0.969  10.393  0.0417 -0.1427  0.2658
   65CHL1   H3' 7220   0.153   1.009  10.442 -0.4848  0.0732 -0.6741
   65CHL1    C4 7221   0.316   0.942  10.157 -0.0179  0.3917 -0.2072
   65CHL1   H4A 7222   0.363   1.043  10.158  0.9690  0.0071 -2.1938
   65CHL1   H4B 7223   0.391   0.874  10.202 -0.9155 -0.6042 -0.1741
   65CHL1    C5 7224   0.263   0.907  10.013 -0.6846 -0.3168 -0.5979
   65CHL1    C6 7225   0.324   0.808   9.951 -0.2787  0.3056  0.8129
   65CHL1    H6 7226   0.408   0.760  10.004 -0.6703  1.5674  2.6615
   65CHL1    C7 7227   0.286   0.762   9.815  1.1465  0.2218 -0.0251
   65CHL1   H7A 7228   0.381   0.739   9.762  1.6053 -0.0805  0.9082
   65CHL1   H7B 7229   0.231   0.666   9.823  0.0245  0.7335 -1.1890
   65CHL1    C8 7230   0.189   0.860   9.739  0.6208 -0.4273 -1.2411
   65CHL1    H8 7231   0.251   0.946   9.708 -0.5127  2.5985  3.7954
   65CHL1   C14 7232   0.130   0.805   9.610 -0.3918  0.2616  0.9864
   65CHL1   H14 7233   0.060   0.725   9.643 -0.3948  1.1678  3.3684
   65CHL1   C15 7234   0.226   0.741   9.503 -0.7406 -0.0910  0.1612
   65CHL1  H15A 7235   0.308   0.815   9.491  0.8566 -2.0502 -1.8936
   65CHL1  H15B 7236   0.274   0.645   9.531  0.8782  0.7872  0.5241
   65CHL1   C16 7237   0.148   0.743   9.377  0.6957  0.0462  1.0678
   65CHL1  H16A 7238   0.209   0.792   9.298  0.2911  0.5943  1.0871
   65CHL1  H16B 7239   0.105   0.648   9.340  2.1220 -0.4672  0.6640
   65CHL1   C17 7240   0.013   0.823   9.397 -0.2147  0.5369  0.4336
   65CHL1   H17 7241  -0.052   0.739   9.430  1.7016 -1.8302 -1.3509
   65CHL1   C13 7242   0.039   0.908   9.523  0.7272  0.3639 -0.7525
   65CHL1   C18 7243   0.124   1.024   9.478 -0.0067 -0.0349 -0.1347
   65CHL1  H18A 7244   0.056   1.106   9.446 -0.2054 -0.4467 -0.7958
   65CHL1  H18B 7245   0.185   1.073   9.557 -1.1485  2.1589 -0.5377
   65CHL1  H18C 7246   0.201   1.002   9.401 -0.5723  0.3870 -0.8363
   65CHL1   C12 7247  -0.078   0.941   9.614  0.2303  0.2968  0.1330
   65CHL1  H12A 7248  -0.153   1.005   9.563  0.1539 -0.0138 -0.1515
   65CHL1  H12B 7249  -0.139   0.851   9.638 -0.4239  0.8545  0.6013
   65CHL1   C11 7250  -0.025   1.006   9.744 -1.1646 -0.3577 -0.9664
   65CHL1  H11A 7251   0.024   1.102   9.720 -1.6088 -0.1118 -0.9156
   65CHL1  H11B 7252  -0.114   1.032   9.805  0.8172  2.5953  0.8336
   65CHL1    C9 7253   0.078   0.915   9.826 -0.4162 -0.3556 -0.1566
   65CHL1    H9 7254   0.029   0.822   9.863  1.4134 -1.5581 -0.6198
   65CHL1   C10 7255   0.134   0.981   9.962 -0.2026  0.8048 -0.5464
   65CHL1   C19 7256   0.171   1.120   9.942 -0.2592  0.3929 -0.2428
   65CHL1  H19A 7257   0.076   1.176   9.932  0.1036  1.1175  0.2751
   65CHL1  H19B 7258   0.228   1.160  10.028  3.4231  1.3107 -2.8538
   65CHL1  H19C 7259   0.236   1.133   9.852  2.5311 -0.7624  1.4811
   65CHL1    C1 7260   0.022   0.976  10.074  0.6184  0.1295  0.5802
   65CHL1   H1A 7261  -0.058   1.046  10.041  0.1470 -1.1643 -1.1590
   65CHL1   H1B 7262  -0.021   0.874  10.063 -1.8033  1.1555 -0.0167
   65CHL1    C2 7263   0.064   1.011  10.217  0.2232  0.7948 -0.3817
   65CHL1   H2A 7264  -0.012   0.990  10.295  0.7500  0.7882  0.1363
   65CHL1   H2B 7265   0.086   1.120  10.222  2.4322  0.3283  1.2471
   65CHL1   C20 7266  -0.039   0.887   9.272  0.9058 -0.9267  0.1004
   65CHL1   H20 7267   0.032   0.964   9.235 -1.4679  1.5309  0.3337
   65CHL1   C21 7268  -0.172   0.956   9.299 -0.5006  0.5434  0.9782
   65CHL1  H21A 7269  -0.256   0.886   9.321  0.0396 -0.1652  0.8073
   65CHL1  H21B 7270  -0.195   1.000   9.200  0.5677 -0.5027  0.2441
   65CHL1  H21C 7271  -0.163   1.028   9.383 -3.2172  0.2622  1.6176
   65CHL1   C22 7272  -0.048   0.796   9.143  0.7107  0.1096  0.5334
   65CHL1  H22A 7273  -0.057   0.866   9.058  1.1977  1.0226  1.2079
   65CHL1  H22B 7274   0.048   0.745   9.117 -1.3554 -3.6300 -0.5268
   65CHL1   C23 7275  -0.157   0.686   9.137  0.5488  0.2459  0.2679
   65CHL1  H23A 7276  -0.128   0.598   9.197 -2.1714  0.3135  1.8258
   65CHL1  H23B 7277  -0.259   0.720   9.165  1.0082  1.7223  0.2550
   65CHL1   C24 7278  -0.167   0.642   8.987  0.0225 -0.2318 -0.0117
   65CHL1  H24A 7279  -0.214   0.713   8.916 -0.3293 -1.0551 -0.6232
   65CHL1  H24B 7280  -0.060   0.634   8.956 -0.4338  0.6336 -1.9355
   65CHL1   C25 7281  -0.238   0.510   8.950  1.1696 -0.4688 -0.3480
   65CHL1   H25 7282  -0.226   0.447   9.041  1.7592 -0.9322 -0.7419
   65CHL1   C26 7283  -0.390   0.536   8.917 -0.0073  0.6843 -0.6225
   65CHL1  H26A 7284  -0.430   0.596   9.001  1.9876  0.7804  0.3217
   65CHL1  H26B 7285  -0.394   0.597   8.824 -0.1602  0.0492 -1.0465
   65CHL1  H26C 7286  -0.440   0.438   8.900  0.3902  0.4423 -0.4295
   65CHL1   C27 7287  -0.164   0.438   8.841 -0.8914  0.1544  0.0613
   65CHL1  H27A 7288  -0.057   0.418   8.861 -0.3387  1.2436 -1.5924
   65CHL1  H27B 7289  -0.209   0.339   8.818  1.9965 -0.9033 -1.5883
   65CHL1  H27C 7290  -0.165   0.500   8.749 -0.8976 -0.1028 -0.1128
   66CHL1    C3 7291   3.590   0.130  10.576 -0.0425  0.0684  0.0249
   66CHL1    H3 7292   3.650   0.037  10.569  0.3394  0.3512 -0.4993
   66CHL1    O3 7293   3.539   0.141  10.707 -0.9385  0.3255 -0.0916
   66CHL1   H3' 7294   3.614   0.137  10.767 -2.3015 -2.3854  1.6537
   66CHL1    C4 7295   3.680   0.253  10.546  0.4267  0.3652  0.0575
   66CHL1   H4A 7296   3.614   0.341  10.559 -0.0865  0.1045 -0.7036
   66CHL1   H4B 7297   3.756   0.269  10.625  1.9063  0.9079 -1.4411
   66CHL1    C5 7298   3.734   0.245  10.402 -0.6450 -0.2533  0.0206
   66CHL1    C6 7299   3.867   0.239  10.382  0.0151 -1.4622  1.2390
   66CHL1    H6 7300   3.948   0.253  10.456  0.3216  0.9642  0.5040
   66CHL1    C7 7301   3.924   0.212  10.248  0.4513  0.2404 -0.0040
   66CHL1   H7A 7302   4.018   0.269  10.232  2.6071 -2.1184  3.1912
   66CHL1   H7B 7303   3.948   0.104  10.243  1.6689  0.3691  2.1100
   66CHL1    C8 7304   3.827   0.244  10.133  0.0457 -0.2381  0.2096
   66CHL1    H8 7305   3.814   0.354  10.129  3.7784  0.5786  3.8957
   66CHL1   C14 7306   3.873   0.188   9.996 -0.0027 -0.1438  0.2185
   66CHL1   H14 7307   3.873   0.078  10.012  0.9929 -0.1708  0.0840
   66CHL1   C15 7308   4.024   0.203   9.956  0.1640  0.5544  0.3006
   66CHL1  H15A 7309   4.056   0.308   9.975  3.2042 -0.1234 -0.6039
   66CHL1  H15B 7310   4.084   0.128  10.011  0.9242  0.8230 -0.1471
   66CHL1   C16 7311   4.026   0.183   9.801  0.1188  0.1574  0.0435
   66CHL1  H16A 7312   4.050   0.277   9.746 -0.7596 -0.8290 -2.1053
   66CHL1  H16B 7313   4.097   0.100   9.782  1.0219  0.5956  1.3127
   66CHL1   C17 7314   3.875   0.140   9.761  0.8102 -0.2594 -0.2385
   66CHL1   H17 7315   3.870   0.032   9.784 -1.2007 -0.1770 -0.1858
   66CHL1   C13 7316   3.790   0.218   9.866  0.8323 -0.1269 -0.4693
   66CHL1   C18 7317   3.793   0.373   9.841  0.1038 -0.4938 -0.0066
   66CHL1  H18A 7318   3.742   0.389   9.743 -1.8641 -0.0831  1.0277
   66CHL1  H18B 7319   3.733   0.428   9.916  0.8430 -0.3230  0.4658
   66CHL1  H18C 7320   3.894   0.418   9.832  0.1093  0.0402  2.2201
   66CHL1   C12 7321   3.654   0.149   9.892 -0.2064  0.9189 -0.3124
   66CHL1  H12A 7322   3.573   0.174   9.821 -2.4168 -1.5721  1.1580
   66CHL1  H12B 7323   3.668   0.039   9.895  1.2281  1.0950  1.0715
   66CHL1   C11 7324   3.599   0.193  10.025 -0.2962 -0.4770 -0.6219
   66CHL1  H11A 7325   3.572   0.300  10.010  0.2576 -0.1670  0.4910
   66CHL1  H11B 7326   3.511   0.131  10.048  0.1329 -0.8293  0.0895
   66CHL1    C9 7327   3.692   0.176  10.150  0.3647 -0.4438 -1.0849
   66CHL1    H9 7328   3.705   0.066  10.147 -1.0276 -0.6132 -1.2906
   66CHL1   C10 7329   3.630   0.223  10.287 -0.7366  0.0718 -0.0257
   66CHL1   C19 7330   3.562   0.360  10.267 -0.3220  0.3946  0.2400
   66CHL1  H19A 7331   3.626   0.430  10.210  1.6750 -0.1579  1.6914
   66CHL1  H19B 7332   3.475   0.335  10.203 -0.4920  0.3603  0.4836
   66CHL1  H19C 7333   3.509   0.391  10.359  1.8530  0.0135  1.6840
   66CHL1    C1 7334   3.527   0.114  10.325 -0.3719  0.0003 -0.3714
   66CHL1   H1A 7335   3.445   0.105  10.251  0.5104  0.4342 -1.4413
   66CHL1   H1B 7336   3.581   0.017  10.315  2.3461  1.5740 -2.8492
   66CHL1    C2 7337   3.471   0.121  10.474 -0.3632 -0.8991  0.6401
   66CHL1   H2A 7338   3.398   0.042  10.500 -0.9543 -1.0601 -1.3696
   66CHL1   H2B 7339   3.420   0.219  10.488 -0.3059 -0.9669  1.3438
   66CHL1   C20 7340   3.845   0.160   9.615  0.1397  0.2622  0.2007
   66CHL1   H20 7341   3.852   0.269   9.595  1.0104  0.0130 -0.8938
   66CHL1   C21 7342   3.701   0.117   9.585  0.3284  0.0145 -0.3681
   66CHL1  H21A 7343   3.691   0.018   9.634  0.6218 -0.0400 -0.4166
   66CHL1  H21B 7344   3.684   0.103   9.476 -2.6825  2.6700 -0.3921
   66CHL1  H21C 7345   3.624   0.191   9.616 -0.0483 -0.6258  0.2471
   66CHL1   C22 7346   3.958   0.090   9.532 -0.2179  0.4167 -0.4360
   66CHL1  H22A 7347   4.056   0.138   9.554 -0.5153  1.6724 -1.7149
   66CHL1  H22B 7348   3.958  -0.016   9.565  0.6018  1.1934  2.3344
   66CHL1   C23 7349   3.948   0.099   9.380  0.2789  0.2102  0.5558
   66CHL1  H23A 7350   4.036   0.051   9.332  0.5753  0.9208  0.3763
   66CHL1  H23B 7351   3.857   0.037   9.363  2.6514 -2.8333 -2.2638
   66CHL1   C24 7352   3.933   0.237   9.326 -0.0336  0.1861 -0.0465
   66CHL1  H24A 7353   3.839   0.292   9.350 -0.4966  0.3029 -1.9679
   66CHL1  H24B 7354   4.024   0.291   9.360  0.5349 -0.7292 -0.0878
   66CHL1   C25 7355   3.925   0.254   9.175 -0.5772 -0.0194 -0.5882
   66CHL1   H25 7356   4.005   0.198   9.122 -0.1446  1.7281 -1.8690
   66CHL1   C26 7357   3.793   0.213   9.121 -0.0827 -0.4450  0.4221
   66CHL1  H26A 7358   3.707   0.282   9.134  0.8990  1.1938 -1.2632
   66CHL1  H26B 7359   3.789   0.195   9.011 -2.4652  0.0647  0.3690
   66CHL1  H26C 7360   3.757   0.115   9.159 -0.2199 -0.3540  0.5288
   66CHL1   C27 7361   3.949   0.405   9.146 -0.6315  1.0151  0.0403
   66CHL1  H27A 7362   3.938   0.421   9.037  2.5919  2.8175 -0.1539
   66CHL1  H27B 7363   3.873   0.468   9.197 -1.5158  1.8343 -2.1483
   66CHL1  H27C 7364   4.053   0.425   9.179 -0.6475  1.1741 -0.0068
   67CHL1    C3 7365   1.309   5.926  10.383  0.2111  0.4811 -0.5724
   67CHL1    H3 7366   1.200   5.914  10.365  0.3044 -4.0117  0.6800
   67CHL1    O3 7367   1.336   5.947  10.520 -0.2676  0.7105 -0.0048
   67CHL1   H3' 7368   1.322   5.861  10.559  2.0588  0.7521  1.0491
   67CHL1    C4 7369   1.380   5.802  10.334  0.4767 -0.1889 -0.1478
   67CHL1   H4A 7370   1.485   5.828  10.356 -0.2634  2.7931  0.2611
   67CHL1   H4B 7371   1.356   5.713  10.396  0.6980  0.2535  0.5865
   67CHL1    C5 7372   1.346   5.788  10.178  0.4734  0.5585 -0.3529
   67CHL1    C6 7373   1.282   5.677  10.131 -0.7548  0.1285 -0.6266
   67CHL1    H6 7374   1.253   5.595  10.198 -0.0431 -0.4120 -0.9648
   67CHL1    C7 7375   1.248   5.672   9.990 -0.1893  0.1881 -0.4559
   67CHL1   H7A 7376   1.248   5.565   9.959 -0.3792  0.2205 -0.5676
   67CHL1   H7B 7377   1.145   5.714   9.982 -0.6576 -0.4024  1.7918
   67CHL1    C8 7378   1.329   5.759   9.899 -0.2550 -1.1996 -0.3045
   67CHL1    H8 7379   1.433   5.719   9.900 -0.3480 -1.4340  0.3169
   67CHL1   C14 7380   1.282   5.754   9.756  0.3949  0.0962 -0.1027
   67CHL1   H14 7381   1.174   5.778   9.757  0.5402  0.7731  0.4158
   67CHL1   C15 7382   1.301   5.618   9.691 -0.0611  0.7452 -0.4776
   67CHL1  H15A 7383   1.401   5.576   9.714 -0.5288  0.1510  0.5249
   67CHL1  H15B 7384   1.225   5.547   9.729  0.9676 -1.0623 -1.6697
   67CHL1   C16 7385   1.282   5.645   9.544 -0.5401 -0.1138  0.0141
   67CHL1  H16A 7386   1.373   5.601   9.497 -0.2554  0.9292 -0.4442
   67CHL1  H16B 7387   1.184   5.596   9.527 -0.7822 -1.0470  3.2832
   67CHL1   C17 7388   1.275   5.798   9.523 -0.2516  0.2821 -0.9554
   67CHL1   H17 7389   1.167   5.822   9.532 -0.1403  0.6221 -0.4816
   67CHL1   C13 7390   1.342   5.851   9.657 -0.2806 -0.7252 -0.0355
   67CHL1   C18 7391   1.493   5.822   9.640 -0.3037  0.5434  0.4481
   67CHL1  H18A 7392   1.539   5.873   9.553 -0.1039 -0.8718 -0.3129
   67CHL1  H18B 7393   1.556   5.845   9.729  0.7932 -0.9115  0.0896
   67CHL1  H18C 7394   1.517   5.716   9.615 -2.6086  0.0135  0.2858
   67CHL1   C12 7395   1.319   5.997   9.711  0.3285  0.2071 -0.3106
   67CHL1  H12A 7396   1.353   6.080   9.646  1.8917 -1.2958 -1.5127
   67CHL1  H12B 7397   1.212   6.008   9.738  0.2676 -1.0745  0.0304
   67CHL1   C11 7398   1.378   6.011   9.857 -0.4141  0.2273  0.6799
   67CHL1  H11A 7399   1.488   5.996   9.847 -0.4139  0.9590 -0.5774
   67CHL1  H11B 7400   1.350   6.114   9.888 -0.4861  0.9078 -1.5125
   67CHL1    C9 7401   1.321   5.905   9.953 -0.5757  0.7808 -0.3195
   67CHL1    H9 7402   1.212   5.926   9.957 -2.0445 -5.2676  0.0125
   67CHL1   C10 7403   1.385   5.915  10.094 -0.3139  0.6305 -0.1376
   67CHL1   C19 7404   1.539   5.900  10.078 -0.2926 -0.3801  0.3135
   67CHL1  H19A 7405   1.589   5.853  10.165 -0.4718 -1.8905 -0.3629
   67CHL1  H19B 7406   1.556   5.827   9.996  3.1748  0.9396 -0.3296
   67CHL1  H19C 7407   1.590   5.995  10.051 -0.6853  0.2183  1.6346
   67CHL1    C1 7408   1.336   6.043  10.163  0.1232  0.3275  0.2386
   67CHL1   H1A 7409   1.371   6.130  10.104  1.1429 -2.7622 -4.1576
   67CHL1   H1B 7410   1.228   6.042  10.136  0.4112 -2.3246 -1.0593
   67CHL1    C2 7411   1.354   6.051  10.310  0.2358 -0.5835 -0.1232
   67CHL1   H2A 7412   1.296   6.142  10.337  1.1075 -0.8069  2.8308
   67CHL1   H2B 7413   1.461   6.075  10.329  0.4148 -1.2406 -0.2817
   67CHL1   C20 7414   1.320   5.840   9.385 -0.2078 -0.8260  0.1893
   67CHL1   H20 7415   1.426   5.807   9.372 -0.3174 -0.5944 -1.5149
   67CHL1   C21 7416   1.313   5.993   9.365 -0.2682 -0.4162 -0.1113
   67CHL1  H21A 7417   1.388   6.040   9.433  0.3748 -0.1012 -1.0118
   67CHL1  H21B 7418   1.212   6.032   9.390 -0.3519 -1.4817  1.3662
   67CHL1  H21C 7419   1.349   6.013   9.262 -0.6861 -2.8134 -0.7748
   67CHL1   C22 7420   1.239   5.767   9.286  0.2666 -0.2711 -0.0761
   67CHL1  H22A 7421   1.233   5.659   9.307  1.9766 -0.6467 -1.3180
   67CHL1  H22B 7422   1.135   5.804   9.273 -0.0453 -0.5786  1.4577
   67CHL1   C23 7423   1.286   5.760   9.143 -0.3163  0.5736  0.0637
   67CHL1  H23A 7424   1.295   5.864   9.105 -0.1403  0.5812  0.1247
   67CHL1  H23B 7425   1.383   5.705   9.142 -1.4308 -1.5529  1.9832
   67CHL1   C24 7426   1.185   5.688   9.048 -0.0068 -0.1133  0.5835
   67CHL1  H24A 7427   1.149   5.591   9.090 -1.1961 -0.7256 -1.6993
   67CHL1  H24B 7428   1.096   5.754   9.039  0.4482  0.2618 -1.6638
   67CHL1   C25 7429   1.228   5.683   8.899  0.1274  1.4133  0.4628
   67CHL1   H25 7430   1.213   5.782   8.851  0.0022  0.7661 -0.8840
   67CHL1   C26 7431   1.373   5.639   8.872  0.1055 -0.2164 -0.3815
   67CHL1  H26A 7432   1.406   5.658   8.768 -0.6237 -1.0369 -0.7684
   67CHL1  H26B 7433   1.442   5.709   8.925  0.6827  0.5520 -2.0904
   67CHL1  H26C 7434   1.396   5.533   8.893 -1.2310 -0.4739 -0.1563
   67CHL1   C27 7435   1.139   5.587   8.812 -0.1123  0.0280 -0.1482
   67CHL1  H27A 7436   1.034   5.623   8.804  0.1275  0.4921 -1.3445
   67CHL1  H27B 7437   1.180   5.594   8.709  0.2550 -0.3937 -0.0366
   67CHL1  H27C 7438   1.133   5.485   8.855  0.8678 -0.5110 -1.2621
   68CHL1    C3 7439   0.466   0.432  10.305  0.1496  0.4160 -0.2149
   68CHL1    H3 7440   0.490   0.537  10.278 -1.1692  0.4986 -1.1450
   68CHL1    O3 7441   0.547   0.402  10.418 -0.1636 -0.1084  0.7953
   68CHL1   H3' 7442   0.618   0.349  10.381 -0.5449 -1.6275  2.0883
   68CHL1    C4 7443   0.315   0.414  10.351 -0.4078 -0.2580  0.0413
   68CHL1   H4A 7444   0.311   0.325  10.417  0.6968 -1.8995 -1.9845
   68CHL1   H4B 7445   0.295   0.500  10.417  1.8398  2.6019 -2.6453
   68CHL1    C5 7446   0.224   0.403  10.236 -0.1832 -0.1696 -0.6999
   68CHL1    C6 7447   0.108   0.471  10.248 -0.2954 -0.8372 -0.1376
   68CHL1    H6 7448   0.081   0.534  10.334 -0.1122 -0.2605 -0.4950
   68CHL1    C7 7449   0.008   0.489  10.134 -0.4633 -0.3086 -1.1178
   68CHL1   H7A 7450  -0.095   0.482  10.175  0.4037 -3.1567  0.8366
   68CHL1   H7B 7451   0.031   0.591  10.096  1.4171  0.4607  1.8146
   68CHL1    C8 7452   0.028   0.384  10.022 -0.4769 -0.0150  0.8085
   68CHL1    H8 7453  -0.012   0.289  10.061  1.8122 -1.5293 -0.3150
   68CHL1   C14 7454  -0.063   0.420   9.906  0.1106 -0.0292  0.8456
   68CHL1   H14 7455  -0.020   0.519   9.880  1.0907 -0.0820  2.1842
   68CHL1   C15 7456  -0.214   0.445   9.911 -0.2188 -0.1002  0.1594
   68CHL1  H15A 7457  -0.260   0.365   9.973 -1.2026  0.6570  0.4333
   68CHL1  H15B 7458  -0.245   0.541   9.956 -1.6088 -1.3035  1.8756
   68CHL1   C16 7459  -0.271   0.427   9.769 -0.2213 -0.2581  1.2905
   68CHL1  H16A 7460  -0.329   0.333   9.766 -0.5714 -0.0145 -1.2872
   68CHL1  H16B 7461  -0.333   0.513   9.735  2.0215  0.8851 -0.1387
   68CHL1   C17 7462  -0.142   0.386   9.682  0.5785  0.4607  0.1780
   68CHL1   H17 7463  -0.103   0.486   9.651 -0.8218  0.2594 -2.5490
   68CHL1   C13 7464  -0.042   0.325   9.787  0.2072  0.0362  0.1471
   68CHL1   C18 7465  -0.096   0.179   9.825 -0.2244  0.4182 -0.2692
   68CHL1  H18A 7466  -0.032   0.137   9.905  0.3262  0.5752 -0.6270
   68CHL1  H18B 7467  -0.203   0.182   9.856 -0.0840 -1.1218  0.4556
   68CHL1  H18C 7468  -0.092   0.123   9.729 -0.7399  0.5476 -0.3747
   68CHL1   C12 7469   0.098   0.323   9.732 -0.6327 -0.1767  0.2380
   68CHL1  H12A 7470   0.101   0.253   9.646  1.2225  2.0304 -1.6545
   68CHL1  H12B 7471   0.138   0.416   9.686  1.6453 -1.8390 -1.3781
   68CHL1   C11 7472   0.190   0.284   9.852  0.4553 -0.1572 -0.2190
   68CHL1  H11A 7473   0.170   0.177   9.874  0.3113 -0.6860 -2.6865
   68CHL1  H11B 7474   0.291   0.300   9.809 -0.0759  0.3720 -1.3055
   68CHL1    C9 7475   0.172   0.366   9.977 -0.3840 -0.4214 -0.4849
   68CHL1    H9 7476   0.208   0.468   9.950  0.1092 -1.1018 -2.6128
   68CHL1   C10 7477   0.262   0.325  10.103  0.3583 -1.2538 -0.1537
   68CHL1   C19 7478   0.244   0.173  10.127  0.0209 -0.4042 -0.3242
   68CHL1  H19A 7479   0.135   0.167  10.145 -0.0704  3.7385  1.4781
   68CHL1  H19B 7480   0.276   0.103  10.046  1.7943  0.5328 -0.4918
   68CHL1  H19C 7481   0.300   0.148  10.220 -0.6304 -0.3265  0.0862
   68CHL1    C1 7482   0.407   0.356  10.071 -0.4069 -0.5188 -0.5141
   68CHL1   H1A 7483   0.442   0.286   9.993 -0.6382 -0.0419 -1.0556
   68CHL1   H1B 7484   0.413   0.463  10.043 -0.5023  0.1871  1.9063
   68CHL1    C2 7485   0.501   0.333  10.188 -0.0032 -0.3834 -0.3651
   68CHL1   H2A 7486   0.607   0.349  10.161  0.0584  3.8649  1.6666
   68CHL1   H2B 7487   0.487   0.227  10.219 -0.9493 -0.0245  0.4853
   68CHL1   C20 7488  -0.164   0.322   9.545  0.7300 -0.0441 -0.6177
   68CHL1   H20 7489  -0.122   0.219   9.545 -1.6426 -1.0917  0.5845
   68CHL1   C21 7490  -0.090   0.406   9.440 -0.3008 -0.7859  0.2604
   68CHL1  H21A 7491  -0.125   0.368   9.341 -0.4871  1.6784 -0.6894
   68CHL1  H21B 7492   0.019   0.395   9.454 -0.3921 -0.7918  1.0277
   68CHL1  H21C 7493  -0.123   0.512   9.434 -1.0785 -1.0996 -2.5610
   68CHL1   C22 7494  -0.311   0.304   9.505  0.5518 -0.7483 -0.1439
   68CHL1  H22A 7495  -0.370   0.259   9.587 -2.6566 -0.4089 -2.1096
   68CHL1  H22B 7496  -0.353   0.406   9.495  0.2108 -1.0898 -3.0036
   68CHL1   C23 7497  -0.334   0.216   9.380  0.1177 -0.5019  0.6222
   68CHL1  H23A 7498  -0.281   0.250   9.288 -0.0205  1.2321  1.1588
   68CHL1  H23B 7499  -0.305   0.110   9.395  0.4962 -0.4978 -0.0366
   68CHL1   C24 7500  -0.489   0.217   9.350  0.3351  0.5465 -0.0127
   68CHL1  H24A 7501  -0.529   0.160   9.436 -0.8101  0.3765 -0.6360
   68CHL1  H24B 7502  -0.533   0.319   9.357  0.1581  0.5188 -0.6236
   68CHL1   C25 7503  -0.529   0.149   9.223 -0.3372  0.1474 -0.3567
   68CHL1   H25 7504  -0.498   0.219   9.142 -1.0078 -1.6334 -2.2315
   68CHL1   C26 7505  -0.465   0.009   9.199 -0.9210 -0.1142  1.0419
   68CHL1  H26A 7506  -0.355   0.001   9.207 -0.5495  2.7506 -0.1165
   68CHL1  H26B 7507  -0.506  -0.064   9.272  0.1658 -0.3941  1.3893
   68CHL1  H26C 7508  -0.490  -0.029   9.097  1.2960  0.1880  0.3267
   68CHL1   C27 7509  -0.687   0.145   9.215  0.3578 -0.1036 -0.2061
   68CHL1  H27A 7510  -0.719   0.122   9.111  0.8013 -1.2012 -0.1157
   68CHL1  H27B 7511  -0.715   0.056   9.275  0.1761 -0.2683 -0.5307
   68CHL1  H27C 7512  -0.724   0.246   9.240 -1.2760 -0.6902 -0.1774
   69CHL1    C3 7513   0.472   3.671   6.802  0.0415  0.0506  0.6111
   69CHL1    H3 7514   0.391   3.605   6.840 -2.7853  2.8419 -0.1447
   69CHL1    O3 7515   0.458   3.661   6.662  0.0465  1.1049  0.5809
   69CHL1   H3' 7516   0.541   3.704   6.640  0.8059  1.0695  3.0665
   69CHL1    C4 7517   0.457   3.818   6.848  0.7650  0.1508  0.6560
   69CHL1   H4A 7518   0.524   3.877   6.781  0.3956  0.7020  0.7648
   69CHL1   H4B 7519   0.360   3.862   6.818  1.0010  1.0860  1.2292
   69CHL1    C5 7520   0.482   3.822   6.995 -0.1552  0.2585 -0.0829
   69CHL1    C6 7521   0.394   3.869   7.087 -0.6992 -0.3979 -0.2076
   69CHL1    H6 7522   0.298   3.909   7.052 -2.0735 -0.8360  2.7275
   69CHL1    C7 7523   0.426   3.884   7.238  0.0618 -0.7930  0.3630
   69CHL1   H7A 7524   0.392   3.986   7.265 -3.5778 -0.9301 -2.8081
   69CHL1   H7B 7525   0.369   3.798   7.281  2.5402 -2.1992  1.0331
   69CHL1    C8 7526   0.576   3.876   7.275  0.0516 -0.4285  0.1209
   69CHL1    H8 7527   0.628   3.971   7.251 -2.4744  1.4249  1.4503
   69CHL1   C14 7528   0.588   3.845   7.422  0.0808  0.4013  0.2341
   69CHL1   H14 7529   0.531   3.750   7.430 -1.5966  1.3014 -0.3827
   69CHL1   C15 7530   0.517   3.932   7.526 -0.0268 -0.2440  0.4616
   69CHL1  H15A 7531   0.525   4.041   7.505 -0.7452 -0.0637  1.0701
   69CHL1  H15B 7532   0.414   3.890   7.538 -0.0493 -0.3631 -0.1447
   69CHL1   C16 7533   0.592   3.897   7.657 -0.6900  0.0255  0.7532
   69CHL1  H16A 7534   0.637   3.994   7.687 -0.4428  0.6003 -1.3312
   69CHL1  H16B 7535   0.524   3.853   7.733 -4.0019 -2.4630 -3.1860
   69CHL1   C17 7536   0.691   3.781   7.621  0.7176  0.0946 -0.4158
   69CHL1   H17 7537   0.631   3.688   7.617  0.7715  0.0923 -1.4339
   69CHL1   C13 7538   0.726   3.798   7.474  0.4786 -0.6972  0.1612
   69CHL1   C18 7539   0.819   3.921   7.467  0.2423 -0.5856 -0.5904
   69CHL1  H18A 7540   0.797   4.000   7.542 -0.2649 -0.4901 -0.8327
   69CHL1  H18B 7541   0.923   3.883   7.475  0.4871  0.3971  1.6303
   69CHL1  H18C 7542   0.811   3.979   7.373 -1.6027  1.1999  0.5828
   69CHL1   C12 7543   0.781   3.684   7.382 -0.4063 -0.1521 -0.2617
   69CHL1  H12A 7544   0.888   3.657   7.397 -0.8279 -1.9909 -0.3457
   69CHL1  H12B 7545   0.722   3.591   7.398  1.3376 -1.8001 -2.6633
   69CHL1   C11 7546   0.779   3.722   7.234  0.6795  0.2678 -0.7533
   69CHL1  H11A 7547   0.852   3.804   7.216  1.0356  0.2405  0.5112
   69CHL1  H11B 7548   0.816   3.627   7.189 -0.2620 -0.1328 -0.7153
   69CHL1    C9 7549   0.641   3.765   7.192  0.2021 -0.4339 -0.9820
   69CHL1    H9 7550   0.573   3.681   7.216  0.4681 -0.0021  1.5610
   69CHL1   C10 7551   0.619   3.766   7.043  1.3237 -0.5110  0.8601
   69CHL1   C19 7552   0.734   3.845   6.976  0.4807 -0.8108 -0.1946
   69CHL1  H19A 7553   0.834   3.800   6.996  0.3988 -0.4619  1.0722
   69CHL1  H19B 7554   0.720   3.842   6.866  0.6117 -0.9009 -0.2098
   69CHL1  H19C 7555   0.735   3.951   7.008  1.4026 -1.1546  1.0073
   69CHL1    C1 7556   0.635   3.622   6.986  0.2630 -0.0265 -0.3435
   69CHL1   H1A 7557   0.740   3.595   7.012  0.2621  1.3204  1.1426
   69CHL1   H1B 7558   0.562   3.553   7.033  1.2411 -0.8133  0.0739
   69CHL1    C2 7559   0.607   3.614   6.835  0.1737  0.1302  0.8261
   69CHL1   H2A 7560   0.599   3.507   6.806 -0.5202  1.0557 -2.7576
   69CHL1   H2B 7561   0.696   3.652   6.781  0.0470  0.1694  0.6475
   69CHL1   C20 7562   0.804   3.744   7.726  0.5063  0.5533  0.6836
   69CHL1   H20 7563   0.857   3.841   7.719  1.1091  0.0962 -1.6037
   69CHL1   C21 7564   0.900   3.630   7.689  0.3974  1.0150  0.2087
   69CHL1  H21A 7565   0.982   3.608   7.761 -1.7197 -0.2912  2.4019
   69CHL1  H21B 7566   0.951   3.635   7.591 -2.1452  0.3743 -1.2271
   69CHL1  H21C 7567   0.836   3.539   7.695  1.8415  0.0168  1.2841
   69CHL1   C22 7568   0.747   3.736   7.870 -0.8624 -0.6316 -0.1987
   69CHL1  H22A 7569   0.708   3.834   7.907  1.2744 -0.1197  0.8309
   69CHL1  H22B 7570   0.659   3.668   7.876 -0.3077 -1.2639  1.2038
   69CHL1   C23 7571   0.850   3.704   7.983  0.3458 -0.4736  0.0349
   69CHL1  H23A 7572   0.802   3.708   8.083 -0.7739 -0.6360 -0.4806
   69CHL1  H23B 7573   0.878   3.598   7.964 -1.4744 -1.3333  1.8068
   69CHL1   C24 7574   0.969   3.800   7.993 -0.2748  0.3584 -0.0669
   69CHL1  H24A 7575   1.026   3.800   7.897 -1.5699  2.1795 -0.8973
   69CHL1  H24B 7576   0.949   3.907   8.015  1.0061  1.0488 -1.9328
   69CHL1   C25 7577   1.070   3.752   8.106  0.8773 -0.3659 -0.1997
   69CHL1   H25 7578   1.089   3.645   8.083 -2.4604 -0.5462 -2.9527
   69CHL1   C26 7579   1.201   3.831   8.087 -0.5952  0.1536 -0.1888
   69CHL1  H26A 7580   1.249   3.802   7.991 -0.1832  1.1005 -0.2755
   69CHL1  H26B 7581   1.202   3.940   8.105  0.5208  0.1195  0.0398
   69CHL1  H26C 7582   1.268   3.781   8.161 -1.0852  0.4585  0.4715
   69CHL1   C27 7583   1.015   3.781   8.250 -0.3531  0.3747  0.4763
   69CHL1  H27A 7584   1.093   3.756   8.325  1.6740  1.2519 -1.2531
   69CHL1  H27B 7585   1.015   3.890   8.266 -0.6435  0.2776  1.1690
   69CHL1  H27C 7586   0.919   3.727   8.266  0.3996 -1.2404 -0.1386
   70CHL1    C3 7587   5.395   1.875   7.082 -0.3012 -0.0462  0.2559
   70CHL1    H3 7588   5.289   1.857   7.109 -0.9944  0.1680 -2.1081
   70CHL1    O3 7589   5.401   1.871   6.937 -0.5031  0.1936 -0.5367
   70CHL1   H3' 7590   5.496   1.855   6.928 -0.4063 -0.9170  1.7197
   70CHL1    C4 7591   5.424   2.016   7.125 -0.1908 -0.2936 -0.2612
   70CHL1   H4A 7592   5.524   2.037   7.081 -0.4225 -0.0551 -0.6752
   70CHL1   H4B 7593   5.346   2.082   7.084 -1.0511  0.4932  2.4360
   70CHL1    C5 7594   5.431   2.037   7.274 -0.2900  0.8587  0.8333
   70CHL1    C6 7595   5.358   2.131   7.337 -0.3564  0.3922 -0.1867
   70CHL1    H6 7596   5.288   2.195   7.281 -2.2334 -2.2591 -1.1299
   70CHL1    C7 7597   5.354   2.173   7.479 -0.4447 -0.5060  0.0528
   70CHL1   H7A 7598   5.374   2.282   7.492 -2.0800 -0.1744 -0.0044
   70CHL1   H7B 7599   5.256   2.151   7.526 -0.1389  0.4568  1.1898
   70CHL1    C8 7600   5.479   2.107   7.554 -0.0953 -1.2507  0.1554
   70CHL1    H8 7601   5.571   2.168   7.540  1.6413 -3.5727  0.7534
   70CHL1   C14 7602   5.468   2.102   7.707 -0.4185 -0.8578  0.1565
   70CHL1   H14 7603   5.379   2.045   7.740 -0.7365  0.3457  1.5010
   70CHL1   C15 7604   5.458   2.247   7.768  0.0130 -0.4275 -0.1960
   70CHL1  H15A 7605   5.535   2.319   7.731 -0.4050 -1.0496 -2.4370
   70CHL1  H15B 7606   5.353   2.279   7.755 -0.1329 -1.0624 -0.5974
   70CHL1   C16 7607   5.494   2.225   7.918  0.4927 -0.0005 -0.7170
   70CHL1  H16A 7608   5.575   2.300   7.930  1.2104 -0.6435 -1.4156
   70CHL1  H16B 7609   5.410   2.251   7.986  0.7717 -0.6872 -0.1022
   70CHL1   C17 7610   5.547   2.082   7.930  0.8337  0.0290  0.1184
   70CHL1   H17 7611   5.462   2.014   7.954  0.0751  1.3104  1.2334
   70CHL1   C13 7612   5.586   2.045   7.784  0.3609 -0.2697  0.5457
   70CHL1   C18 7613   5.722   2.110   7.753  0.0397 -0.5109  0.6110
   70CHL1  H18A 7614   5.745   2.127   7.645  0.5726  2.8548  1.1266
   70CHL1  H18B 7615   5.727   2.211   7.799 -0.0288 -0.1973 -0.0615
   70CHL1  H18C 7616   5.804   2.047   7.796  0.1161 -2.0070 -1.5718
   70CHL1   C12 7617   5.593   1.899   7.740  0.0938 -0.0216 -0.1159
   70CHL1  H12A 7618   5.670   1.836   7.790  0.3136  0.5889  0.3245
   70CHL1  H12B 7619   5.492   1.853   7.745  0.2461 -0.3966 -0.4872
   70CHL1   C11 7620   5.618   1.883   7.589  0.3302  0.1743 -0.3906
   70CHL1  H11A 7621   5.717   1.927   7.562  1.0075 -1.6443 -0.9943
   70CHL1  H11B 7622   5.614   1.774   7.571  0.3475 -0.1373  1.3312
   70CHL1    C9 7623   5.508   1.965   7.505 -0.2205 -0.4211 -0.0405
   70CHL1    H9 7624   5.406   1.925   7.525 -1.6762  1.6941 -2.5232
   70CHL1   C10 7625   5.520   1.939   7.346 -0.3686  0.4548 -0.2671
   70CHL1   C19 7626   5.671   1.971   7.320  0.4471 -1.7622 -0.3277
   70CHL1  H19A 7627   5.690   1.989   7.212 -1.1253 -0.3691 -0.4285
   70CHL1  H19B 7628   5.707   2.058   7.380 -1.0218 -2.4443  1.6574
   70CHL1  H19C 7629   5.734   1.892   7.364  0.8169 -0.8033  0.9293
   70CHL1    C1 7630   5.479   1.795   7.304 -0.3530 -0.0931 -0.1264
   70CHL1   H1A 7631   5.558   1.731   7.348  0.3606  0.3472 -0.7322
   70CHL1   H1B 7632   5.375   1.779   7.340  0.4479 -0.2861  2.2848
   70CHL1    C2 7633   5.483   1.768   7.151 -0.0157  0.0500  0.4816
   70CHL1   H2A 7634   5.436   1.671   7.122  1.0019 -0.5744  0.8633
   70CHL1   H2B 7635   5.587   1.779   7.115  0.0738  2.8314  1.4107
   70CHL1   C20 7636   5.646   2.070   8.042  0.3903 -0.1660 -0.6113
   70CHL1   H20 7637   5.726   2.138   8.007  0.4549  0.5857  0.8902
   70CHL1   C21 7638   5.699   1.928   8.072 -0.8951 -0.0226  0.3870
   70CHL1  H21A 7639   5.739   1.880   7.980  1.1105  1.5220  0.3803
   70CHL1  H21B 7640   5.629   1.859   8.123 -0.3571 -1.8091 -1.1615
   70CHL1  H21C 7641   5.789   1.935   8.136 -0.8241  3.0438  0.1089
   70CHL1   C22 7642   5.585   2.125   8.176 -0.4659  0.5360 -0.0544
   70CHL1  H22A 7643   5.550   2.229   8.159 -0.4276  0.5774  0.1208
   70CHL1  H22B 7644   5.499   2.065   8.212 -1.3262  1.5485 -0.3672
   70CHL1   C23 7645   5.693   2.137   8.288 -0.6593  0.0048 -0.3815
   70CHL1  H23A 7646   5.703   2.034   8.329  0.6451  0.3760  0.2999
   70CHL1  H23B 7647   5.793   2.145   8.239 -0.6454 -0.4221 -0.4298
   70CHL1   C24 7648   5.671   2.255   8.382  0.1935 -0.0399 -0.1641
   70CHL1  H24A 7649   5.766   2.292   8.425 -0.7060  0.3928  1.5447
   70CHL1  H24B 7650   5.642   2.338   8.314 -0.2455  0.5727  0.7368
   70CHL1   C25 7651   5.564   2.233   8.487  0.2554 -0.7003  0.2154
   70CHL1   H25 7652   5.484   2.188   8.425  0.8863  0.7351 -1.7613
   70CHL1   C26 7653   5.614   2.134   8.592 -0.1467 -0.2364 -0.0535
   70CHL1  H26A 7654   5.535   2.119   8.669  0.8272 -0.1193  0.9871
   70CHL1  H26B 7655   5.628   2.034   8.548 -4.1929 -1.9455  1.9960
   70CHL1  H26C 7656   5.711   2.175   8.628  0.3830  2.4715 -3.9101
   70CHL1   C27 7657   5.511   2.360   8.548 -0.1464 -0.9029 -0.6969
   70CHL1  H27A 7658   5.437   2.327   8.624  0.0482 -0.6816 -0.4069
   70CHL1  H27B 7659   5.594   2.414   8.598 -1.6433  1.9385 -1.1009
   70CHL1  H27C 7660   5.458   2.429   8.480 -0.6376  0.6994  1.2254
   71CHL1    C3 7661   5.563   3.445   6.836  0.5746  0.5003  0.2881
   71CHL1    H3 7662   5.554   3.555   6.828 -1.5592  0.2584 -1.6215
   71CHL1    O3 7663   5.570   3.397   6.702  0.3836  0.0921 -0.1043
   71CHL1   H3' 7664   5.608   3.309   6.711 -0.5544 -0.3000  0.1322
   71CHL1    C4 7665   5.692   3.401   6.917  0.0074  0.0953  0.2289
   71CHL1   H4A 7666   5.693   3.290   6.912 -1.1389  0.1095 -0.7615
   71CHL1   H4B 7667   5.782   3.440   6.866  0.6294 -1.0259  0.4309
   71CHL1    C5 7668   5.693   3.431   7.068 -0.0129  0.2336 -0.0168
   71CHL1    C6 7669   5.789   3.500   7.122 -0.4985 -0.8239 -0.6935
   71CHL1    H6 7670   5.874   3.539   7.065 -0.9245 -0.7054 -1.2597
   71CHL1    C7 7671   5.780   3.540   7.266  0.4114 -0.4906  0.1873
   71CHL1   H7A 7672   5.876   3.526   7.321 -0.0379 -1.2762  0.7803
   71CHL1   H7B 7673   5.752   3.647   7.255  2.5092 -0.0800 -2.3359
   71CHL1    C8 7674   5.675   3.472   7.349  0.8090  0.1614 -0.8813
   71CHL1    H8 7675   5.710   3.368   7.366 -0.0028 -0.0048 -0.1331
   71CHL1   C14 7676   5.658   3.531   7.490  1.0146  0.5585  0.4187
   71CHL1   H14 7677   5.639   3.640   7.478 -2.0974 -0.1021 -1.8782
   71CHL1   C15 7678   5.779   3.527   7.587 -0.2508  0.6083  0.5328
   71CHL1  H15A 7679   5.824   3.426   7.594 -0.2508  0.7050  2.5672
   71CHL1  H15B 7680   5.870   3.588   7.571 -0.7199  0.9400 -1.0243
   71CHL1   C16 7681   5.716   3.567   7.728  0.2818  0.0607 -0.3766
   71CHL1  H16A 7682   5.740   3.492   7.806 -2.4203  2.0260  2.6147
   71CHL1  H16B 7683   5.746   3.673   7.741  0.7475  0.0543 -1.3236
   71CHL1   C17 7684   5.561   3.563   7.706  0.6488  0.0439 -1.5341
   71CHL1   H17 7685   5.520   3.663   7.682  1.2136  0.8813  0.6739
   71CHL1   C13 7686   5.543   3.483   7.579 -0.8708 -0.0752  0.6327
   71CHL1   C18 7687   5.554   3.336   7.611  0.3766 -0.0890 -0.4813
   71CHL1  H18A 7688   5.458   3.294   7.649 -0.1776  1.6271  0.0745
   71CHL1  H18B 7689   5.581   3.283   7.516  0.1142  0.9210 -1.1364
   71CHL1  H18C 7690   5.637   3.321   7.682 -1.0039  2.6630  1.9166
   71CHL1   C12 7691   5.404   3.499   7.505 -0.0604 -0.0801  0.7115
   71CHL1  H12A 7692   5.316   3.463   7.564 -0.4123 -2.5173 -1.1441
   71CHL1  H12B 7693   5.379   3.603   7.479  0.6725 -0.1166 -0.1696
   71CHL1   C11 7694   5.420   3.431   7.363  0.2579  0.1824  0.4056
   71CHL1  H11A 7695   5.417   3.324   7.394 -1.4767 -0.1905 -0.9180
   71CHL1  H11B 7696   5.330   3.465   7.308  0.5421  1.5510  0.7544
   71CHL1    C9 7697   5.541   3.472   7.277  0.1955 -0.6175  0.1636
   71CHL1    H9 7698   5.520   3.575   7.242 -0.7619 -0.2081  1.8486
   71CHL1   C10 7699   5.555   3.403   7.143  0.1144 -0.7666  0.2631
   71CHL1   C19 7700   5.544   3.250   7.172 -0.1943  0.3562  0.1092
   71CHL1  H19A 7701   5.438   3.220   7.186  0.5433 -2.7705 -0.2216
   71CHL1  H19B 7702   5.577   3.198   7.080 -2.3517  1.5315 -1.4046
   71CHL1  H19C 7703   5.608   3.207   7.252  0.6769  1.1481 -0.1538
   71CHL1    C1 7704   5.440   3.445   7.049 -0.1755  0.2765  0.8827
   71CHL1   H1A 7705   5.341   3.413   7.089 -1.0010 -0.5711 -1.6496
   71CHL1   H1B 7706   5.435   3.556   7.044 -0.5850  0.2406  0.3847
   71CHL1    C2 7707   5.433   3.385   6.903  0.0508  0.0739 -0.7418
   71CHL1   H2A 7708   5.339   3.412   6.851 -0.4246  0.4371  0.2677
   71CHL1   H2B 7709   5.443   3.275   6.905  2.1844  0.2052 -1.0658
   71CHL1   C20 7710   5.491   3.524   7.835  0.4926  0.5031 -0.3369
   71CHL1   H20 7711   5.521   3.425   7.876  2.7215  1.3906  0.3292
   71CHL1   C21 7712   5.341   3.527   7.802  0.4580  0.3295 -0.0269
   71CHL1  H21A 7713   5.288   3.546   7.898  0.8174 -0.7352  0.4023
   71CHL1  H21B 7714   5.306   3.428   7.766  3.7630 -1.2468  0.6782
   71CHL1  H21C 7715   5.317   3.601   7.723  2.2548  0.5514 -0.4197
   71CHL1   C22 7716   5.513   3.615   7.957 -0.5690  0.4721  0.3093
   71CHL1  H22A 7717   5.610   3.668   7.955  0.1120 -0.7120  0.4745
   71CHL1  H22B 7718   5.450   3.705   7.941  1.2438  1.7651  0.1354
   71CHL1   C23 7719   5.480   3.553   8.101 -0.5045 -0.1530 -0.2844
   71CHL1  H23A 7720   5.370   3.565   8.117 -0.2316  2.3096  0.2921
   71CHL1  H23B 7721   5.502   3.445   8.099  1.9159  0.2463  1.1600
   71CHL1   C24 7722   5.555   3.622   8.217  0.0990 -0.0759 -0.4428
   71CHL1  H24A 7723   5.661   3.635   8.186 -0.0115 -0.4232 -0.9814
   71CHL1  H24B 7724   5.518   3.724   8.240 -1.8770 -0.7051 -0.6827
   71CHL1   C25 7725   5.547   3.537   8.345 -0.5306  0.6283  0.1384
   71CHL1   H25 7726   5.567   3.436   8.302  1.8964  1.2787 -0.4422
   71CHL1   C26 7727   5.674   3.573   8.425  0.0680 -0.2683  0.2169
   71CHL1  H26A 7728   5.763   3.558   8.360 -1.4102 -0.7901 -1.7576
   71CHL1  H26B 7729   5.671   3.682   8.450  0.1580 -0.3425  0.5569
   71CHL1  H26C 7730   5.681   3.511   8.517  1.7607 -2.0405 -1.0317
   71CHL1   C27 7731   5.424   3.531   8.444  0.0534 -0.4497  0.6015
   71CHL1  H27A 7732   5.461   3.456   8.518  1.5113  0.2524  0.6161
   71CHL1  H27B 7733   5.399   3.628   8.492  1.0128  1.2929 -2.1906
   71CHL1  H27C 7734   5.333   3.491   8.395 -0.7994 -0.1066  1.8641
   72CHL1    C3 7735   5.486   2.848   7.241  0.1059  0.0620  0.0360
   72CHL1    H3 7736   5.484   2.959   7.239 -0.4026  0.0921  1.4431
   72CHL1    O3 7737   5.539   2.817   7.113  0.3966  0.3205  0.0538
   72CHL1   H3' 7738   5.524   2.722   7.102 -2.8593  0.4543  1.9527
   72CHL1    C4 7739   5.570   2.782   7.354 -0.1449  0.4522  0.0938
   72CHL1   H4A 7740   5.597   2.676   7.332 -1.2123  0.1366  0.2443
   72CHL1   H4B 7741   5.673   2.823   7.357 -0.5119  1.3255  0.9496
   72CHL1    C5 7742   5.498   2.789   7.485 -0.0315  0.4164  0.0092
   72CHL1    C6 7743   5.563   2.829   7.595 -0.1350 -0.1293 -0.7118
   72CHL1    H6 7744   5.664   2.872   7.582 -0.1308  0.8501  1.8087
   72CHL1    C7 7745   5.515   2.823   7.737  0.2900  0.3741 -0.1447
   72CHL1   H7A 7746   5.591   2.807   7.816 -1.3207 -0.8456  1.2295
   72CHL1   H7B 7747   5.464   2.917   7.765 -0.2208  0.0084  0.1762
   72CHL1    C8 7748   5.394   2.723   7.756 -0.5124  0.2307  0.1758
   72CHL1    H8 7749   5.452   2.628   7.758  0.7812  0.9865  2.4012
   72CHL1   C14 7750   5.319   2.750   7.889 -0.9089  0.1582  0.2951
   72CHL1   H14 7751   5.284   2.855   7.880  3.0640  1.7102  0.5394
   72CHL1   C15 7752   5.400   2.739   8.023 -0.0507 -0.3030  0.1889
   72CHL1  H15A 7753   5.476   2.658   8.016  1.1950  0.7330  1.2102
   72CHL1  H15B 7754   5.446   2.838   8.041 -2.2372  1.2473 -1.9810
   72CHL1   C16 7755   5.293   2.715   8.135 -0.2445 -0.1528  1.2003
   72CHL1  H16A 7756   5.334   2.631   8.196  0.7705  3.0952  5.4584
   72CHL1  H16B 7757   5.286   2.800   8.206  1.3415 -0.5802  1.9247
   72CHL1   C17 7758   5.157   2.689   8.063 -0.0492  0.2413 -0.8131
   72CHL1   H17 7759   5.092   2.777   8.047 -2.4887 -1.3130 -0.0788
   72CHL1   C13 7760   5.198   2.656   7.914 -0.2383 -0.5903  0.1776
   72CHL1   C18 7761   5.251   2.510   7.908  0.8265 -0.0285  0.0639
   72CHL1  H18A 7762   5.339   2.487   7.972  0.9721 -0.0595 -0.1471
   72CHL1  H18B 7763   5.166   2.445   7.935 -2.1702  3.1261 -1.0899
   72CHL1  H18C 7764   5.272   2.483   7.802  0.7229  1.7698 -0.4570
   72CHL1   C12 7765   5.099   2.690   7.801  0.3404  0.0313  0.1913
   72CHL1  H12A 7766   5.006   2.631   7.816 -0.9088  1.8660 -0.0173
   72CHL1  H12B 7767   5.088   2.800   7.809  1.0048  0.1562 -0.5002
   72CHL1   C11 7768   5.163   2.662   7.666 -0.3768 -0.0655 -0.2159
   72CHL1  H11A 7769   5.178   2.553   7.649  1.7246 -0.3256  2.5905
   72CHL1  H11B 7770   5.091   2.691   7.587 -0.4228  0.5564  0.0468
   72CHL1    C9 7771   5.292   2.746   7.640  0.0314 -0.5124 -0.2396
   72CHL1    H9 7772   5.261   2.852   7.654  3.3315  0.4639  0.7375
   72CHL1   C10 7773   5.356   2.730   7.494 -0.2780  0.7476  0.4487
   72CHL1   C19 7774   5.364   2.578   7.460 -0.4470 -0.1855  0.3686
   72CHL1  H19A 7775   5.268   2.524   7.446  0.8032 -2.9142  1.6212
   72CHL1  H19B 7776   5.407   2.546   7.362 -0.3155 -1.3041  0.7816
   72CHL1  H19C 7777   5.410   2.529   7.548 -0.0263 -3.2063 -1.4089
   72CHL1    C1 7778   5.282   2.803   7.388  0.6576 -0.0701 -0.4334
   72CHL1   H1A 7779   5.180   2.757   7.391  1.6146 -2.2426  0.9056
   72CHL1   H1B 7780   5.270   2.910   7.417  0.8777  0.2033 -1.3157
   72CHL1    C2 7781   5.344   2.797   7.248  0.5697  0.2293  1.1664
   72CHL1   H2A 7782   5.276   2.850   7.177  1.0595 -0.5500  0.0910
   72CHL1   H2B 7783   5.350   2.695   7.204 -0.6573 -0.1146  1.7453
   72CHL1   C20 7784   5.076   2.587   8.146  0.1973 -0.6743 -0.7625
   72CHL1   H20 7785   5.123   2.487   8.153  1.6263  0.0947  2.5013
   72CHL1   C21 7786   4.948   2.564   8.069 -0.9896  0.2103  0.3390
   72CHL1  H21A 7787   4.890   2.658   8.052  0.3468  1.2661  1.3278
   72CHL1  H21B 7788   4.872   2.494   8.110 -1.8731  0.2361 -1.1688
   72CHL1  H21C 7789   4.966   2.516   7.971  1.8249 -0.9632  1.3533
   72CHL1   C22 7790   5.039   2.642   8.289  0.3467  0.3831  0.0357
   72CHL1  H22A 7791   5.135   2.671   8.338  0.8276  2.5258 -1.9967
   72CHL1  H22B 7792   4.983   2.736   8.271 -1.8459 -0.8104  0.3044
   72CHL1   C23 7793   4.959   2.555   8.379 -0.2673  0.2550  0.5819
   72CHL1  H23A 7794   4.860   2.536   8.331  0.7499  0.8720 -1.8908
   72CHL1  H23B 7795   4.996   2.451   8.385 -2.1276 -0.5860 -1.3254
   72CHL1   C24 7796   4.940   2.624   8.514  0.1109  0.2108  0.0022
   72CHL1  H24A 7797   4.906   2.726   8.487 -1.0941 -0.9064 -3.2355
   72CHL1  H24B 7798   4.866   2.562   8.568 -0.3530  0.0281 -0.8226
   72CHL1   C25 7799   5.060   2.613   8.612 -0.3031  0.4091 -0.8061
   72CHL1   H25 7800   5.150   2.672   8.583 -1.0015  0.9362 -1.9380
   72CHL1   C26 7801   5.026   2.689   8.741 -0.3740 -0.6731  0.4526
   72CHL1  H26A 7802   4.921   2.668   8.768 -1.1643 -0.8245 -2.4261
   72CHL1  H26B 7803   5.106   2.652   8.810 -0.1286 -0.8084  0.0943
   72CHL1  H26C 7804   5.029   2.800   8.732  2.3242 -0.7179 -0.0790
   72CHL1   C27 7805   5.102   2.466   8.643  0.5896 -0.5441  0.3025
   72CHL1  H27A 7806   5.186   2.480   8.713 -0.6958  3.1139  1.3473
   72CHL1  H27B 7807   5.013   2.413   8.684  0.3748 -1.4619 -1.2578
   72CHL1  H27C 7808   5.126   2.407   8.552  0.4180 -0.0324 -0.0826
   73CHL1    C3 7809   4.827   5.846   6.999  0.1317 -0.8172  0.1239
   73CHL1    H3 7810   4.730   5.803   7.032  0.3066  0.2013  2.0690
   73CHL1    O3 7811   4.831   5.876   6.856  0.3246  0.3441 -0.3421
   73CHL1   H3' 7812   4.750   5.921   6.832  0.2173  0.9763  1.0693
   73CHL1    C4 7813   4.836   5.978   7.074  0.6638 -0.4666 -0.4184
   73CHL1   H4A 7814   4.933   6.024   7.048 -0.0826 -0.1527 -2.9012
   73CHL1   H4B 7815   4.757   6.051   7.043  1.0654  0.7876  1.3076
   73CHL1    C5 7816   4.834   5.968   7.223 -1.0401  0.2690 -0.0699
   73CHL1    C6 7817   4.745   6.024   7.302 -0.1337  0.6513 -0.6720
   73CHL1    H6 7818   4.673   6.091   7.253  1.1018  1.5886 -1.2560
   73CHL1    C7 7819   4.728   6.009   7.456 -0.8569  0.0601 -0.0476
   73CHL1   H7A 7820   4.705   6.101   7.514 -0.2502 -1.2931  2.5128
   73CHL1   H7B 7821   4.649   5.931   7.465 -0.6636 -0.3165 -1.4720
   73CHL1    C8 7822   4.849   5.935   7.524  0.5946 -0.2073 -0.6179
   73CHL1    H8 7823   4.941   5.998   7.529  0.6647 -0.3778  2.8455
   73CHL1   C14 7824   4.822   5.880   7.668 -0.4650 -0.1819 -0.8647
   73CHL1   H14 7825   4.744   5.800   7.658 -1.2294  0.7741 -3.1935
   73CHL1   C15 7826   4.752   5.977   7.771 -1.3696  0.2315 -0.1201
   73CHL1  H15A 7827   4.807   6.074   7.769  2.6485 -1.7676  1.2566
   73CHL1  H15B 7828   4.646   6.002   7.754 -1.5647  0.5598  1.4094
   73CHL1   C16 7829   4.780   5.897   7.902  0.3608  0.2974  1.1375
   73CHL1  H16A 7830   4.826   5.967   7.976  2.6157  0.0700  0.0518
   73CHL1  H16B 7831   4.678   5.868   7.935 -0.3360 -1.4765 -2.1376
   73CHL1   C17 7832   4.872   5.775   7.870 -0.5364 -0.5427  0.2332
   73CHL1   H17 7833   4.807   5.686   7.852 -0.0222 -1.0550  0.8543
   73CHL1   C13 7834   4.943   5.810   7.736  0.2266 -0.0240 -0.4513
   73CHL1   C18 7835   5.057   5.909   7.767 -0.6674 -0.4607  0.3487
   73CHL1  H18A 7836   5.020   5.987   7.837  0.1172  0.5137 -0.3005
   73CHL1  H18B 7837   5.147   5.860   7.810  0.5356  0.3326 -1.1708
   73CHL1  H18C 7838   5.081   5.955   7.669  2.3797 -0.9536  0.7668
   73CHL1   C12 7839   4.982   5.698   7.651 -0.1548  0.0931  0.3534
   73CHL1  H12A 7840   5.079   5.659   7.687  0.1806 -0.5447 -1.1647
   73CHL1  H12B 7841   4.914   5.610   7.654 -0.1470 -0.0335 -1.5966
   73CHL1   C11 7842   5.009   5.739   7.502  0.0219  0.2545  0.5388
   73CHL1  H11A 7843   5.101   5.800   7.506  0.0361  0.3750 -1.0883
   73CHL1  H11B 7844   5.021   5.643   7.446 -2.3876  0.2820 -0.1127
   73CHL1    C9 7845   4.901   5.825   7.429 -0.4168  0.0110 -0.3321
   73CHL1    H9 7846   4.817   5.753   7.416 -0.5281  0.5157 -2.9404
   73CHL1   C10 7847   4.933   5.862   7.280  0.5465 -0.9686  0.3321
   73CHL1   C19 7848   5.070   5.927   7.273 -0.0083  0.2017 -0.0211
   73CHL1  H19A 7849   5.105   5.977   7.180  2.4402  1.6042  1.5520
   73CHL1  H19B 7850   5.081   6.008   7.348 -1.7442 -1.8679  2.6954
   73CHL1  H19C 7851   5.147   5.853   7.303  1.4711  2.2884  1.6144
   73CHL1    C1 7852   4.945   5.735   7.195  0.3188  0.5062  0.0525
   73CHL1   H1A 7853   5.039   5.684   7.222  0.3740  0.4675 -0.2045
   73CHL1   H1B 7854   4.858   5.668   7.209  0.9197 -0.6074 -1.3316
   73CHL1    C2 7855   4.943   5.763   7.037  0.0028  0.0151 -0.4711
   73CHL1   H2A 7856   4.959   5.668   6.982  1.7955  0.4776 -0.7992
   73CHL1   H2B 7857   5.027   5.830   7.009  0.6862 -1.0564 -1.0793
   73CHL1   C20 7858   4.962   5.737   7.993  0.7749 -0.4556 -0.2325
   73CHL1   H20 7859   5.044   5.813   7.997  0.4898 -0.1608  0.0628
   73CHL1   C21 7860   5.027   5.593   7.982  1.4522 -1.1764  0.3432
   73CHL1  H21A 7861   5.066   5.590   7.878  0.6775 -0.0688  0.0158
   73CHL1  H21B 7862   4.960   5.510   8.014 -1.2899  1.4469  1.8341
   73CHL1  H21C 7863   5.113   5.599   8.052  0.0732 -0.1483  2.0093
   73CHL1   C22 7864   4.880   5.727   8.124 -0.0043 -0.1203  0.3947
   73CHL1  H22A 7865   4.819   5.819   8.135  2.6030  1.4117  4.0493
   73CHL1  H22B 7866   4.811   5.640   8.124 -0.5860  0.3308  0.2443
   73CHL1   C23 7867   4.975   5.732   8.247 -0.3989 -0.3757  0.4403
   73CHL1  H23A 7868   5.048   5.650   8.257 -0.5277 -0.5791 -0.2482
   73CHL1  H23B 7869   5.040   5.822   8.241  1.2434 -1.4656  1.3127
   73CHL1   C24 7870   4.898   5.741   8.382 -1.1185 -1.1435 -0.2351
   73CHL1  H24A 7871   4.835   5.832   8.367 -2.0695 -1.3581  2.0930
   73CHL1  H24B 7872   4.843   5.648   8.408 -1.1522 -0.8104  0.9197
   73CHL1   C25 7873   4.980   5.775   8.506 -0.3723 -0.7711 -0.0216
   73CHL1   H25 7874   5.074   5.720   8.526  0.9684  0.7342 -1.8224
   73CHL1   C26 7875   5.008   5.925   8.507 -0.3167 -0.5412  0.3941
   73CHL1  H26A 7876   4.915   5.982   8.485  0.9655  1.2054 -0.7373
   73CHL1  H26B 7877   5.046   5.957   8.606  0.1356 -0.5258  0.2201
   73CHL1  H26C 7878   5.073   5.955   8.422  1.0473  1.2490  1.9808
   73CHL1   C27 7879   4.902   5.747   8.626  0.5485  0.4073  0.0070
   73CHL1  H27A 7880   4.954   5.789   8.715  0.8054 -0.6249  0.3478
   73CHL1  H27B 7881   4.799   5.789   8.628  1.1889  2.0381  0.1569
   73CHL1  H27C 7882   4.893   5.638   8.644  0.8665  0.4049  0.1513
   74CHL1    C3 7883   5.122   3.701   6.960  0.7172 -0.4589 -0.3178
   74CHL1    H3 7884   5.177   3.608   6.983 -0.4170 -1.0008  0.2514
   74CHL1    O3 7885   5.112   3.706   6.823 -0.1620 -0.5391  0.3302
   74CHL1   H3' 7886   5.078   3.795   6.807  1.3880  0.0282 -0.0660
   74CHL1    C4 7887   4.984   3.691   7.030  0.7719  0.2580  0.2289
   74CHL1   H4A 7888   4.929   3.779   6.990  2.4994  0.6256 -1.4868
   74CHL1   H4B 7889   4.930   3.601   6.993 -0.3664  1.4654 -1.1673
   74CHL1    C5 7890   5.004   3.689   7.180  0.5577  0.7881 -0.3052
   74CHL1    C6 7891   4.938   3.596   7.260  0.1598 -0.4565  0.0668
   74CHL1    H6 7892   4.865   3.531   7.208  0.4273  0.3773 -1.3954
   74CHL1    C7 7893   4.951   3.596   7.413 -0.2952  0.6123  0.9742
   74CHL1   H7A 7894   4.852   3.574   7.457  0.0192 -1.5094  0.7474
   74CHL1   H7B 7895   5.018   3.516   7.452  0.1390  0.0705 -0.7612
   74CHL1    C8 7896   5.002   3.730   7.473 -0.2098 -0.0845 -0.9786
   74CHL1    H8 7897   4.917   3.801   7.466 -1.1410 -1.0324  0.1776
   74CHL1   C14 7898   5.042   3.724   7.624  0.5995 -0.3533 -0.0485
   74CHL1   H14 7899   5.132   3.659   7.632 -0.1102 -1.6966 -2.0518
   74CHL1   C15 7900   4.928   3.677   7.715 -0.2391  0.1029  0.5707
   74CHL1  H15A 7901   4.828   3.725   7.705 -0.9413 -0.7480  2.8811
   74CHL1  H15B 7902   4.920   3.566   7.705  0.8523  0.1682 -1.8847
   74CHL1   C16 7903   4.989   3.711   7.854  0.3177 -0.4349 -0.1830
   74CHL1  H16A 7904   4.910   3.763   7.912 -1.3690 -1.9747 -0.9970
   74CHL1  H16B 7905   5.020   3.620   7.911 -2.3447 -1.5689 -0.3925
   74CHL1   C17 7906   5.106   3.812   7.834 -0.3785 -0.0881 -0.0999
   74CHL1   H17 7907   5.192   3.743   7.845 -2.0509 -2.5629 -1.4342
   74CHL1   C13 7908   5.098   3.851   7.680 -0.6949 -0.8731 -0.2900
   74CHL1   C18 7909   5.005   3.970   7.677 -0.2598 -0.2978 -0.3226
   74CHL1  H18A 7910   4.993   3.999   7.571 -0.0352  2.1674  0.2736
   74CHL1  H18B 7911   4.901   3.961   7.715 -1.3964  1.2726 -2.7981
   74CHL1  H18C 7912   5.048   4.058   7.730 -1.5163  0.0287  0.2038
   74CHL1   C12 7913   5.235   3.875   7.606  0.1911 -0.3864  0.0972
   74CHL1  H12A 7914   5.288   3.965   7.642 -0.7993  0.6170 -0.8626
   74CHL1  H12B 7915   5.300   3.787   7.621  0.0170 -0.4137  0.7243
   74CHL1   C11 7916   5.209   3.895   7.454 -0.0956 -0.4792 -0.1748
   74CHL1  H11A 7917   5.152   3.990   7.444  1.1029  0.1292 -1.4817
   74CHL1  H11B 7918   5.311   3.903   7.411  1.1141 -0.6649  2.4198
   74CHL1    C9 7919   5.121   3.777   7.389  0.1624 -0.2989 -1.1084
   74CHL1    H9 7920   5.196   3.696   7.399 -0.8914 -0.9671  2.9607
   74CHL1   C10 7921   5.093   3.800   7.242  0.5424  0.6270 -0.7970
   74CHL1   C19 7922   5.018   3.940   7.231 -0.0584  0.0205 -0.1541
   74CHL1  H19A 7923   4.949   3.949   7.317  1.8413 -1.3966  1.6325
   74CHL1  H19B 7924   5.091   4.016   7.264 -0.2977  1.0726 -1.9388
   74CHL1  H19C 7925   4.974   3.966   7.132  0.4008  1.6166  0.0443
   74CHL1    C1 7926   5.225   3.806   7.160 -0.0985  0.5905  0.4811
   74CHL1   H1A 7927   5.290   3.888   7.195  0.6352 -0.2588  1.1500
   74CHL1   H1B 7928   5.287   3.716   7.182  0.2397  0.9112  0.8428
   74CHL1    C2 7929   5.210   3.814   7.008 -0.1088  0.2600  0.0219
   74CHL1   H2A 7930   5.311   3.803   6.963  1.5385 -1.3923  3.6845
   74CHL1   H2B 7931   5.159   3.912   6.996  0.9858  1.1440  2.1663
   74CHL1   C20 7932   5.132   3.909   7.947  0.5591  0.3518  0.1348
   74CHL1   H20 7933   5.048   3.981   7.948 -0.8516 -1.2369 -0.0092
   74CHL1   C21 7934   5.262   3.989   7.924 -0.3396  0.6579  0.1936
   74CHL1  H21A 7935   5.250   4.063   7.843 -0.6110 -2.1643 -2.5341
   74CHL1  H21B 7936   5.349   3.926   7.896  0.8874  1.5411  1.7768
   74CHL1  H21C 7937   5.293   4.056   8.008 -2.2646  0.5790  1.0203
   74CHL1   C22 7938   5.137   3.828   8.085 -0.4499 -0.3904 -0.2338
   74CHL1  H22A 7939   5.037   3.782   8.103 -1.1482  1.2730  0.3695
   74CHL1  H22B 7940   5.209   3.745   8.069 -0.2150 -0.3548  0.6358
   74CHL1   C23 7941   5.191   3.911   8.198  0.1482 -0.8932  0.3343
   74CHL1  H23A 7942   5.297   3.928   8.169 -0.8141 -0.8596 -3.8955
   74CHL1  H23B 7943   5.133   4.006   8.190  0.2498 -0.8757 -0.2578
   74CHL1   C24 7944   5.177   3.853   8.343 -0.6140  0.1358  0.6299
   74CHL1  H24A 7945   5.067   3.845   8.351 -0.7617  1.2661 -0.0829
   74CHL1  H24B 7946   5.226   3.753   8.351  1.8329  1.1797 -0.2277
   74CHL1   C25 7947   5.240   3.936   8.460  0.3393 -0.4596  0.1156
   74CHL1   H25 7948   5.234   4.040   8.421  0.0601  0.2889  2.0698
   74CHL1   C26 7949   5.159   3.928   8.593 -0.5438 -0.4249 -0.3845
   74CHL1  H26A 7950   5.177   3.826   8.634  0.8198 -0.3749 -0.8101
   74CHL1  H26B 7951   5.209   3.989   8.672  0.1841 -1.8650  0.2977
   74CHL1  H26C 7952   5.052   3.958   8.593 -0.7556 -1.1417  0.3327
   74CHL1   C27 7953   5.388   3.923   8.459 -0.6358 -0.2020  0.0106
   74CHL1  H27A 7954   5.421   3.822   8.494  1.6210 -0.0919 -1.5853
   74CHL1  H27B 7955   5.423   3.922   8.354 -0.2381 -0.5164  0.1403
   74CHL1  H27C 7956   5.441   4.002   8.517 -0.1519 -1.3248  1.1592
   75CHL1    C3 7957   0.828   4.855   6.584  0.1268 -0.3187  0.8172
   75CHL1    H3 7958   0.771   4.947   6.609 -0.4992 -0.5363  0.2083
   75CHL1    O3 7959   0.837   4.836   6.445 -0.0037 -0.0943 -0.6474
   75CHL1   H3' 7960   0.931   4.816   6.439  0.1568  0.9190 -1.9386
   75CHL1    C4 7961   0.971   4.879   6.639  0.1493  0.5081 -0.1153
   75CHL1   H4A 7962   1.031   4.794   6.599 -0.2415  0.6557 -1.0377
   75CHL1   H4B 7963   1.021   4.970   6.599 -1.8394  1.9374  0.4774
   75CHL1    C5 7964   0.963   4.892   6.794 -0.0553 -0.0340  0.6944
   75CHL1    C6 7965   0.999   5.003   6.853 -0.2888 -0.1181 -0.1467
   75CHL1    H6 7966   1.030   5.083   6.784 -1.5029 -1.0191 -1.8147
   75CHL1    C7 7967   1.007   5.026   6.998 -0.6709 -0.6590 -0.1187
   75CHL1   H7A 7968   1.104   5.068   7.032 -1.3300  0.2160  0.7197
   75CHL1   H7B 7969   0.919   5.084   7.033 -0.8398 -2.1405  2.1202
   75CHL1    C8 7970   0.998   4.885   7.071 -0.3817  0.2353 -0.3446
   75CHL1    H8 7971   1.093   4.830   7.057 -0.8768 -0.7530  0.1480
   75CHL1   C14 7972   0.980   4.912   7.220  0.6454  0.0886  0.0054
   75CHL1   H14 7973   0.886   4.968   7.238 -0.3752 -0.8437 -2.0040
   75CHL1   C15 7974   1.085   5.002   7.292 -0.4034 -0.0289  0.6367
   75CHL1  H15A 7975   1.183   4.964   7.255 -1.5265 -2.5917  0.0350
   75CHL1  H15B 7976   1.072   5.110   7.270  1.2230 -0.0057 -0.3959
   75CHL1   C16 7977   1.065   4.964   7.440  0.5017  0.2959 -0.5983
   75CHL1  H16A 7978   1.165   4.935   7.480  0.9647  3.3660  0.7808
   75CHL1  H16B 7979   1.037   5.051   7.503  1.7893 -1.3100  2.4052
   75CHL1   C17 7980   0.957   4.851   7.449 -0.2782 -0.1260 -0.0083
   75CHL1   H17 7981   0.855   4.893   7.458 -0.6529 -0.6994 -1.2907
   75CHL1   C13 7982   0.959   4.792   7.308  0.4654 -0.7522  0.2243
   75CHL1   C18 7983   1.089   4.707   7.301 -0.4072 -0.2958  0.5377
   75CHL1  H18A 7984   1.094   4.623   7.374  1.1011 -1.1764 -0.5207
   75CHL1  H18B 7985   1.107   4.657   7.204 -2.3731 -0.9347  0.4549
   75CHL1  H18C 7986   1.181   4.767   7.318  0.6912 -1.7718  0.0107
   75CHL1   C12 7987   0.839   4.716   7.255 -0.1991 -0.4278  0.4124
   75CHL1  H12A 7988   0.810   4.622   7.306 -0.6861 -1.2420 -1.2653
   75CHL1  H12B 7989   0.751   4.784   7.251 -0.1916 -0.4035  0.6519
   75CHL1   C11 7990   0.861   4.672   7.101  0.8683 -0.4328 -0.3840
   75CHL1  H11A 7991   0.948   4.604   7.091  1.5085 -0.2129  2.6903
   75CHL1  H11B 7992   0.777   4.619   7.051 -0.1740 -1.8826  2.6357
   75CHL1    C9 7993   0.886   4.800   7.018 -0.8604 -0.5087  0.0798
   75CHL1    H9 7994   0.790   4.856   7.013 -0.1017  0.7398 -1.1852
   75CHL1   C10 7995   0.901   4.772   6.867 -0.4459  0.3857  1.1668
   75CHL1   C19 7996   1.001   4.654   6.851 -0.0537 -0.4050 -0.4608
   75CHL1  H19A 7997   0.933   4.569   6.872 -0.0010 -0.3752 -0.1638
   75CHL1  H19B 7998   1.018   4.646   6.741 -2.2934  3.4415 -1.2547
   75CHL1  H19C 7999   1.098   4.657   6.906 -0.7629 -0.2472  0.8150
   75CHL1    C1 8000   0.768   4.739   6.800 -0.0873 -0.6982  0.2876
   75CHL1   H1A 8001   0.718   4.650   6.845  0.1224 -0.3536  1.2324
   75CHL1   H1B 8002   0.699   4.825   6.814  2.0993  1.0892  0.6609
   75CHL1    C2 8003   0.772   4.724   6.651 -0.6011 -0.1184  0.7467
   75CHL1   H2A 8004   0.675   4.696   6.604 -1.2322  0.9110  1.4174
   75CHL1   H2B 8005   0.831   4.636   6.615  0.9057  0.8816  0.6902
   75CHL1   C20 8006   0.973   4.761   7.571  0.2073 -0.2156 -0.6139
   75CHL1   H20 8007   1.049   4.682   7.550  2.3655  1.6260 -0.1182
   75CHL1   C21 8008   0.839   4.686   7.592  0.5151  0.0203  0.3921
   75CHL1  H21A 8009   0.750   4.748   7.567 -0.2295 -1.6732 -1.4553
   75CHL1  H21B 8010   0.824   4.633   7.689 -0.4357  1.9119  1.3246
   75CHL1  H21C 8011   0.838   4.607   7.513  0.4148  0.5282 -0.1201
   75CHL1   C22 8012   1.032   4.825   7.703 -0.0622 -0.2274  0.8166
   75CHL1  H22A 8013   1.132   4.865   7.675 -0.1696 -0.9826 -0.7878
   75CHL1  H22B 8014   0.952   4.900   7.720  0.4956  0.9880 -1.4312
   75CHL1   C23 8015   1.040   4.730   7.828  0.8628 -0.0246  0.5421
   75CHL1  H23A 8016   0.935   4.697   7.847 -0.3590 -0.7595 -5.5696
   75CHL1  H23B 8017   1.101   4.640   7.806 -0.4922 -1.1023  0.9786
   75CHL1   C24 8018   1.109   4.802   7.953 -0.3965 -0.3422 -0.1844
   75CHL1  H24A 8019   1.208   4.848   7.932 -0.1448 -0.6867  0.2366
   75CHL1  H24B 8020   1.039   4.889   7.958 -0.5627 -0.2346 -2.7316
   75CHL1   C25 8021   1.112   4.723   8.084 -0.2629  0.1626 -0.4577
   75CHL1   H25 8022   1.155   4.622   8.065  1.7009  1.2296 -2.0911
   75CHL1   C26 8023   1.199   4.798   8.183 -0.0168 -0.4194 -0.2005
   75CHL1  H26A 8024   1.173   4.906   8.193 -0.1610 -0.6084  1.6355
   75CHL1  H26B 8025   1.200   4.747   8.281 -0.1279  1.4899  0.8358
   75CHL1  H26C 8026   1.303   4.793   8.143  0.1791 -2.6870  0.4879
   75CHL1   C27 8027   0.978   4.719   8.139 -0.2247 -0.5394 -0.3329
   75CHL1  H27A 8028   0.908   4.666   8.071 -0.8998  0.2533 -0.2713
   75CHL1  H27B 8029   0.960   4.669   8.237 -1.0907 -0.0354 -0.2214
   75CHL1  H27C 8030   0.941   4.821   8.163  1.9366 -0.1967  1.9823
   76CHL1    C3 8031   4.889   0.926   7.257 -0.5796  0.4478  0.4782
   76CHL1    H3 8032   4.791   0.949   7.304 -0.3583 -0.5604  1.4667
   76CHL1    O3 8033   4.869   0.913   7.115 -0.3134 -0.0041 -0.3578
   76CHL1   H3' 8034   4.907   0.830   7.086  1.6122  0.8996 -0.5709
   76CHL1    C4 8035   4.996   1.036   7.279 -0.6508  0.7291  0.3365
   76CHL1   H4A 8036   5.087   0.998   7.228 -0.8459 -0.7138  1.0279
   76CHL1   H4B 8037   4.954   1.122   7.223 -0.5086  0.3962 -0.2910
   76CHL1    C5 8038   5.011   1.047   7.431  0.0992  0.1073  0.3763
   76CHL1    C6 8039   4.984   1.160   7.502 -0.1639 -0.8410 -0.1151
   76CHL1    H6 8040   4.961   1.251   7.445 -1.8377  0.6649  2.7591
   76CHL1    C7 8041   5.006   1.169   7.650 -0.7246  0.0774 -0.2453
   76CHL1   H7A 8042   5.052   1.266   7.676 -0.2475 -0.5509  1.4124
   76CHL1   H7B 8043   4.913   1.160   7.711  0.7925  1.5998  2.5066
   76CHL1    C8 8044   5.110   1.069   7.704 -0.2109 -0.0660  0.0217
   76CHL1    H8 8045   5.211   1.097   7.668 -0.4896  0.9693  0.0110
   76CHL1   C14 8046   5.118   1.068   7.854 -0.0878  0.1670  0.2997
   76CHL1   H14 8047   5.014   1.037   7.877 -0.4400  0.0772 -1.2716
   76CHL1   C15 8048   5.135   1.195   7.943 -0.1240  0.4333 -0.3360
   76CHL1  H15A 8049   5.228   1.238   7.901 -0.1562 -1.4987 -2.5637
   76CHL1  H15B 8050   5.061   1.277   7.949  1.5922  1.9630  1.0767
   76CHL1   C16 8051   5.146   1.143   8.082 -0.4752  0.2791  0.0239
   76CHL1  H16A 8052   5.239   1.186   8.126  0.0725 -1.8144  1.0774
   76CHL1  H16B 8053   5.053   1.163   8.138 -0.2387  2.1150 -0.1933
   76CHL1   C17 8054   5.169   0.991   8.064  0.1524  0.9560 -0.1156
   76CHL1   H17 8055   5.069   0.947   8.086  1.0883 -0.8840  0.7374
   76CHL1   C13 8056   5.205   0.959   7.914  0.5047 -0.3895 -0.2512
   76CHL1   C18 8057   5.359   0.983   7.888  0.2077 -0.2550  0.5320
   76CHL1  H18A 8058   5.405   1.080   7.916 -0.1814  0.3087 -0.7103
   76CHL1  H18B 8059   5.423   0.900   7.924  2.2222  1.1722  0.4039
   76CHL1  H18C 8060   5.365   0.977   7.778 -2.6288 -1.0676  0.3335
   76CHL1   C12 8061   5.163   0.815   7.866 -0.3868  0.0327 -0.1930
   76CHL1  H12A 8062   5.209   0.723   7.909 -1.6441 -0.6392 -0.2465
   76CHL1  H12B 8063   5.057   0.798   7.897  0.2513 -2.4456  0.9203
   76CHL1   C11 8064   5.159   0.819   7.710 -0.5559  0.4687 -0.2098
   76CHL1  H11A 8065   5.267   0.822   7.681  0.3249 -3.2128  1.9730
   76CHL1  H11B 8066   5.110   0.721   7.693 -0.3295 -0.0316  1.8251
   76CHL1    C9 8067   5.077   0.926   7.654 -0.4527  0.4336  0.0089
   76CHL1    H9 8068   4.970   0.917   7.684 -1.1043  1.8138 -1.7557
   76CHL1   C10 8069   5.067   0.916   7.498  1.6425  0.1014 -0.0396
   76CHL1   C19 8070   5.209   0.879   7.442  0.2318 -0.5148  0.1269
   76CHL1  H19A 8071   5.229   0.773   7.470  0.7070 -0.6380 -0.6593
   76CHL1  H19B 8072   5.202   0.870   7.331 -0.4176  0.1521  0.1084
   76CHL1  H19C 8073   5.284   0.950   7.483 -2.1756  2.6004 -0.4531
   76CHL1    C1 8074   4.965   0.802   7.459  0.1172  0.5886 -0.0782
   76CHL1   H1A 8075   5.018   0.709   7.490 -0.2767  0.5904  0.6173
   76CHL1   H1B 8076   4.864   0.815   7.504 -0.1045  2.5899 -1.0508
   76CHL1    C2 8077   4.939   0.791   7.307  0.0547  0.4882  0.4158
   76CHL1   H2A 8078   4.860   0.717   7.285  0.4316  0.1999  0.0309
   76CHL1   H2B 8079   5.030   0.768   7.247 -0.7260  0.0335 -0.6281
   76CHL1   C20 8080   5.260   0.932   8.167  0.8385  0.4152 -0.8101
   76CHL1   H20 8081   5.362   0.976   8.168  2.6958 -3.3074  2.8983
   76CHL1   C21 8082   5.288   0.788   8.159  0.0686  0.6587 -0.1242
   76CHL1  H21A 8083   5.194   0.729   8.146 -1.1597  1.7004  3.0824
   76CHL1  H21B 8084   5.334   0.748   8.251 -1.1821 -0.5346  0.0184
   76CHL1  H21C 8085   5.357   0.764   8.075 -0.5623 -0.8673 -0.2511
   76CHL1   C22 8086   5.200   0.971   8.307 -0.6895  0.0693  0.1476
   76CHL1  H22A 8087   5.182   1.078   8.331  1.1109  0.7210 -1.1679
   76CHL1  H22B 8088   5.100   0.923   8.309  0.6711 -3.0402  0.3447
   76CHL1   C23 8089   5.270   0.918   8.433  0.1598 -0.4175 -0.1963
   76CHL1  H23A 8090   5.252   0.812   8.462 -0.2616  0.4678  3.1090
   76CHL1  H23B 8091   5.377   0.938   8.412 -0.0771  0.1436 -0.9042
   76CHL1   C24 8092   5.227   0.994   8.561 -0.2744 -0.1071 -0.9259
   76CHL1  H24A 8093   5.269   1.097   8.558  0.8286 -0.5689 -2.3113
   76CHL1  H24B 8094   5.117   1.011   8.568 -0.1068  0.6972  0.1666
   76CHL1   C25 8095   5.295   0.940   8.689 -0.0478  0.1488 -0.1718
   76CHL1   H25 8096   5.269   1.011   8.771  0.9612  0.8551 -0.4460
   76CHL1   C26 8097   5.223   0.810   8.732 -0.2453 -0.0389 -0.4540
   76CHL1  H26A 8098   5.189   0.756   8.641  1.8563  0.8502 -1.8251
   76CHL1  H26B 8099   5.295   0.760   8.801  0.7609  0.2759 -1.2523
   76CHL1  H26C 8100   5.134   0.845   8.789 -0.8790 -1.0443 -0.7839
   76CHL1   C27 8101   5.452   0.926   8.683 -0.3829  0.3054  0.0313
   76CHL1  H27A 8102   5.497   1.009   8.625 -1.1585 -0.1399 -1.2395
   76CHL1  H27B 8103   5.489   0.925   8.788  0.0131  1.2466 -0.0867
   76CHL1  H27C 8104   5.473   0.832   8.628  0.9220  0.1361  0.7728
   77CHL1    C3 8105   0.393   5.015   6.778 -0.0205  0.0348  0.4253
   77CHL1    H3 8106   0.382   4.905   6.784 -1.3325  0.0757 -0.6653
   77CHL1    O3 8107   0.422   5.034   6.637 -0.3169 -0.0660 -0.3483
   77CHL1   H3' 8108   0.413   5.129   6.623  1.8369  0.3842  0.9261
   77CHL1    C4 8109   0.254   5.074   6.807 -0.1622 -0.4173 -0.1786
   77CHL1   H4A 8110   0.244   5.180   6.774  2.1887  0.1036  0.5659
   77CHL1   H4B 8111   0.185   5.016   6.742 -1.8934  0.5906  0.7168
   77CHL1    C5 8112   0.217   5.066   6.949  0.5196  0.5349 -0.1712
   77CHL1    C6 8113   0.097   5.017   6.983  0.3973 -0.1310  0.1911
   77CHL1    H6 8114   0.034   4.983   6.899  0.8056  1.3418 -0.7590
   77CHL1    C7 8115   0.049   5.005   7.126  0.5954  0.1792  0.3542
   77CHL1   H7A 8116  -0.058   5.034   7.130 -0.0114 -1.9925  1.0554
   77CHL1   H7B 8117   0.064   4.901   7.160 -0.0189 -0.1067 -0.2226
   77CHL1    C8 8118   0.136   5.097   7.219  0.1781 -0.1461  0.0375
   77CHL1    H8 8119   0.103   5.201   7.200 -1.2181 -0.4639  0.5715
   77CHL1   C14 8120   0.102   5.057   7.366 -0.5841 -0.0164 -0.6707
   77CHL1   H14 8121   0.159   4.963   7.384 -0.2023  0.3127 -0.1565
   77CHL1   C15 8122  -0.038   5.050   7.423  0.5486 -0.2152  0.3537
   77CHL1  H15A 8123  -0.114   5.106   7.364  1.8720  1.0579 -0.1911
   77CHL1  H15B 8124  -0.064   4.942   7.411 -0.3510 -0.0032  0.3127
   77CHL1   C16 8125  -0.031   5.082   7.573 -0.5692  0.0778  0.0439
   77CHL1  H16A 8126  -0.081   5.180   7.592  0.2739  0.6296 -0.4740
   77CHL1  H16B 8127  -0.073   5.001   7.636 -0.1721  1.1702  1.7611
   77CHL1   C17 8128   0.122   5.098   7.600  0.5600 -0.2195 -0.4490
   77CHL1   H17 8129   0.165   4.998   7.620 -0.8007 -0.8176 -0.4121
   77CHL1   C13 8130   0.176   5.147   7.469 -0.0123  0.7875  0.7842
   77CHL1   C18 8131   0.132   5.299   7.452  0.3604 -0.0182 -0.2852
   77CHL1  H18A 8132   0.168   5.334   7.353  0.4012  3.2378  0.7691
   77CHL1  H18B 8133   0.022   5.309   7.460  0.3536 -1.4168  2.2284
   77CHL1  H18C 8134   0.184   5.362   7.527  0.3067 -1.5335  1.0845
   77CHL1   C12 8135   0.326   5.133   7.437  0.1782  0.5797 -0.1368
   77CHL1  H12A 8136   0.383   5.197   7.508  1.9254  0.9180 -1.7743
   77CHL1  H12B 8137   0.357   5.029   7.459  0.7040  0.6975 -0.3145
   77CHL1   C11 8138   0.367   5.166   7.294 -1.3423 -0.0004  0.1906
   77CHL1  H11A 8139   0.357   5.276   7.284 -0.3072  0.1095  0.2073
   77CHL1  H11B 8140   0.475   5.150   7.273 -1.3436 -0.6928  0.6640
   77CHL1    C9 8141   0.290   5.081   7.194  0.2169  0.2963  0.4269
   77CHL1    H9 8142   0.318   4.974   7.212 -2.7449 -0.8244 -0.9624
   77CHL1   C10 8143   0.324   5.107   7.046 -0.5584  0.1999 -0.5869
   77CHL1   C19 8144   0.334   5.268   7.026 -0.1262  0.3452  0.1300
   77CHL1  H19A 8145   0.352   5.294   6.920  1.3557  0.3455  0.3501
   77CHL1  H19B 8146   0.243   5.311   7.073  0.4119  0.2241  1.3299
   77CHL1  H19C 8147   0.419   5.311   7.084 -0.8524 -0.2811  1.7326
   77CHL1    C1 8148   0.465   5.042   7.016  0.4529  0.3986  0.1092
   77CHL1   H1A 8149   0.542   5.068   7.092 -0.1057 -0.0944  0.8628
   77CHL1   H1B 8150   0.461   4.932   7.030 -0.2891 -0.4208 -4.8431
   77CHL1    C2 8151   0.506   5.065   6.872 -0.8287 -0.1092 -0.4477
   77CHL1   H2A 8152   0.599   5.020   6.829 -0.5937  0.5450 -0.6308
   77CHL1   H2B 8153   0.525   5.173   6.856  2.8437 -0.2832  1.5298
   77CHL1   C20 8154   0.156   5.186   7.722  0.5246  0.8901  0.6749
   77CHL1   H20 8155   0.146   5.294   7.698  2.8551  0.9925 -0.0748
   77CHL1   C21 8156   0.296   5.133   7.758  0.3260 -0.3742 -0.5759
   77CHL1  H21A 8157   0.290   5.059   7.841 -2.0904 -1.5660 -1.7040
   77CHL1  H21B 8158   0.354   5.218   7.802  1.2220 -1.4444  0.3971
   77CHL1  H21C 8159   0.357   5.084   7.679  2.7163  1.4361  0.0317
   77CHL1   C22 8160   0.059   5.168   7.839  0.5524  0.8865  0.1553
   77CHL1  H22A 8161  -0.044   5.187   7.803  0.3621 -1.0730 -0.4814
   77CHL1  H22B 8162   0.073   5.059   7.860 -1.8283  0.6655  0.8940
   77CHL1   C23 8163   0.082   5.269   7.947 -0.2087  0.1638 -0.5733
   77CHL1  H23A 8164   0.189   5.285   7.972  0.1073 -0.1274 -1.7170
   77CHL1  H23B 8165   0.043   5.367   7.913  2.7583  0.6950 -2.8539
   77CHL1   C24 8166   0.006   5.212   8.073 -0.7310 -0.3713  0.1610
   77CHL1  H24A 8167  -0.100   5.245   8.068 -1.7321 -3.4889 -2.7270
   77CHL1  H24B 8168   0.015   5.102   8.079  0.4726 -0.2082  2.6309
   77CHL1   C25 8169   0.057   5.279   8.202  0.2599  0.2480 -0.4086
   77CHL1   H25 8170   0.163   5.248   8.209 -0.1023 -0.6656  2.1122
   77CHL1   C26 8171   0.045   5.430   8.198 -0.4015 -0.0657  0.1197
   77CHL1  H26A 8172  -0.041   5.444   8.130 -0.7068  1.2323  0.7429
   77CHL1  H26B 8173   0.030   5.477   8.298  1.6569  0.1774  0.3564
   77CHL1  H26C 8174   0.127   5.479   8.142  0.1304 -1.1749 -0.1146
   77CHL1   C27 8175  -0.011   5.221   8.327 -0.0209  0.1508  0.1761
   77CHL1  H27A 8176   0.009   5.280   8.419 -1.2022  1.7663 -0.5650
   77CHL1  H27B 8177  -0.121   5.231   8.323 -0.2104 -1.3876  0.7158
   77CHL1  H27C 8178   0.004   5.113   8.349  0.9237  0.9142  4.2089
   78CHL1    C3 8179   6.625   6.642   6.588  0.3549  0.1402  0.4602
   78CHL1    H3 8180   6.712   6.711   6.601  0.5956  0.5268 -2.3911
   78CHL1    O3 8181   6.598   6.635   6.444  0.0461 -0.7812 -0.2374
   78CHL1   H3' 8182   6.509   6.602   6.430 -1.0570  1.0949  1.7143
   78CHL1    C4 8183   6.646   6.495   6.644 -0.1886  0.2406 -0.0396
   78CHL1   H4A 8184   6.562   6.432   6.610  2.0794 -1.3386 -3.2588
   78CHL1   H4B 8185   6.735   6.448   6.597  0.0197 -1.9574  2.3488
   78CHL1    C5 8186   6.663   6.489   6.796  1.1015 -0.3963  0.5664
   78CHL1    C6 8187   6.759   6.420   6.856  0.3252 -0.3602  0.4309
   78CHL1    H6 8188   6.819   6.349   6.797  0.6041  1.6653 -1.8615
   78CHL1    C7 8189   6.799   6.422   6.994 -0.4086 -0.0942 -0.5042
   78CHL1   H7A 8190   6.820   6.323   7.041 -3.0933  0.4456  2.1448
   78CHL1   H7B 8191   6.889   6.484   7.013 -0.2253 -0.7266  0.8400
   78CHL1    C8 8192   6.685   6.479   7.085 -0.7844 -0.7910  0.2864
   78CHL1    H8 8193   6.606   6.401   7.081  0.5547 -2.1685 -0.2737
   78CHL1   C14 8194   6.737   6.499   7.230 -0.0709  0.2799 -0.3367
   78CHL1   H14 8195   6.826   6.565   7.226  0.3835 -0.0569  2.5424
   78CHL1   C15 8196   6.787   6.372   7.306 -0.6027  0.2691 -1.0600
   78CHL1  H15A 8197   6.729   6.283   7.272 -0.1055 -0.9637  1.1325
   78CHL1  H15B 8198   6.896   6.363   7.284 -0.6155  1.5293 -1.7572
   78CHL1   C16 8199   6.764   6.405   7.452  0.0509  0.5324  0.6720
   78CHL1  H16A 8200   6.691   6.335   7.498  1.2275  1.5014  4.3398
   78CHL1  H16B 8201   6.864   6.395   7.499  1.3867  2.3588 -1.5313
   78CHL1   C17 8202   6.704   6.555   7.460 -0.0016  0.0910 -0.5364
   78CHL1   H17 8203   6.793   6.621   7.461 -1.4066  2.1728  2.2305
   78CHL1   C13 8204   6.634   6.568   7.320 -0.0651  0.8336  0.0604
   78CHL1   C18 8205   6.509   6.473   7.334 -0.3801 -0.3039  0.1770
   78CHL1  H18A 8206   6.537   6.372   7.372 -0.2356 -0.4473 -0.3005
   78CHL1  H18B 8207   6.437   6.509   7.411 -1.1600 -0.8638 -0.2794
   78CHL1  H18C 8208   6.454   6.456   7.239 -0.0922 -2.0069  0.2820
   78CHL1   C12 8209   6.592   6.702   7.261 -0.6760 -0.0331  0.2974
   78CHL1  H12A 8210   6.520   6.763   7.320 -1.5901  0.5409 -1.3543
   78CHL1  H12B 8211   6.682   6.765   7.243 -1.5278  1.7401  1.8514
   78CHL1   C11 8212   6.540   6.689   7.116  0.4390  0.2722  0.3721
   78CHL1  H11A 8213   6.449   6.625   7.127 -1.0905  2.7234  3.4668
   78CHL1  H11B 8214   6.517   6.794   7.089  1.0148  0.4042  0.3820
   78CHL1    C9 8215   6.628   6.603   7.021 -0.0883 -0.1593  0.3287
   78CHL1    H9 8216   6.713   6.672   7.005 -1.5537  1.1326 -2.9063
   78CHL1   C10 8217   6.574   6.576   6.880 -0.3017  0.2453  0.1611
   78CHL1   C19 8218   6.438   6.493   6.885  0.2610  0.3846  0.0619
   78CHL1  H19A 8219   6.452   6.402   6.948 -0.3988 -0.0627 -0.4332
   78CHL1  H19B 8220   6.355   6.553   6.926 -0.2586 -0.2411 -0.0580
   78CHL1  H19C 8221   6.401   6.450   6.790  0.6491 -0.1053  0.1274
   78CHL1    C1 8222   6.543   6.715   6.817  0.5238  0.3636  0.9650
   78CHL1   H1A 8223   6.458   6.764   6.869 -0.2557 -0.1868  0.2535
   78CHL1   H1B 8224   6.632   6.781   6.825  0.4054  0.4224  1.8181
   78CHL1    C2 8225   6.507   6.706   6.662 -0.3618  0.3612 -0.1470
   78CHL1   H2A 8226   6.480   6.809   6.632  0.3289  0.3276 -0.9211
   78CHL1   H2B 8227   6.415   6.649   6.638  0.4964 -1.6533  1.0450
   78CHL1   C20 8228   6.631   6.571   7.596 -0.2868 -0.1821  0.4722
   78CHL1   H20 8229   6.553   6.492   7.596  0.5162 -1.0201  1.6086
   78CHL1   C21 8230   6.554   6.707   7.597 -0.4670  0.0785  0.3264
   78CHL1  H21A 8231   6.622   6.791   7.570 -1.3701  0.7264 -0.0053
   78CHL1  H21B 8232   6.505   6.727   7.695  0.3419  1.8914  0.4026
   78CHL1  H21C 8233   6.471   6.714   7.523 -0.2661  0.1861  0.1089
   78CHL1   C22 8234   6.714   6.550   7.722 -0.6643  0.3219 -0.5785
   78CHL1  H22A 8235   6.770   6.455   7.712 -2.9780 -1.3029  0.9125
   78CHL1  H22B 8236   6.784   6.636   7.724 -1.0521  0.6365  0.2765
   78CHL1   C23 8237   6.633   6.536   7.850  0.1068 -0.2800 -0.0416
   78CHL1  H23A 8238   6.544   6.603   7.846  1.1059  1.0559 -0.5052
   78CHL1  H23B 8239   6.595   6.432   7.861 -0.0184 -0.1359  1.0670
   78CHL1   C24 8240   6.719   6.558   7.983 -0.1790  0.7253  0.6798
   78CHL1  H24A 8241   6.822   6.519   7.973 -0.5065  0.4196 -2.4465
   78CHL1  H24B 8242   6.724   6.669   7.995  0.1767  0.6852  0.9145
   78CHL1   C25 8243   6.650   6.523   8.123  0.5397  0.7288 -0.0456
   78CHL1   H25 8244   6.620   6.416   8.112  0.3863  0.6512  0.9469
   78CHL1   C26 8245   6.747   6.550   8.240 -0.5749 -0.3409 -0.0733
   78CHL1  H26A 8246   6.702   6.516   8.335 -0.0989  2.0616  1.0945
   78CHL1  H26B 8247   6.836   6.487   8.220 -0.1268  0.1584  0.3091
   78CHL1  H26C 8248   6.780   6.655   8.256  1.6504 -0.7528 -1.5292
   78CHL1   C27 8249   6.525   6.611   8.142 -0.4909  0.7354  0.2662
   78CHL1  H27A 8250   6.440   6.571   8.083 -0.6814  0.3589  0.7893
   78CHL1  H27B 8251   6.487   6.623   8.246 -0.8662 -0.8948  0.3506
   78CHL1  H27C 8252   6.551   6.714   8.110  0.4953  0.6731  0.8139
   79CHL1    C3 8253   5.740   0.063   7.128  0.0978  0.1986  0.0048
   79CHL1    H3 8254   5.838   0.011   7.129  0.0096  0.0333  0.0203
   79CHL1    O3 8255   5.693   0.055   6.999  0.0374  0.2201  0.5663
   79CHL1   H3' 8256   5.677  -0.036   6.973  1.6045  0.4039 -1.2648
   79CHL1    C4 8257   5.637  -0.017   7.208  0.0156 -0.2487 -0.3156
   79CHL1   H4A 8258   5.534   0.020   7.190  0.2601  0.0613 -1.1115
   79CHL1   H4B 8259   5.640  -0.124   7.178  1.0143 -0.2316 -0.3236
   79CHL1    C5 8260   5.676  -0.007   7.357 -0.0836  0.2758  0.7801
   79CHL1    C6 8261   5.686  -0.117   7.437  0.1702  0.1833  0.1685
   79CHL1    H6 8262   5.693  -0.214   7.385  0.3811  1.6388 -2.7645
   79CHL1    C7 8263   5.716  -0.119   7.582  0.7235  0.2628 -0.7188
   79CHL1   H7A 8264   5.667  -0.198   7.642  0.4595  1.0465  0.1186
   79CHL1   H7B 8265   5.826  -0.134   7.592  0.5338 -1.9955 -1.3465
   79CHL1    C8 8266   5.685   0.026   7.639 -0.3230 -0.5488 -0.5928
   79CHL1    H8 8267   5.574   0.037   7.641 -0.2154  0.7092  1.8267
   79CHL1   C14 8268   5.737   0.033   7.784 -0.0295  0.4371  0.3695
   79CHL1   H14 8269   5.845   0.007   7.769 -0.7815 -1.8772 -1.7282
   79CHL1   C15 8270   5.687  -0.073   7.884  0.1924  0.7148 -0.3709
   79CHL1  H15A 8271   5.580  -0.099   7.870  0.7571 -1.1059 -1.7096
   79CHL1  H15B 8272   5.751  -0.164   7.877 -1.0671 -0.5411  2.4113
   79CHL1   C16 8273   5.703  -0.009   8.023  0.1209 -1.3237 -0.3410
   79CHL1  H16A 8274   5.606  -0.012   8.077  0.3339  2.2311  0.5089
   79CHL1  H16B 8275   5.778  -0.063   8.085  1.8941  2.9285  1.6255
   79CHL1   C17 8276   5.751   0.141   7.990 -0.8232 -0.3349 -0.0001
   79CHL1   H17 8277   5.862   0.131   7.979 -1.0409 -0.0561 -3.4176
   79CHL1   C13 8278   5.714   0.173   7.848 -0.4717  0.2798  0.4288
   79CHL1   C18 8279   5.563   0.216   7.849 -0.4126 -0.2194  0.1894
   79CHL1  H18A 8280   5.500   0.147   7.909  0.1056 -2.3155 -1.5540
   79CHL1  H18B 8281   5.551   0.319   7.889  1.3731 -0.6028  1.8428
   79CHL1  H18C 8282   5.500   0.218   7.757  0.1193  1.3858 -0.1690
   79CHL1   C12 8283   5.798   0.276   7.773  0.2056  0.0564  0.2482
   79CHL1  H12A 8284   5.785   0.379   7.813  3.2724  0.9878 -0.9356
   79CHL1  H12B 8285   5.905   0.249   7.770 -0.0135 -0.7661 -0.9995
   79CHL1   C11 8286   5.745   0.278   7.626  0.5874 -0.1022 -0.4159
   79CHL1  H11A 8287   5.643   0.322   7.627  0.5907 -0.0290  1.3950
   79CHL1  H11B 8288   5.796   0.350   7.559  0.3676  0.1994 -0.2610
   79CHL1    C9 8289   5.755   0.138   7.553 -0.5811  0.9897  0.6448
   79CHL1    H9 8290   5.863   0.120   7.538 -0.1390  1.8734  2.3859
   79CHL1   C10 8291   5.701   0.132   7.409  0.2469 -0.4755  0.3040
   79CHL1   C19 8292   5.553   0.194   7.415 -0.4562  0.0562  0.5395
   79CHL1  H19A 8293   5.565   0.304   7.430  2.5287  0.2459 -2.1808
   79CHL1  H19B 8294   5.483   0.183   7.329 -1.3420 -1.2352  1.3857
   79CHL1  H19C 8295   5.494   0.142   7.493  2.0117 -1.4941  1.4588
   79CHL1    C1 8296   5.787   0.225   7.311  0.5655  0.6098  0.3216
   79CHL1   H1A 8297   5.764   0.332   7.329  1.5570  0.7432  0.9174
   79CHL1   H1B 8298   5.890   0.187   7.326  0.4235  0.1821  0.2154
   79CHL1    C2 8299   5.744   0.210   7.167  0.0508 -0.0949  0.9512
   79CHL1   H2A 8300   5.817   0.255   7.096 -2.2548  1.4101 -0.6001
   79CHL1   H2B 8301   5.651   0.263   7.137  0.7642  1.6924  1.7408
   79CHL1   C20 8302   5.727   0.240   8.103  0.2343 -0.2938 -0.1019
   79CHL1   H20 8303   5.740   0.345   8.070  2.0379 -0.0969  1.1277
   79CHL1   C21 8304   5.831   0.204   8.209 -0.2074 -0.1784 -0.1648
   79CHL1  H21A 8305   5.928   0.213   8.156 -0.5395 -1.0680 -0.9553
   79CHL1  H21B 8306   5.829   0.104   8.258 -0.3568  0.0983  0.4123
   79CHL1  H21C 8307   5.841   0.283   8.287  1.1548  1.4221 -1.8905
   79CHL1   C22 8308   5.592   0.241   8.181  0.7025 -0.1555 -0.0329
   79CHL1  H22A 8309   5.507   0.262   8.113  0.5320 -1.1264 -0.1432
   79CHL1  H22B 8310   5.572   0.137   8.216  0.4177 -0.6168 -1.5031
   79CHL1   C23 8311   5.576   0.342   8.300  0.8301  0.2368  0.1728
   79CHL1  H23A 8312   5.661   0.370   8.365  0.8129  1.2311 -0.2271
   79CHL1  H23B 8313   5.554   0.438   8.249 -2.6385 -0.7518 -0.4832
   79CHL1   C24 8314   5.460   0.299   8.395 -0.2619  0.2334  0.3037
   79CHL1  H24A 8315   5.374   0.278   8.327 -0.9804  1.4113  0.8205
   79CHL1  H24B 8316   5.489   0.203   8.443  0.1480  1.0544  1.7409
   79CHL1   C25 8317   5.423   0.391   8.508  0.3082 -0.1888  0.3771
   79CHL1   H25 8318   5.333   0.349   8.558  0.3752  0.2320  0.8539
   79CHL1   C26 8319   5.527   0.391   8.625 -0.4483  0.1175 -0.0882
   79CHL1  H26A 8320   5.498   0.453   8.712  2.2146  1.3091  0.0323
   79CHL1  H26B 8321   5.542   0.287   8.661 -3.5511  0.1530  1.6987
   79CHL1  H26C 8322   5.627   0.426   8.594  0.2332 -0.2398  1.5878
   79CHL1   C27 8323   5.391   0.527   8.459 -0.0498 -0.0256 -0.0662
   79CHL1  H27A 8324   5.322   0.539   8.372  1.9603  0.9997 -1.6214
   79CHL1  H27B 8325   5.331   0.592   8.526 -1.4098 -1.7587  0.4471
   79CHL1  H27C 8326   5.486   0.582   8.441  0.3032 -0.5173  0.3066
   80CHL1    C3 8327   4.752   5.127   7.045  0.3727 -0.3297 -0.5126
   80CHL1    H3 8328   4.644   5.103   7.035  0.4180 -1.2924  1.0616
   80CHL1    O3 8329   4.813   5.123   6.915  0.2436  0.8252  0.2381
   80CHL1   H3' 8330   4.905   5.137   6.939  0.5631  0.7067 -0.8850
   80CHL1    C4 8331   4.770   5.278   7.095 -0.0958  0.8149 -0.3479
   80CHL1   H4A 8332   4.878   5.299   7.084 -0.1176  0.3300 -1.6109
   80CHL1   H4B 8333   4.723   5.350   7.025 -0.3846  1.5931  0.6163
   80CHL1    C5 8334   4.739   5.288   7.244  0.0357 -0.5260  0.0603
   80CHL1    C6 8335   4.650   5.376   7.278  0.2732  0.2988  0.2234
   80CHL1    H6 8336   4.605   5.442   7.202  2.1712  0.7977 -0.5275
   80CHL1    C7 8337   4.622   5.408   7.420  0.1441 -0.2807 -0.6285
   80CHL1   H7A 8338   4.636   5.517   7.441 -0.0454 -0.4746  0.5795
   80CHL1   H7B 8339   4.516   5.379   7.431 -0.1024 -0.1229 -2.3357
   80CHL1    C8 8340   4.715   5.329   7.515 -0.8760  0.4565 -0.4517
   80CHL1    H8 8341   4.814   5.380   7.517 -1.1271  0.9957  2.2820
   80CHL1   C14 8342   4.652   5.333   7.655 -0.0109 -0.1415  0.7520
   80CHL1   H14 8343   4.559   5.272   7.664 -0.9965  1.1874  0.0213
   80CHL1   C15 8344   4.608   5.471   7.715 -0.1034 -0.2758 -0.1136
   80CHL1  H15A 8345   4.693   5.542   7.720 -0.1486 -0.2960  1.4889
   80CHL1  H15B 8346   4.518   5.504   7.660  1.2512 -0.5799 -2.6893
   80CHL1   C16 8347   4.583   5.436   7.860  0.1535  0.3776  0.4755
   80CHL1  H16A 8348   4.598   5.521   7.930  0.0496 -1.1478  2.4382
   80CHL1  H16B 8349   4.473   5.428   7.875  0.3240 -1.8156  0.8711
   80CHL1   C17 8350   4.651   5.300   7.894 -0.7744  0.5460 -0.2457
   80CHL1   H17 8351   4.568   5.227   7.896 -1.1934  0.9562 -1.6371
   80CHL1   C13 8352   4.739   5.263   7.766 -0.8152 -1.5750  0.5075
   80CHL1   C18 8353   4.883   5.326   7.778 -0.3760 -0.1534  0.7493
   80CHL1  H18A 8354   4.933   5.321   7.679 -1.2795  0.4403  0.2557
   80CHL1  H18B 8355   4.873   5.435   7.794  0.2804  0.4944 -2.5940
   80CHL1  H18C 8356   4.944   5.288   7.863 -0.1857  1.4883  1.3767
   80CHL1   C12 8357   4.763   5.119   7.721 -0.4585  0.0376 -0.0339
   80CHL1  H12A 8358   4.831   5.064   7.789 -0.0782 -0.8377 -1.0789
   80CHL1  H12B 8359   4.670   5.059   7.720 -0.5322  0.1544 -0.2020
   80CHL1   C11 8360   4.827   5.108   7.581 -0.3018 -0.2730 -0.6112
   80CHL1  H11A 8361   4.935   5.134   7.574 -0.4192  0.8941  1.3207
   80CHL1  H11B 8362   4.811   5.002   7.550 -2.3176 -0.2403  0.1370
   80CHL1    C9 8363   4.743   5.182   7.475 -0.5984 -0.0107  0.8097
   80CHL1    H9 8364   4.642   5.136   7.470  0.1646 -1.7321  0.4815
   80CHL1   C10 8365   4.805   5.187   7.334 -0.3221 -0.2946  0.0033
   80CHL1   C19 8366   4.960   5.218   7.347  0.9206  0.0059 -0.6239
   80CHL1  H19A 8367   4.990   5.292   7.423  0.8458  0.2476 -0.8296
   80CHL1  H19B 8368   5.010   5.122   7.373  1.3489 -0.2305 -2.2243
   80CHL1  H19C 8369   5.010   5.237   7.250  1.9736  0.4129 -0.0161
   80CHL1    C1 8370   4.789   5.039   7.277 -0.3138  0.3997 -0.1489
   80CHL1   H1A 8371   4.847   4.966   7.338  2.5643  3.1673  0.6867
   80CHL1   H1B 8372   4.681   5.014   7.280 -0.2566  0.2955  1.8406
   80CHL1    C2 8373   4.832   5.034   7.133 -0.0548  0.2694  0.6288
   80CHL1   H2A 8374   4.843   4.935   7.083 -0.6443 -0.8170  2.5573
   80CHL1   H2B 8375   4.930   5.086   7.125 -1.4342  2.7441 -2.8603
   80CHL1   C20 8376   4.714   5.303   8.036  0.6278 -0.3896  0.0319
   80CHL1   H20 8377   4.805   5.365   8.045  1.5999 -1.7165 -0.3933
   80CHL1   C21 8378   4.758   5.159   8.065 -0.1475  0.4400  0.0424
   80CHL1  H21A 8379   4.797   5.153   8.168  0.8211  2.9117 -0.1122
   80CHL1  H21B 8380   4.822   5.106   7.991 -0.8191  1.2352 -1.1499
   80CHL1  H21C 8381   4.666   5.096   8.071  0.3479 -0.1184  2.6231
   80CHL1   C22 8382   4.615   5.351   8.142  0.2922  0.1060  0.1258
   80CHL1  H22A 8383   4.583   5.456   8.126  1.9092  0.4646 -0.9607
   80CHL1  H22B 8384   4.525   5.286   8.132  1.3762 -1.4950  0.4539
   80CHL1   C23 8385   4.656   5.327   8.285  0.2201  0.1887 -0.0551
   80CHL1  H23A 8386   4.663   5.219   8.311 -0.6051  0.3157  0.7353
   80CHL1  H23B 8387   4.759   5.367   8.294 -0.0227  1.4688 -2.3040
   80CHL1   C24 8388   4.559   5.387   8.380 -0.1225  0.3029 -0.2178
   80CHL1  H24A 8389   4.572   5.497   8.375  1.2151  0.2128  0.7242
   80CHL1  H24B 8390   4.454   5.364   8.351  0.5141  1.0064 -3.5071
   80CHL1   C25 8391   4.595   5.346   8.524 -0.0745  0.4556 -0.6089
   80CHL1   H25 8392   4.621   5.238   8.528 -0.5767  0.3682  1.1928
   80CHL1   C26 8393   4.710   5.429   8.586  0.0131 -0.6196 -0.6751
   80CHL1  H26A 8394   4.795   5.430   8.515 -0.1756  0.9787 -0.8993
   80CHL1  H26B 8395   4.679   5.535   8.595  1.5264 -0.1848 -0.3079
   80CHL1  H26C 8396   4.747   5.411   8.689 -0.5813 -2.1571 -0.7027
   80CHL1   C27 8397   4.472   5.361   8.608  0.4308  0.3963 -0.7832
   80CHL1  H27A 8398   4.426   5.260   8.615  0.5038  0.2147 -2.5430
   80CHL1  H27B 8399   4.495   5.389   8.714 -0.2543  1.6742 -0.9537
   80CHL1  H27C 8400   4.399   5.436   8.573  1.2301  2.1976  1.1794
   81CHL1    C3 8401   2.805   3.836   6.837 -0.4471 -0.6571 -0.7198
   81CHL1    H3 8402   2.908   3.795   6.824 -0.4433 -0.6441 -0.7310
   81CHL1    O3 8403   2.754   3.855   6.715 -0.3216  0.0205 -0.3723
   81CHL1   H3' 8404   2.786   3.944   6.701 -1.1366  0.5812  1.1366
   81CHL1    C4 8405   2.709   3.736   6.915  0.1527 -0.6820  0.5443
   81CHL1   H4A 8406   2.612   3.791   6.916 -0.2243 -1.1981 -2.0704
   81CHL1   H4B 8407   2.687   3.644   6.857  1.4381 -1.3773  1.1173
   81CHL1    C5 8408   2.766   3.720   7.048  0.0645 -0.1208  0.1316
   81CHL1    C6 8409   2.795   3.599   7.102 -0.6255 -1.0754  0.0244
   81CHL1    H6 8410   2.766   3.509   7.046 -0.6072 -0.1805 -1.4656
   81CHL1    C7 8411   2.825   3.576   7.246  0.4495  0.1878 -0.5757
   81CHL1   H7A 8412   2.765   3.493   7.291 -0.4302  2.1019  2.0070
   81CHL1   H7B 8413   2.931   3.547   7.260 -0.3103 -3.0288 -0.6399
   81CHL1    C8 8414   2.795   3.700   7.335 -0.2471  0.6406 -0.5439
   81CHL1    H8 8415   2.687   3.704   7.357  0.2798  1.9527  2.2507
   81CHL1   C14 8416   2.871   3.693   7.468 -0.3262  0.4786 -0.1949
   81CHL1   H14 8417   2.977   3.699   7.434  0.2943 -1.8370  1.1054
   81CHL1   C15 8418   2.851   3.562   7.548 -0.1379 -0.3713  0.1370
   81CHL1  H15A 8419   2.745   3.529   7.549  0.6781 -3.2536  1.6599
   81CHL1  H15B 8420   2.923   3.486   7.511  2.0500  1.1237  1.1215
   81CHL1   C16 8421   2.885   3.602   7.691 -0.0897  0.2029  0.3795
   81CHL1  H16A 8422   2.792   3.596   7.751 -1.7880  2.4623 -1.7795
   81CHL1  H16B 8423   2.975   3.546   7.724 -0.9136 -1.2516  0.2314
   81CHL1   C17 8424   2.923   3.757   7.692  0.5323 -0.3024  0.2555
   81CHL1   H17 8425   3.032   3.765   7.670  0.7948 -0.9204  1.2560
   81CHL1   C13 8426   2.850   3.809   7.560  0.5651  0.2574 -0.4898
   81CHL1   C18 8427   2.696   3.812   7.590  0.5299 -0.4715  0.6732
   81CHL1  H18A 8428   2.655   3.883   7.665 -3.0403  1.4342 -2.7211
   81CHL1  H18B 8429   2.637   3.834   7.499 -0.1238  0.8934  1.3998
   81CHL1  H18C 8430   2.663   3.709   7.618  0.7261 -1.4066 -2.2281
   81CHL1   C12 8431   2.910   3.929   7.494 -0.1250  0.2615  0.3309
   81CHL1  H12A 8432   2.907   4.024   7.552 -2.3314  0.3257  0.1902
   81CHL1  H12B 8433   3.016   3.908   7.468 -0.1979 -0.9267  0.9245
   81CHL1   C11 8434   2.841   3.951   7.362 -0.0421 -0.1746 -0.6568
   81CHL1  H11A 8435   2.741   3.992   7.389 -0.2306 -1.4690  0.7744
   81CHL1  H11B 8436   2.901   4.033   7.317  0.8804  1.2056  2.7610
   81CHL1    C9 8437   2.841   3.829   7.259 -0.3366 -0.7562  0.3601
   81CHL1    H9 8438   2.947   3.816   7.228 -0.4051 -2.8578  0.8585
   81CHL1   C10 8439   2.774   3.855   7.126 -0.2043  0.8675  0.1169
   81CHL1   C19 8440   2.635   3.907   7.161 -0.7719 -0.6664  0.4554
   81CHL1  H19A 8441   2.568   3.829   7.204  0.1703 -2.3364 -1.0016
   81CHL1  H19B 8442   2.635   4.001   7.220  1.4253 -1.0415  1.1389
   81CHL1  H19C 8443   2.580   3.931   7.068  0.0464 -0.9787 -0.1138
   81CHL1    C1 8444   2.852   3.968   7.049  0.1729  0.0756  0.3814
   81CHL1   H1A 8445   2.822   4.060   7.104 -1.2675 -0.3185  0.2891
   81CHL1   H1B 8446   2.962   3.954   7.053  0.4743  1.5023 -1.6832
   81CHL1    C2 8447   2.806   3.978   6.898  0.5972  0.7090  0.6917
   81CHL1   H2A 8448   2.887   4.037   6.850  1.3477 -1.3759 -0.7584
   81CHL1   H2B 8449   2.704   4.021   6.889 -0.5141 -1.2654  2.8040
   81CHL1   C20 8450   2.897   3.825   7.826 -0.2384 -0.4258 -0.3599
   81CHL1   H20 8451   2.787   3.821   7.844 -0.2441  0.5575 -0.1194
   81CHL1   C21 8452   2.947   3.969   7.829  0.5257 -0.2547 -0.3576
   81CHL1  H21A 8453   2.897   4.020   7.744 -0.4428  1.1418  0.9946
   81CHL1  H21B 8454   3.056   3.973   7.811  1.2260 -3.2121  2.3759
   81CHL1  H21C 8455   2.921   4.021   7.924 -4.2390  0.4455 -1.7794
   81CHL1   C22 8456   2.965   3.736   7.934  0.1588  0.0082  0.5241
   81CHL1  H22A 8457   2.919   3.634   7.931 -0.2405  0.1767 -2.7547
   81CHL1  H22B 8458   3.071   3.731   7.902  0.0035  3.5500 -1.0277
   81CHL1   C23 8459   2.962   3.798   8.075 -0.3632  0.0379  0.0100
   81CHL1  H23A 8460   3.012   3.897   8.084 -0.8049  0.1413  1.7971
   81CHL1  H23B 8461   2.856   3.824   8.100 -0.5075 -1.9250  1.6828
   81CHL1   C24 8462   3.009   3.698   8.179 -0.6988 -0.3148 -0.4440
   81CHL1  H24A 8463   2.940   3.611   8.179 -0.7963 -0.2368 -0.5556
   81CHL1  H24B 8464   3.111   3.658   8.162 -0.6655 -0.0081 -0.9980
   81CHL1   C25 8465   3.012   3.763   8.320  0.1296 -0.1695 -0.4624
   81CHL1   H25 8466   3.054   3.866   8.315 -0.5008  0.2654  1.8436
   81CHL1   C26 8467   2.865   3.776   8.373  0.2539 -0.0689  0.7199
   81CHL1  H26A 8468   2.815   3.678   8.380 -0.7886  0.1457 -2.1933
   81CHL1  H26B 8469   2.890   3.836   8.463  1.8710  1.8674 -0.8871
   81CHL1  H26C 8470   2.800   3.839   8.307 -1.9201 -0.2320  2.5872
   81CHL1   C27 8471   3.106   3.685   8.415 -0.1127  0.0834 -0.9469
   81CHL1  H27A 8472   3.066   3.581   8.416 -1.6359  0.6521  0.1147
   81CHL1  H27B 8473   3.211   3.683   8.378  0.5188  0.8379  0.7064
   81CHL1  H27C 8474   3.114   3.726   8.517 -0.0191 -0.5942 -0.6730
   82CHL1    C3 8475   3.018   5.825   7.021  0.1967  0.4908  0.6786
   82CHL1    H3 8476   3.071   5.922   7.033  1.0947 -0.0533  1.2025
   82CHL1    O3 8477   2.976   5.807   6.884 -0.0513  0.2942 -0.5595
   82CHL1   H3' 8478   2.928   5.724   6.883 -1.8921  1.2884  0.2888
   82CHL1    C4 8479   3.103   5.710   7.055 -0.8423 -0.2783 -0.7838
   82CHL1   H4A 8480   3.038   5.620   7.045 -2.1421  0.6531 -0.8528
   82CHL1   H4B 8481   3.190   5.685   6.991 -0.5604 -0.1024 -0.4721
   82CHL1    C5 8482   3.150   5.723   7.205 -0.2272  0.3577  0.3233
   82CHL1    C6 8483   3.281   5.712   7.232 -0.2490 -1.1549  0.0463
   82CHL1    H6 8484   3.357   5.693   7.155  2.1401  0.0545  1.9852
   82CHL1    C7 8485   3.329   5.710   7.375 -0.0352  0.2076  0.7453
   82CHL1   H7A 8486   3.394   5.621   7.387 -0.8917 -0.2401  2.4587
   82CHL1   H7B 8487   3.394   5.796   7.400  0.0190  0.0728  1.0740
   82CHL1    C8 8488   3.214   5.688   7.477 -0.2323 -0.5208  0.0877
   82CHL1    H8 8489   3.189   5.580   7.482 -1.2257 -0.3190 -0.3430
   82CHL1   C14 8490   3.266   5.739   7.615 -0.0693  0.7326  0.3936
   82CHL1   H14 8491   3.290   5.845   7.591  0.5219  0.5797  0.2824
   82CHL1   C15 8492   3.399   5.694   7.673 -0.3240 -0.2758 -0.1941
   82CHL1  H15A 8493   3.388   5.584   7.687 -1.3744 -0.5568 -2.7698
   82CHL1  H15B 8494   3.492   5.720   7.619  1.7107 -1.7880  2.3256
   82CHL1   C16 8495   3.395   5.764   7.814  0.1344 -0.3036  0.0381
   82CHL1  H16A 8496   3.433   5.681   7.878  0.9814  0.8538  1.0982
   82CHL1  H16B 8497   3.468   5.848   7.819 -0.8646  0.7596 -2.1564
   82CHL1   C17 8498   3.258   5.817   7.845 -0.2824  0.6750  0.4444
   82CHL1   H17 8499   3.272   5.925   7.824  1.7086  0.3018 -0.3634
   82CHL1   C13 8500   3.173   5.753   7.728  0.5271  0.6302 -0.0530
   82CHL1   C18 8501   3.140   5.605   7.759 -0.4512 -0.2565 -1.2923
   82CHL1  H18A 8502   3.234   5.554   7.789 -0.5429  0.7727  0.8788
   82CHL1  H18B 8503   3.065   5.610   7.840 -0.6061  1.0947 -1.5050
   82CHL1  H18C 8504   3.088   5.551   7.677 -2.4038  0.2451 -0.4275
   82CHL1   C12 8505   3.048   5.836   7.684 -0.3222  0.2756 -0.0114
   82CHL1  H12A 8506   2.976   5.836   7.769 -0.1142  2.2870  0.2201
   82CHL1  H12B 8507   3.094   5.937   7.673 -0.4889  0.5291  1.4154
   82CHL1   C11 8508   2.991   5.771   7.554 -0.2855  0.6835 -0.1799
   82CHL1  H11A 8509   2.956   5.668   7.575 -0.2664  0.6238 -0.4363
   82CHL1  H11B 8510   2.904   5.828   7.516  1.2959  1.2729 -3.2917
   82CHL1    C9 8511   3.095   5.773   7.438 -0.0327  0.1003  0.6801
   82CHL1    H9 8512   3.144   5.872   7.426  0.9250 -0.2854  1.2837
   82CHL1   C10 8513   3.031   5.734   7.304 -0.5605 -0.2321  0.5314
   82CHL1   C19 8514   2.943   5.610   7.319  0.0472 -0.2066 -0.3154
   82CHL1  H19A 8515   2.923   5.574   7.216 -0.6570 -1.3038  0.1908
   82CHL1  H19B 8516   3.006   5.537   7.374  0.4147 -0.5888 -1.2172
   82CHL1  H19C 8517   2.845   5.637   7.364 -0.0987 -0.5299 -0.4412
   82CHL1    C1 8518   2.943   5.856   7.260  0.3719  0.6106 -0.1128
   82CHL1   H1A 8519   2.862   5.873   7.334 -1.4760  0.5817 -2.0196
   82CHL1   H1B 8520   3.008   5.946   7.262  0.1937  0.8244 -1.9515
   82CHL1    C2 8521   2.894   5.834   7.119  0.7275  0.4206 -0.1674
   82CHL1   H2A 8522   2.836   5.921   7.081  3.1503  1.5309 -1.5906
   82CHL1   H2B 8523   2.838   5.742   7.093  1.7108 -0.5398  0.9899
   82CHL1   C20 8524   3.223   5.807   7.994 -0.0088 -0.0945  0.2803
   82CHL1   H20 8525   3.217   5.698   8.017  3.1002 -0.3518  0.2354
   82CHL1   C21 8526   3.090   5.877   8.022  0.2783  0.6338  0.7441
   82CHL1  H21A 8527   3.074   5.900   8.130 -1.5196 -0.0831  0.6641
   82CHL1  H21B 8528   3.004   5.815   7.990  2.3750 -2.0062 -0.1694
   82CHL1  H21C 8529   3.084   5.968   7.959  2.2188 -0.6696 -1.5071
   82CHL1   C22 8530   3.334   5.869   8.083 -0.1531 -0.4969 -0.5650
   82CHL1  H22A 8531   3.432   5.820   8.067 -0.2221 -2.6051  3.9682
   82CHL1  H22B 8532   3.354   5.977   8.070  1.0543 -0.3302  1.9887
   82CHL1   C23 8533   3.306   5.855   8.238 -0.6086 -0.2357 -0.1409
   82CHL1  H23A 8534   3.215   5.910   8.270  0.2287 -0.2746  2.5406
   82CHL1  H23B 8535   3.289   5.747   8.258 -0.9716 -0.3498 -1.0422
   82CHL1   C24 8536   3.419   5.918   8.323 -0.2030 -0.9045 -1.1696
   82CHL1  H24A 8537   3.439   6.022   8.289  0.6754 -0.0917  1.5726
   82CHL1  H24B 8538   3.371   5.932   8.423 -1.0689 -1.3204 -1.5183
   82CHL1   C25 8539   3.536   5.828   8.345  0.4847  0.7326 -0.6496
   82CHL1   H25 8540   3.584   5.816   8.246 -0.2660  0.9307 -1.0455
   82CHL1   C26 8541   3.632   5.910   8.435  0.0829  0.0840  0.2019
   82CHL1  H26A 8542   3.591   5.916   8.538  1.2990  0.7940  0.6690
   82CHL1  H26B 8543   3.729   5.856   8.446  0.2107  0.2905  0.0853
   82CHL1  H26C 8544   3.660   6.009   8.395  1.6994 -0.6480 -0.5964
   82CHL1   C27 8545   3.524   5.693   8.419 -0.2598  0.3881  0.2404
   82CHL1  H27A 8546   3.464   5.709   8.512  0.5604 -0.5773  0.9631
   82CHL1  H27B 8547   3.475   5.619   8.352  0.8483  1.0372 -1.3390
   82CHL1  H27C 8548   3.622   5.647   8.443 -0.0447 -0.5950 -2.2664
   83CHL1    C3 8549   6.553   6.058   6.888  0.4441  0.0827 -0.4773
   83CHL1    H3 8550   6.617   6.146   6.909 -0.1810 -0.1029  2.6840
   83CHL1    O3 8551   6.560   6.026   6.746 -0.2474 -0.1989  0.4123
   83CHL1   H3' 8552   6.542   5.935   6.723  1.7010 -0.0180 -2.4007
   83CHL1    C4 8553   6.603   5.934   6.962  0.1602  0.8208  0.4186
   83CHL1   H4A 8554   6.534   5.852   6.937  0.6545 -0.1979  2.1753
   83CHL1   H4B 8555   6.697   5.891   6.921 -0.1177 -0.7532  1.3376
   83CHL1    C5 8556   6.602   5.950   7.112 -0.1113  0.2312 -0.5085
   83CHL1    C6 8557   6.719   5.933   7.180  0.4579 -0.3913 -0.8816
   83CHL1    H6 8558   6.808   5.888   7.134  0.8851  0.5168 -0.9827
   83CHL1    C7 8559   6.728   5.969   7.326  0.0618 -0.3921  0.6113
   83CHL1   H7A 8560   6.790   5.890   7.372 -0.6285 -2.5369 -1.8818
   83CHL1   H7B 8561   6.772   6.070   7.344 -1.8134  0.1978  2.1466
   83CHL1    C8 8562   6.587   5.970   7.395 -0.6980  0.3299  0.4940
   83CHL1    H8 8563   6.558   5.864   7.406 -0.6226  0.3801  1.2999
   83CHL1   C14 8564   6.596   6.041   7.534  0.4763 -0.7783 -0.5196
   83CHL1   H14 8565   6.621   6.148   7.519 -0.6058 -0.6565 -1.6181
   83CHL1   C15 8566   6.707   6.001   7.629 -0.4305 -0.2938  0.1781
   83CHL1  H15A 8567   6.713   5.891   7.627 -3.1407 -0.5200  1.0615
   83CHL1  H15B 8568   6.800   6.056   7.601 -1.5929  0.8708 -1.6098
   83CHL1   C16 8569   6.656   6.043   7.768 -0.0776 -0.2071 -0.5652
   83CHL1  H16A 8570   6.648   5.953   7.834  1.1732 -0.4554 -0.7276
   83CHL1  H16B 8571   6.724   6.121   7.809  1.5331 -0.8312 -1.9576
   83CHL1   C17 8572   6.512   6.102   7.752 -0.0033 -0.0888  0.5662
   83CHL1   H17 8573   6.534   6.210   7.740  0.3087 -0.1078  0.9558
   83CHL1   C13 8574   6.468   6.042   7.615  0.4325  0.6368  0.4443
   83CHL1   C18 8575   6.402   5.902   7.635  0.9974  0.1592 -0.2336
   83CHL1  H18A 8576   6.457   5.835   7.704  2.4841  0.5031 -1.0342
   83CHL1  H18B 8577   6.298   5.908   7.674  1.7919  0.1679  2.0282
   83CHL1  H18C 8578   6.404   5.850   7.536  0.5294  0.9221 -0.6522
   83CHL1   C12 8579   6.362   6.119   7.545  0.3000 -0.3131  1.2169
   83CHL1  H12A 8580   6.261   6.089   7.580 -0.0545 -1.4595 -0.6728
   83CHL1  H12B 8581   6.374   6.229   7.559 -1.1525  0.1050 -0.4580
   83CHL1   C11 8582   6.354   6.073   7.392 -0.3206  0.0084  0.2197
   83CHL1  H11A 8583   6.284   5.986   7.389  1.8291 -1.8327  0.6602
   83CHL1  H11B 8584   6.292   6.157   7.352  0.9553  0.5266 -0.7506
   83CHL1    C9 8585   6.490   6.059   7.315 -0.6465  0.5434 -0.7509
   83CHL1    H9 8586   6.530   6.162   7.301  0.5424  0.3514  0.8451
   83CHL1   C10 8587   6.465   6.006   7.168  0.7380  0.4247 -0.6672
   83CHL1   C19 8588   6.370   5.885   7.174 -0.3982 -0.2376  0.1867
   83CHL1  H19A 8589   6.399   5.808   7.248 -0.0120 -0.5942 -0.3296
   83CHL1  H19B 8590   6.263   5.903   7.196 -0.7618  1.3013 -2.3592
   83CHL1  H19C 8591   6.363   5.827   7.079  0.6864  0.9405 -0.6555
   83CHL1    C1 8592   6.406   6.117   7.081 -0.8948 -0.9834 -0.0243
   83CHL1   H1A 8593   6.307   6.152   7.119 -0.7944 -1.4164  0.6561
   83CHL1   H1B 8594   6.477   6.202   7.089 -1.0930 -0.6910 -1.2206
   83CHL1    C2 8595   6.403   6.084   6.928 -0.1447  0.1582 -0.3638
   83CHL1   H2A 8596   6.355   6.165   6.869 -0.1796 -0.1236 -0.7298
   83CHL1   H2B 8597   6.339   5.996   6.904 -0.3950 -0.1912  1.4643
   83CHL1   C20 8598   6.424   6.084   7.882  0.7012  0.5297  0.3015
   83CHL1   H20 8599   6.399   5.976   7.884  1.2829  0.3968  0.3209
   83CHL1   C21 8600   6.302   6.175   7.866  0.7107 -0.0159 -0.5052
   83CHL1  H21A 8601   6.230   6.154   7.948  1.6340  0.9656  0.5967
   83CHL1  H21B 8602   6.249   6.159   7.770 -0.5026 -0.2093  0.1731
   83CHL1  H21C 8603   6.322   6.281   7.892 -0.7622  0.0751  0.3885
   83CHL1   C22 8604   6.506   6.110   8.010 -0.1844 -0.2014  0.1459
   83CHL1  H22A 8605   6.573   6.024   8.032 -2.0236 -1.8274 -0.3890
   83CHL1  H22B 8606   6.575   6.196   7.998 -1.1575  0.9698  2.3059
   83CHL1   C23 8607   6.424   6.131   8.141 -0.4405  0.4092  0.6554
   83CHL1  H23A 8608   6.370   6.228   8.143 -1.5351 -0.1959  1.1757
   83CHL1  H23B 8609   6.338   6.060   8.141  0.1655 -0.3477 -0.0824
   83CHL1   C24 8610   6.508   6.129   8.265 -0.0691  0.2670 -0.4289
   83CHL1  H24A 8611   6.525   6.025   8.301 -0.7261  0.2246 -0.2174
   83CHL1  H24B 8612   6.607   6.177   8.250  0.3923  0.3092  2.2516
   83CHL1   C25 8613   6.430   6.201   8.383 -0.4289  0.2086  0.2546
   83CHL1   H25 8614   6.373   6.287   8.340  1.5321  1.4868  0.0803
   83CHL1   C26 8615   6.323   6.105   8.436  0.0515 -0.4524  0.3477
   83CHL1  H26A 8616   6.256   6.099   8.347 -1.0586  0.2055  1.1210
   83CHL1  H26B 8617   6.377   6.011   8.462 -1.2126 -1.3187 -0.0799
   83CHL1  H26C 8618   6.263   6.141   8.522 -3.0869 -3.3259 -0.4468
   83CHL1   C27 8619   6.524   6.244   8.495 -0.6744  0.0453 -0.2636
   83CHL1  H27A 8620   6.466   6.286   8.580  0.8297  1.8447 -0.0512
   83CHL1  H27B 8621   6.591   6.159   8.516 -0.9940 -0.0355  0.4564
   83CHL1  H27C 8622   6.592   6.326   8.462 -1.6775  2.0566  2.3172
   84CHL1    C3 8623   2.335   3.021   6.867 -0.4767 -0.8051  0.2827
   84CHL1    H3 8624   2.370   2.916   6.877 -1.7505 -1.3418 -0.7292
   84CHL1    O3 8625   2.270   3.047   6.744 -0.0698  0.1174 -0.3163
   84CHL1   H3' 8626   2.228   3.133   6.753  0.1910  0.0554  2.1846
   84CHL1    C4 8627   2.249   3.078   6.977 -0.5155  0.3142 -0.4283
   84CHL1   H4A 8628   2.209   3.179   6.955 -2.8475 -0.5667 -0.4999
   84CHL1   H4B 8629   2.161   3.011   6.976 -0.8423  0.6459  1.7907
   84CHL1    C5 8630   2.308   3.067   7.110  0.8421 -0.0690  0.1606
   84CHL1    C6 8631   2.257   2.997   7.214  0.9528 -0.1156  0.6314
   84CHL1    H6 8632   2.161   2.943   7.211  0.9970 -0.3291  2.2472
   84CHL1    C7 8633   2.318   2.969   7.352 -0.2308 -0.2312 -0.1777
   84CHL1   H7A 8634   2.249   3.009   7.430  2.2041 -0.0140  2.0134
   84CHL1   H7B 8635   2.337   2.860   7.361  0.3074 -0.1275  0.0008
   84CHL1    C8 8636   2.443   3.059   7.378 -0.8423  0.3990 -0.1380
   84CHL1    H8 8637   2.407   3.163   7.391 -1.8234  0.3266 -1.8657
   84CHL1   C14 8638   2.527   3.012   7.496  0.1767  0.1604  0.4918
   84CHL1   H14 8639   2.563   2.909   7.477 -0.1640  0.4589 -2.1392
   84CHL1   C15 8640   2.449   2.992   7.621  0.2418  0.1723 -0.9448
   84CHL1  H15A 8641   2.378   3.077   7.613 -2.0689 -1.6459 -1.0253
   84CHL1  H15B 8642   2.400   2.892   7.621 -0.4770  0.5001 -2.0643
   84CHL1   C16 8643   2.556   3.017   7.728 -0.5585  0.0947  0.3621
   84CHL1  H16A 8644   2.530   3.103   7.793 -2.2362  0.2605 -0.4763
   84CHL1  H16B 8645   2.569   2.938   7.805  1.2638  0.3757  0.3852
   84CHL1   C17 8646   2.695   3.051   7.657 -0.0923 -0.2080 -1.4513
   84CHL1   H17 8647   2.750   2.954   7.648 -1.7858 -1.1939 -1.6444
   84CHL1   C13 8648   2.645   3.102   7.519  0.1097  0.1813  0.5787
   84CHL1   C18 8649   2.620   3.254   7.535 -0.0805  0.1480  0.5979
   84CHL1  H18A 8650   2.575   3.301   7.445 -1.9481 -0.9412  0.8902
   84CHL1  H18B 8651   2.549   3.271   7.619 -1.5218  0.7996 -0.7006
   84CHL1  H18C 8652   2.721   3.296   7.548  1.5058 -2.2250 -2.4938
   84CHL1   C12 8653   2.743   3.060   7.399  0.6920 -0.6612  0.0179
   84CHL1  H12A 8654   2.837   3.118   7.412  0.5253 -0.1358 -1.0199
   84CHL1  H12B 8655   2.770   2.953   7.412 -0.3796 -0.6673  2.7496
   84CHL1   C11 8656   2.676   3.103   7.263 -0.1587  0.1829  0.0638
   84CHL1  H11A 8657   2.691   3.212   7.253 -0.7939  0.3824  1.1074
   84CHL1  H11B 8658   2.733   3.051   7.184 -3.3143 -0.7033 -1.8089
   84CHL1    C9 8659   2.524   3.062   7.243 -0.3263  0.6388  0.0447
   84CHL1    H9 8660   2.528   2.954   7.218  2.8996  0.5187  0.5669
   84CHL1   C10 8661   2.451   3.124   7.123 -0.1310  0.3755 -0.3205
   84CHL1   C19 8662   2.443   3.278   7.150  0.1772 -1.0582  0.4025
   84CHL1  H19A 8663   2.538   3.335   7.152 -0.7468  0.5818 -0.0247
   84CHL1  H19B 8664   2.386   3.336   7.073 -2.5757 -2.7361  1.0208
   84CHL1  H19C 8665   2.390   3.299   7.245 -0.5153 -1.4408  0.1158
   84CHL1    C1 8666   2.543   3.101   6.996 -0.4008  0.6748 -0.4032
   84CHL1   H1A 8667   2.627   3.174   6.993  0.8638 -0.7781 -1.1971
   84CHL1   H1B 8668   2.585   2.999   7.002 -1.5543  0.2216  0.3100
   84CHL1    C2 8669   2.470   3.099   6.863 -0.3133 -0.1297 -0.0781
   84CHL1   H2A 8670   2.530   3.053   6.782 -1.7645 -0.2166 -1.1424
   84CHL1   H2B 8671   2.458   3.207   6.839 -0.4568  0.6510  3.1304
   84CHL1   C20 8672   2.783   3.145   7.747  0.7459  0.7568 -0.5219
   84CHL1   H20 8673   2.730   3.242   7.758 -0.5065 -0.0006  0.3988
   84CHL1   C21 8674   2.930   3.161   7.687 -0.1429  0.1022 -0.0967
   84CHL1  H21A 8675   2.972   3.060   7.666  1.0685  0.3728  0.9509
   84CHL1  H21B 8676   2.993   3.216   7.761 -2.7994  0.6441  1.9005
   84CHL1  H21C 8677   2.910   3.215   7.592 -1.0526 -0.1545 -0.0594
   84CHL1   C22 8678   2.795   3.085   7.883 -0.9234  0.5104 -0.3275
   84CHL1  H22A 8679   2.695   3.062   7.926 -0.5402 -2.4181 -0.8375
   84CHL1  H22B 8680   2.849   2.991   7.860 -1.5965 -0.4108  1.6626
   84CHL1   C23 8681   2.869   3.174   7.986 -0.0891  0.6316 -0.8102
   84CHL1  H23A 8682   2.977   3.192   7.968 -0.1415  2.2375  0.2996
   84CHL1  H23B 8683   2.819   3.273   7.986 -2.4419 -0.3725  2.3929
   84CHL1   C24 8684   2.844   3.108   8.129 -0.2936 -0.3933  0.2891
   84CHL1  H24A 8685   2.734   3.106   8.143 -0.5066  0.9881 -0.9806
   84CHL1  H24B 8686   2.895   3.009   8.128 -0.1335 -0.3646 -2.3903
   84CHL1   C25 8687   2.908   3.197   8.247 -0.0123  0.6962 -0.3344
   84CHL1   H25 8688   3.006   3.224   8.202 -0.4356  3.3740  0.1793
   84CHL1   C26 8689   2.831   3.333   8.286  0.4356  0.5855  0.0183
   84CHL1  H26A 8690   2.734   3.309   8.333  0.6538 -1.9452 -0.6751
   84CHL1  H26B 8691   2.896   3.397   8.350  1.2505 -0.8760  0.6960
   84CHL1  H26C 8692   2.820   3.386   8.189  2.5007  1.2371  0.0843
   84CHL1   C27 8693   2.927   3.110   8.371 -0.6530 -0.1014  0.3849
   84CHL1  H27A 8694   2.829   3.063   8.397  0.5186 -2.0149  1.5646
   84CHL1  H27B 8695   3.000   3.031   8.346  1.7997  0.9490  3.4465
   84CHL1  H27C 8696   2.967   3.170   8.456  0.1548  2.1869 -1.5043
   85CHL1    C3 8697   0.928   5.781   6.667  0.0786  0.3851 -0.0139
   85CHL1    H3 8698   0.911   5.675   6.692 -2.6981  0.8194  0.2560
   85CHL1    O3 8699   0.920   5.801   6.521 -0.2156 -0.2013  0.0020
   85CHL1   H3' 8700   0.928   5.713   6.482  0.3885  0.6662 -1.9410
   85CHL1    C4 8701   0.822   5.863   6.745  0.1333 -0.0346 -0.5749
   85CHL1   H4A 8702   0.817   5.972   6.726  0.5242  0.4510  1.7797
   85CHL1   H4B 8703   0.726   5.825   6.704  0.1714 -0.6266 -0.1208
   85CHL1    C5 8704   0.820   5.851   6.896  0.1856  0.0562  0.1528
   85CHL1    C6 8705   0.714   5.817   6.968  0.0692 -0.0792 -0.3905
   85CHL1    H6 8706   0.613   5.804   6.926 -1.0685  1.5460  1.6272
   85CHL1    C7 8707   0.705   5.799   7.124 -0.0545 -0.2745  0.0602
   85CHL1   H7A 8708   0.624   5.865   7.164 -0.1910  0.5499 -1.5056
   85CHL1   H7B 8709   0.682   5.696   7.159 -1.9590 -0.2257 -0.8839
   85CHL1    C8 8710   0.837   5.849   7.193 -0.1987  0.3661 -0.1760
   85CHL1    H8 8711   0.828   5.960   7.202  0.0592  0.4189 -0.5460
   85CHL1   C14 8712   0.853   5.783   7.331 -0.2198  0.8433 -0.3566
   85CHL1   H14 8713   0.858   5.678   7.296 -1.5465  1.2275 -1.7731
   85CHL1   C15 8714   0.744   5.784   7.442 -0.7342 -0.4045 -1.0174
   85CHL1  H15A 8715   0.686   5.878   7.450  0.2834  0.1680 -0.1703
   85CHL1  H15B 8716   0.671   5.706   7.413 -0.1280 -2.1606  1.8001
   85CHL1   C16 8717   0.816   5.738   7.569  0.4411 -0.3834  0.1806
   85CHL1  H16A 8718   0.794   5.810   7.649 -2.5510 -0.8787 -0.0852
   85CHL1  H16B 8719   0.772   5.640   7.598  1.8697 -0.9422  0.5465
   85CHL1   C17 8720   0.961   5.715   7.523  0.0944 -0.6291 -0.6168
   85CHL1   H17 8721   0.961   5.609   7.488  0.1977 -1.1690  0.9302
   85CHL1   C13 8722   0.986   5.806   7.402 -0.3855 -0.2168 -0.1414
   85CHL1   C18 8723   0.995   5.959   7.449 -0.6602  0.5031  0.2428
   85CHL1  H18A 8724   1.097   5.985   7.484 -0.8370  0.4273  0.8269
   85CHL1  H18B 8725   0.983   6.020   7.356 -0.2815 -2.5181 -1.9351
   85CHL1  H18C 8726   0.916   5.984   7.523 -0.9069 -0.0973  0.1901
   85CHL1   C12 8727   1.103   5.770   7.315 -0.7355 -0.2146  0.5897
   85CHL1  H12A 8728   1.199   5.793   7.366 -0.3671 -0.9958  0.2595
   85CHL1  H12B 8729   1.104   5.661   7.294 -1.2958 -0.1247  0.0512
   85CHL1   C11 8730   1.099   5.835   7.180  0.1332 -0.1505  0.4637
   85CHL1  H11A 8731   1.113   5.945   7.185 -1.1094 -0.0008  0.8492
   85CHL1  H11B 8732   1.187   5.803   7.120 -1.3102 -1.3407 -1.1140
   85CHL1    C9 8733   0.960   5.812   7.105 -0.4121 -0.2395  0.0772
   85CHL1    H9 8734   0.960   5.702   7.089 -1.2287 -0.0198 -1.5718
   85CHL1   C10 8735   0.957   5.872   6.959 -0.2183 -0.3599  0.2538
   85CHL1   C19 8736   1.002   6.022   6.956 -0.6815 -0.1919  0.2543
   85CHL1  H19A 8737   1.108   6.039   6.983  0.8847 -2.9007 -3.4162
   85CHL1  H19B 8738   0.989   6.061   6.853 -1.6464  0.7102  0.6898
   85CHL1  H19C 8739   0.931   6.077   7.022  0.6893  0.3309  1.3372
   85CHL1    C1 8740   1.066   5.790   6.883  0.4363 -0.2202  0.1293
   85CHL1   H1A 8741   1.172   5.799   6.915  0.5499 -0.4712 -0.1710
   85CHL1   H1B 8742   1.028   5.686   6.890  0.7518 -0.3000  0.8202
   85CHL1    C2 8743   1.069   5.823   6.731  0.4511  0.4153  0.5899
   85CHL1   H2A 8744   1.149   5.762   6.684 -0.8175 -1.4453  0.7295
   85CHL1   H2B 8745   1.085   5.929   6.702 -1.6095  0.5189 -0.3733
   85CHL1   C20 8746   1.061   5.710   7.637 -0.0823 -0.2899 -0.4038
   85CHL1   H20 8747   1.163   5.707   7.593 -0.3497  0.6390 -1.0990
   85CHL1   C21 8748   1.042   5.581   7.722 -0.2052 -0.6342 -0.3584
   85CHL1  H21A 8749   1.066   5.494   7.657  1.3481 -0.5348  0.0511
   85CHL1  H21B 8750   0.942   5.577   7.770 -0.6177 -1.9646 -1.2504
   85CHL1  H21C 8751   1.117   5.570   7.803  0.1690  0.6382 -0.5154
   85CHL1   C22 8752   1.062   5.828   7.738  0.1063  0.9470  0.3095
   85CHL1  H22A 8753   1.031   5.928   7.700 -0.5195  0.7529  0.2999
   85CHL1  H22B 8754   0.989   5.784   7.810 -1.4605 -1.3897 -2.4779
   85CHL1   C23 8755   1.203   5.853   7.791  0.1332 -0.4695 -0.1335
   85CHL1  H23A 8756   1.266   5.761   7.784  1.1431  0.1374  0.8051
   85CHL1  H23B 8757   1.243   5.931   7.723  1.3050 -0.7459  0.2218
   85CHL1   C24 8758   1.222   5.924   7.929  0.3840 -0.2475  0.4809
   85CHL1  H24A 8759   1.173   6.023   7.932 -0.3370 -0.5040 -1.5864
   85CHL1  H24B 8760   1.163   5.866   8.004 -0.1568  1.1414  1.1636
   85CHL1   C25 8761   1.366   5.941   7.978  0.0256  0.2065 -0.1537
   85CHL1   H25 8762   1.404   5.836   7.980 -1.2373 -0.3272  3.5488
   85CHL1   C26 8763   1.461   6.027   7.880 -0.1427  0.4197 -0.0759
   85CHL1  H26A 8764   1.566   6.007   7.914  0.1032 -1.8386 -1.8626
   85CHL1  H26B 8765   1.459   5.988   7.776  1.5485  0.4298 -0.1453
   85CHL1  H26C 8766   1.422   6.129   7.896  0.7893  0.7836 -0.0347
   85CHL1   C27 8767   1.373   5.997   8.113  0.2412  0.0043 -0.6128
   85CHL1  H27A 8768   1.459   5.966   8.176  0.5634  0.6604 -0.7163
   85CHL1  H27B 8769   1.373   6.108   8.115  0.7828 -0.0008  1.5037
   85CHL1  H27C 8770   1.282   5.968   8.170  1.7503 -0.0978  1.8753
   86CHL1    C3 8771   4.366   5.065   7.022  0.9009 -0.4173  0.9716
   86CHL1    H3 8772   4.438   4.981   7.027  0.7778 -0.5423  0.6948
   86CHL1    O3 8773   4.368   5.127   6.890  0.0949 -0.3830 -0.3396
   86CHL1   H3' 8774   4.316   5.208   6.894 -1.6026 -1.4650  1.6295
   86CHL1    C4 8775   4.218   5.006   7.039  0.5112 -0.3603  0.0858
   86CHL1   H4A 8776   4.137   5.078   7.014  1.1804 -0.2131 -1.7799
   86CHL1   H4B 8777   4.221   4.922   6.967  0.6436 -1.0236  0.8479
   86CHL1    C5 8778   4.192   4.951   7.181 -0.0670  0.5115  0.0968
   86CHL1    C6 8779   4.139   4.828   7.194 -0.5344 -0.1158 -0.9258
   86CHL1    H6 8780   4.112   4.771   7.104 -0.2009 -0.9783 -0.4838
   86CHL1    C7 8781   4.120   4.755   7.328 -0.1597 -0.2224  0.1572
   86CHL1   H7A 8782   4.015   4.721   7.341 -0.2486 -0.0407 -0.0690
   86CHL1   H7B 8783   4.178   4.660   7.327  0.0953 -0.0728 -0.5357
   86CHL1    C8 8784   4.150   4.847   7.452  0.3382 -0.2685 -0.3650
   86CHL1    H8 8785   4.048   4.888   7.469  0.5391 -0.2975  0.9879
   86CHL1   C14 8786   4.174   4.769   7.581  0.9778  0.5579 -0.6729
   86CHL1   H14 8787   4.275   4.725   7.567  0.0323 -0.7386 -4.8215
   86CHL1   C15 8788   4.080   4.645   7.619  0.1231  0.0771 -0.3549
   86CHL1  H15A 8789   3.977   4.678   7.597 -0.7494 -1.3844  1.2946
   86CHL1  H15B 8790   4.110   4.551   7.569  0.1952 -0.5005  0.7424
   86CHL1   C16 8791   4.097   4.628   7.765 -0.2616  0.6862 -0.2154
   86CHL1  H16A 8792   4.004   4.628   7.825  1.3592 -0.9364  2.5094
   86CHL1  H16B 8793   4.149   4.532   7.785 -0.0606  1.3466  2.9244
   86CHL1   C17 8794   4.191   4.744   7.810 -0.5123 -0.1959  0.1951
   86CHL1   H17 8795   4.295   4.711   7.788 -0.3695 -0.3274  1.0649
   86CHL1   C13 8796   4.180   4.856   7.704 -0.2002 -0.4531  0.2479
   86CHL1   C18 8797   4.053   4.936   7.738 -0.0874  0.0962 -0.2768
   86CHL1  H18A 8798   4.037   5.020   7.668  1.7461  0.0164 -0.8354
   86CHL1  H18B 8799   3.961   4.874   7.735  0.3265 -0.4754 -1.9958
   86CHL1  H18C 8800   4.051   4.975   7.842 -0.4070 -1.1597  0.2123
   86CHL1   C12 8801   4.296   4.953   7.680  0.1138  0.7609 -0.0294
   86CHL1  H12A 8802   4.321   5.004   7.776 -1.3661 -1.7915  1.8451
   86CHL1  H12B 8803   4.387   4.897   7.651 -1.0264 -0.5705 -1.1727
   86CHL1   C11 8804   4.280   5.041   7.558 -0.1788  0.3677  0.1972
   86CHL1  H11A 8805   4.194   5.106   7.583  0.3315  1.8448 -1.6341
   86CHL1  H11B 8806   4.367   5.109   7.542 -0.3365  0.3445 -0.8676
   86CHL1    C9 8807   4.252   4.953   7.432 -0.3929 -0.3357 -0.4409
   86CHL1    H9 8808   4.349   4.902   7.412 -0.6039 -0.1985 -1.9439
   86CHL1   C10 8809   4.238   5.038   7.301 -0.8135 -1.1854 -0.1883
   86CHL1   C19 8810   4.125   5.133   7.323 -0.5091 -0.5855  0.1601
   86CHL1  H19A 8811   4.032   5.079   7.351 -1.1301 -0.0584 -0.8518
   86CHL1  H19B 8812   4.165   5.196   7.405 -0.7468 -1.9706  1.3802
   86CHL1  H19C 8813   4.106   5.196   7.233  3.1561  0.0085 -0.3318
   86CHL1    C1 8814   4.370   5.118   7.272 -0.3399  0.7682 -0.3165
   86CHL1   H1A 8815   4.374   5.193   7.354 -1.8591 -1.4716  1.9744
   86CHL1   H1B 8816   4.451   5.052   7.309 -2.1188 -0.1854  2.2080
   86CHL1    C2 8817   4.384   5.175   7.133  0.3815  0.8799 -0.0016
   86CHL1   H2A 8818   4.488   5.212   7.121  1.3970 -1.9000 -0.5123
   86CHL1   H2B 8819   4.311   5.257   7.120 -0.6544 -0.0807 -0.3590
   86CHL1   C20 8820   4.180   4.772   7.963 -0.0046  0.0111 -0.4999
   86CHL1   H20 8821   4.077   4.815   7.969 -0.1921 -0.3483 -1.0720
   86CHL1   C21 8822   4.272   4.884   8.028 -0.4121 -0.0770  0.7041
   86CHL1  H21A 8823   4.240   4.908   8.132  3.5276  1.7992  1.6685
   86CHL1  H21B 8824   4.257   4.975   7.966  1.3321 -2.2179 -3.2401
   86CHL1  H21C 8825   4.380   4.859   8.023  0.0146  1.7297 -0.2268
   86CHL1   C22 8826   4.174   4.655   8.061  0.2493 -0.1679 -0.0036
   86CHL1  H22A 8827   4.144   4.700   8.158 -3.4125  1.1816 -1.5960
   86CHL1  H22B 8828   4.089   4.586   8.043  1.7105 -2.2260  0.5517
   86CHL1   C23 8829   4.297   4.566   8.060 -0.6158 -0.5204 -0.1700
   86CHL1  H23A 8830   4.319   4.530   7.957  0.3417  0.5097 -0.3428
   86CHL1  H23B 8831   4.378   4.636   8.091 -0.9450  0.4431 -1.4138
   86CHL1   C24 8832   4.295   4.448   8.166 -0.6753  0.1850 -0.0053
   86CHL1  H24A 8833   4.253   4.488   8.261 -0.6749  1.6545 -0.5897
   86CHL1  H24B 8834   4.219   4.385   8.114 -1.4517 -0.3402  1.7036
   86CHL1   C25 8835   4.428   4.372   8.195  0.1109  0.7730  0.6790
   86CHL1   H25 8836   4.474   4.352   8.096  1.1538  1.3369  1.0302
   86CHL1   C26 8837   4.538   4.455   8.271  0.5446  0.7084 -0.0618
   86CHL1  H26A 8838   4.545   4.549   8.213 -2.3080  0.1867 -1.3816
   86CHL1  H26B 8839   4.495   4.479   8.370 -0.5021 -0.8519 -0.1086
   86CHL1  H26C 8840   4.625   4.387   8.281 -1.4161 -1.6623  2.4652
   86CHL1   C27 8841   4.407   4.235   8.258  0.2812  0.7832 -0.8825
   86CHL1  H27A 8842   4.348   4.156   8.206  1.6331 -0.2509 -0.8950
   86CHL1  H27B 8843   4.501   4.183   8.285  0.3886  1.1888 -0.4830
   86CHL1  H27C 8844   4.355   4.254   8.354  0.8688 -0.5395 -0.2681
   87CHL1    C3 8845   2.765   2.041   7.099 -0.2320 -0.3608 -0.1108
   87CHL1    H3 8846   2.655   2.045   7.110 -0.3425 -2.2440 -0.1791
   87CHL1    O3 8847   2.810   2.087   6.971 -0.3927 -0.3074  0.6032
   87CHL1   H3' 8848   2.905   2.077   6.971 -0.5765 -2.6908 -0.8076
   87CHL1    C4 8849   2.844   2.129   7.201 -0.0569 -0.2707 -0.7566
   87CHL1   H4A 8850   2.950   2.124   7.167  0.3795 -0.7575  0.6350
   87CHL1   H4B 8851   2.823   2.236   7.178  2.0918  0.5828  0.8953
   87CHL1    C5 8852   2.837   2.095   7.350  0.2471  0.1964  0.8200
   87CHL1    C6 8853   2.786   2.184   7.434 -0.6582 -0.4820  0.0423
   87CHL1    H6 8854   2.765   2.284   7.393 -1.8877 -0.4473  0.6958
   87CHL1    C7 8855   2.761   2.161   7.580 -0.2846 -0.5532 -0.1105
   87CHL1   H7A 8856   2.799   2.248   7.638  0.4136  1.4898 -3.3863
   87CHL1   H7B 8857   2.654   2.136   7.599 -0.1360 -1.3839 -0.3266
   87CHL1    C8 8858   2.831   2.031   7.629 -0.7734  0.5820  0.5642
   87CHL1    H8 8859   2.936   2.056   7.657 -0.8774  1.9304 -0.1420
   87CHL1   C14 8860   2.766   2.000   7.765  0.1507 -0.9912 -0.3397
   87CHL1   H14 8861   2.661   1.972   7.743 -1.7879  3.2257  2.3020
   87CHL1   C15 8862   2.759   2.104   7.869  0.1850 -0.2739 -0.3331
   87CHL1  H15A 8863   2.847   2.169   7.887 -0.5234  1.1410 -1.6346
   87CHL1  H15B 8864   2.684   2.177   7.831  0.8683  0.8809  0.4630
   87CHL1   C16 8865   2.713   2.025   7.991 -0.1226 -0.0171 -0.6839
   87CHL1  H16A 8866   2.764   2.057   8.084 -1.4283 -2.1198  0.8614
   87CHL1  H16B 8867   2.604   2.045   8.002 -0.8065 -1.6955 -3.2507
   87CHL1   C17 8868   2.739   1.872   7.959  0.8583  0.2982 -0.1625
   87CHL1   H17 8869   2.640   1.828   7.933  1.7457 -1.1595 -1.2347
   87CHL1   C13 8870   2.828   1.873   7.835  0.2571  0.7737  0.3570
   87CHL1   C18 8871   2.967   1.904   7.886 -0.6457 -0.7949 -0.1460
   87CHL1  H18A 8872   2.970   1.986   7.961 -0.9037 -0.7859 -0.1431
   87CHL1  H18B 8873   3.020   1.816   7.929  0.3187 -0.6512 -1.0197
   87CHL1  H18C 8874   3.038   1.938   7.808  0.6409 -2.8785  0.0428
   87CHL1   C12 8875   2.814   1.751   7.734  0.8117 -0.2214 -1.0050
   87CHL1  H12A 8876   2.861   1.661   7.778 -0.7810 -0.0658  1.1279
   87CHL1  H12B 8877   2.706   1.733   7.718  1.0430 -0.7125 -2.1404
   87CHL1   C11 8878   2.893   1.783   7.600 -0.3492  0.0126 -0.6834
   87CHL1  H11A 8879   2.997   1.814   7.622  0.2279 -0.5017 -2.5370
   87CHL1  H11B 8880   2.892   1.698   7.529 -3.0592  0.4926 -1.3185
   87CHL1    C9 8881   2.820   1.912   7.536  0.5890 -0.0116 -0.1581
   87CHL1    H9 8882   2.712   1.884   7.531  0.5462  0.0993  0.1469
   87CHL1   C10 8883   2.868   1.949   7.392  0.7407  0.0174 -0.9852
   87CHL1   C19 8884   3.019   1.934   7.394  0.0200 -0.9164  0.2349
   87CHL1  H19A 8885   3.070   1.972   7.303  1.7360 -1.3298  0.9922
   87CHL1  H19B 8886   3.062   1.973   7.488  0.3347 -2.8508  0.9492
   87CHL1  H19C 8887   3.044   1.826   7.394 -1.2996 -1.2382 -0.1338
   87CHL1    C1 8888   2.808   1.849   7.284 -0.7663 -0.4607  0.4982
   87CHL1   H1A 8889   2.859   1.752   7.305  0.1983  0.3889  2.2955
   87CHL1   H1B 8890   2.699   1.834   7.296 -0.8526 -1.3490 -1.0654
   87CHL1    C2 8891   2.815   1.902   7.135 -0.0094 -0.6444 -1.2551
   87CHL1   H2A 8892   2.780   1.820   7.068  0.8745 -0.7028 -1.6602
   87CHL1   H2B 8893   2.926   1.904   7.126  0.1952  0.6997  0.9487
   87CHL1   C20 8894   2.788   1.805   8.084  0.2895 -0.5239  0.5810
   87CHL1   H20 8895   2.879   1.859   8.119 -0.9360  1.2735  1.1294
   87CHL1   C21 8896   2.824   1.652   8.059  0.1079 -0.2455  0.4060
   87CHL1  H21A 8897   2.852   1.606   8.156 -1.5325  1.0002  1.5144
   87CHL1  H21B 8898   2.914   1.644   7.994 -0.3933 -0.2411 -0.3034
   87CHL1  H21C 8899   2.742   1.601   8.005 -0.9341  2.9527 -1.2617
   87CHL1   C22 8900   2.686   1.823   8.203  0.0883 -0.0100  0.6503
   87CHL1  H22A 8901   2.657   1.928   8.225  1.0405  0.6418 -1.0121
   87CHL1  H22B 8902   2.595   1.769   8.168  2.1078 -2.3459 -1.4090
   87CHL1   C23 8903   2.736   1.773   8.334 -0.1213 -0.3714 -0.3105
   87CHL1  H23A 8904   2.784   1.674   8.316  0.8301  0.4088 -2.3750
   87CHL1  H23B 8905   2.815   1.847   8.358 -0.7199  0.4529 -0.8236
   87CHL1   C24 8906   2.621   1.771   8.444  0.3633  0.2388 -0.4510
   87CHL1  H24A 8907   2.585   1.875   8.448 -0.0313  0.1882 -2.1377
   87CHL1  H24B 8908   2.542   1.704   8.403  0.0651  1.0953 -1.2891
   87CHL1   C25 8909   2.654   1.729   8.591 -0.2899  0.2071 -0.2315
   87CHL1   H25 8910   2.739   1.791   8.627 -0.9969  1.6706 -1.0320
   87CHL1   C26 8911   2.537   1.753   8.683 -0.4091 -0.2947 -0.4324
   87CHL1  H26A 8912   2.481   1.848   8.673 -0.6517 -0.1278  1.8702
   87CHL1  H26B 8913   2.469   1.667   8.666 -1.7440  1.1442 -3.0752
   87CHL1  H26C 8914   2.578   1.759   8.786 -0.0225  1.3273 -0.6582
   87CHL1   C27 8915   2.704   1.583   8.596 -1.1831 -0.8040 -0.1564
   87CHL1  H27A 8916   2.634   1.509   8.552 -1.6730  0.4095 -1.4977
   87CHL1  H27B 8917   2.792   1.579   8.529 -0.8478  1.6100  0.0706
   87CHL1  H27C 8918   2.745   1.558   8.696 -0.9251  1.3341  0.3237
   88CHL1    C3 8919   6.448   0.691   7.009 -0.2021 -0.2774  0.2458
   88CHL1    H3 8920   6.486   0.795   7.004  0.7489 -0.4513  2.4831
   88CHL1    O3 8921   6.410   0.645   6.875 -0.0520  0.0016  0.3557
   88CHL1   H3' 8922   6.490   0.604   6.842 -0.0405 -1.0711  1.6091
   88CHL1    C4 8923   6.568   0.597   7.054  0.0460  0.4073 -0.1524
   88CHL1   H4A 8924   6.529   0.493   7.053 -2.9834  1.4508 -0.5913
   88CHL1   H4B 8925   6.642   0.610   6.972 -1.0001 -1.6538 -1.5109
   88CHL1    C5 8926   6.612   0.631   7.198  0.3484 -0.2435 -0.2451
   88CHL1    C6 8927   6.743   0.655   7.217 -0.0147 -0.3765 -0.7826
   88CHL1    H6 8928   6.814   0.633   7.136  0.0810 -1.4863 -0.4195
   88CHL1    C7 8929   6.801   0.699   7.352 -0.5126 -0.1997  0.1614
   88CHL1   H7A 8930   6.894   0.640   7.371 -0.1451 -0.7662 -2.9282
   88CHL1   H7B 8931   6.826   0.808   7.348  0.9005 -0.4175  1.7155
   88CHL1    C8 8932   6.700   0.673   7.468  0.3537  0.3888  1.0333
   88CHL1    H8 8933   6.700   0.564   7.489 -0.1732  0.1212 -0.2547
   88CHL1   C14 8934   6.739   0.745   7.596 -0.0969  0.0072 -0.1717
   88CHL1   H14 8935   6.741   0.855   7.577  2.3982  0.3858  1.7291
   88CHL1   C15 8936   6.882   0.726   7.638 -0.1980  0.3456 -0.2517
   88CHL1  H15A 8937   6.918   0.621   7.627 -1.7329 -0.3636  0.9619
   88CHL1  H15B 8938   6.954   0.795   7.590 -1.3501  0.5744 -1.7267
   88CHL1   C16 8939   6.880   0.763   7.789  0.6947 -0.0771  0.5407
   88CHL1  H16A 8940   6.914   0.675   7.849  1.9278  1.6256  2.4902
   88CHL1  H16B 8941   6.936   0.856   7.810  0.2183  0.1373  0.8758
   88CHL1   C17 8942   6.728   0.793   7.824  0.0226 -0.5101 -0.9485
   88CHL1   H17 8943   6.711   0.902   7.809 -2.3537 -0.5358  1.0302
   88CHL1   C13 8944   6.649   0.724   7.715  0.9388  0.1183  0.0320
   88CHL1   C18 8945   6.643   0.572   7.749 -0.0303  0.6931  0.1574
   88CHL1  H18A 8946   6.744   0.527   7.760 -0.2097 -0.6462 -2.6419
   88CHL1  H18B 8947   6.581   0.545   7.837  1.5265  0.3031  1.1824
   88CHL1  H18C 8948   6.602   0.502   7.673 -0.7957 -0.6223  1.7294
   88CHL1   C12 8949   6.515   0.786   7.679  0.1774 -0.0535  0.1525
   88CHL1  H12A 8950   6.435   0.769   7.754 -0.3404  1.0143 -0.1434
   88CHL1  H12B 8951   6.520   0.895   7.658 -1.0467 -0.6313 -4.1160
   88CHL1   C11 8952   6.456   0.731   7.547 -0.2475 -0.7924  0.6470
   88CHL1  H11A 8953   6.426   0.628   7.576 -0.1083 -0.7357  1.0006
   88CHL1  H11B 8954   6.361   0.781   7.518  0.4284  0.0048 -0.2458
   88CHL1    C9 8955   6.562   0.730   7.430  0.3649  0.1429 -0.8119
   88CHL1    H9 8956   6.567   0.835   7.396 -3.6672  0.8424  0.1984
   88CHL1   C10 8957   6.502   0.658   7.303 -0.4320  0.3209  0.4953
   88CHL1   C19 8958   6.455   0.512   7.342  0.6978 -0.0025 -0.1454
   88CHL1  H19A 8959   6.530   0.450   7.395 -0.3981  0.5342  2.2190
   88CHL1  H19B 8960   6.361   0.514   7.402  1.3311 -2.5324  1.0699
   88CHL1  H19C 8961   6.425   0.457   7.251  0.7301  0.7493 -0.6165
   88CHL1    C1 8962   6.394   0.748   7.240  0.0403  0.7101 -0.0109
   88CHL1   H1A 8963   6.311   0.767   7.312 -0.6583 -1.2184 -0.2572
   88CHL1   H1B 8964   6.441   0.846   7.218  1.4854  0.1556  0.4910
   88CHL1    C2 8965   6.332   0.684   7.107  0.3954  0.4065 -0.1419
   88CHL1   H2A 8966   6.242   0.742   7.078  1.5417  1.2469 -2.2321
   88CHL1   H2B 8967   6.299   0.579   7.120  0.9009  0.2421 -0.1511
   88CHL1   C20 8968   6.696   0.774   7.974  0.5062  0.0616  0.3549
   88CHL1   H20 8969   6.697   0.665   7.996  0.3247  0.1069  0.5930
   88CHL1   C21 8970   6.551   0.824   8.001 -0.5765 -0.0939  0.2018
   88CHL1  H21A 8971   6.530   0.924   7.958  0.3688 -0.1621 -0.4479
   88CHL1  H21B 8972   6.524   0.830   8.109 -0.6191  2.1269  0.1060
   88CHL1  H21C 8973   6.481   0.747   7.961  1.3138 -1.8189  0.0165
   88CHL1   C22 8974   6.800   0.844   8.063 -0.1760  0.6368  0.1673
   88CHL1  H22A 8975   6.902   0.819   8.027 -1.0916 -1.2486 -1.2646
   88CHL1  H22B 8976   6.785   0.954   8.054 -1.6940  0.3261 -1.9734
   88CHL1   C23 8977   6.787   0.800   8.209 -0.0137 -0.2558  0.0810
   88CHL1  H23A 8978   6.685   0.827   8.245 -0.0018 -0.3714  0.2049
   88CHL1  H23B 8979   6.806   0.691   8.223  2.1374  0.0916  0.2236
   88CHL1   C24 8980   6.883   0.873   8.297 -0.5251  0.2547 -0.1433
   88CHL1  H24A 8981   6.989   0.862   8.266 -0.4260 -0.4128  0.4017
   88CHL1  H24B 8982   6.869   0.981   8.273  1.3275  1.4813  3.5486
   88CHL1   C25 8983   6.857   0.859   8.449 -0.0893 -0.3273 -0.1257
   88CHL1   H25 8984   6.883   0.751   8.456  1.4127 -0.0106 -0.2843
   88CHL1   C26 8985   6.953   0.932   8.535 -0.0124 -0.8301  0.8097
   88CHL1  H26A 8986   7.052   0.919   8.487  0.1114 -0.5418  0.9804
   88CHL1  H26B 8987   6.922   1.039   8.535  3.4962  0.3219  0.5036
   88CHL1  H26C 8988   6.953   0.886   8.636  1.8422 -1.1129  0.7171
   88CHL1   C27 8989   6.711   0.896   8.495 -0.6842  0.2444  0.8064
   88CHL1  H27A 8990   6.624   0.851   8.443  0.4950  0.2536 -1.2811
   88CHL1  H27B 8991   6.704   0.866   8.602  1.5070 -0.5592  0.7859
   88CHL1  H27C 8992   6.689   1.004   8.501 -0.4788  0.4429 -1.1915
   89CHL1    C3 8993   4.623   4.558   7.010  1.0296 -0.0912  1.3366
   89CHL1    H3 8994   4.734   4.560   7.012  1.0404 -0.3545  1.1015
   89CHL1    O3 8995   4.600   4.546   6.865  0.3463  0.3078  0.5285
   89CHL1   H3' 8996   4.560   4.462   6.840  0.4252  0.7050 -1.0360
   89CHL1    C4 8997   4.580   4.433   7.081 -0.6502 -0.0007  0.4407
   89CHL1   H4A 8998   4.469   4.430   7.084 -0.6624 -1.7580 -0.2226
   89CHL1   H4B 8999   4.598   4.335   7.031  2.6067 -0.0364  1.4591
   89CHL1    C5 9000   4.627   4.440   7.225 -0.3471 -0.6116  0.3852
   89CHL1    C6 9001   4.694   4.345   7.282 -0.5361  0.5065 -0.4403
   89CHL1    H6 9002   4.719   4.256   7.222 -0.9891 -0.8331  1.2911
   89CHL1    C7 9003   4.756   4.347   7.419  0.2394  0.0034 -1.1755
   89CHL1   H7A 9004   4.732   4.254   7.474  0.3598  1.8691  2.2733
   89CHL1   H7B 9005   4.866   4.366   7.418  0.2002  0.6834  1.2029
   89CHL1    C8 9006   4.679   4.454   7.503  0.0706  0.1122 -0.7707
   89CHL1    H8 9007   4.574   4.422   7.521  0.0563 -0.2814 -1.5183
   89CHL1   C14 9008   4.741   4.458   7.638 -0.1487 -0.5322  0.2617
   89CHL1   H14 9009   4.848   4.482   7.621 -0.3010  0.0786  0.1630
   89CHL1   C15 9010   4.753   4.331   7.725 -0.3458 -0.9103 -0.1926
   89CHL1  H15A 9011   4.661   4.270   7.724 -0.9560 -0.0330  0.3268
   89CHL1  H15B 9012   4.846   4.276   7.697  0.7260  1.4049 -1.5025
   89CHL1   C16 9013   4.772   4.385   7.870  0.8865  0.1834  0.4212
   89CHL1  H16A 9014   4.681   4.356   7.927  0.5766 -2.7791 -1.3719
   89CHL1  H16B 9015   4.866   4.347   7.916  1.7787  2.3480  0.4745
   89CHL1   C17 9016   4.770   4.539   7.852 -0.4002  0.9401 -0.2535
   89CHL1   H17 9017   4.874   4.570   7.829 -0.2259  0.8685  0.4081
   89CHL1   C13 9018   4.683   4.565   7.730 -0.1532 -0.5817 -0.6228
   89CHL1   C18 9019   4.526   4.534   7.761  0.2806 -0.8064  0.2621
   89CHL1  H18A 9020   4.481   4.601   7.837 -1.1270 -0.8731 -0.4843
   89CHL1  H18B 9021   4.453   4.544   7.679 -1.4723 -0.5376  1.7885
   89CHL1  H18C 9022   4.517   4.433   7.807 -0.1560 -0.4215  1.0358
   89CHL1   C12 9023   4.702   4.712   7.661  0.1461  0.1355 -0.0461
   89CHL1  H12A 9024   4.661   4.803   7.709  0.6979  1.1540 -1.4501
   89CHL1  H12B 9025   4.810   4.736   7.650 -0.4438  2.0290 -2.7452
   89CHL1   C11 9026   4.637   4.708   7.515  0.1656 -0.0710 -0.4866
   89CHL1  H11A 9027   4.527   4.710   7.529  0.3207  0.5177  0.8556
   89CHL1  H11B 9028   4.669   4.807   7.475 -1.0412  1.4702  2.0930
   89CHL1    C9 9029   4.681   4.589   7.425 -0.6650  0.4563 -0.1791
   89CHL1    H9 9030   4.783   4.616   7.392  0.0652 -1.6818  0.1513
   89CHL1   C10 9031   4.595   4.575   7.299  0.2242  0.4721 -0.3140
   89CHL1   C19 9032   4.442   4.570   7.324 -0.6279  0.4568 -0.0916
   89CHL1  H19A 9033   4.407   4.484   7.386  0.7216  0.0817  0.2021
   89CHL1  H19B 9034   4.403   4.664   7.368 -1.3411  0.1425 -0.0408
   89CHL1  H19C 9035   4.385   4.563   7.229  1.4743 -1.9152 -1.3372
   89CHL1    C1 9036   4.627   4.694   7.207 -0.3698  0.2200  0.7168
   89CHL1   H1A 9037   4.595   4.786   7.260 -1.7615  0.7059 -0.8911
   89CHL1   H1B 9038   4.737   4.696   7.191 -0.5855 -0.6214 -1.0448
   89CHL1    C2 9039   4.571   4.688   7.063  0.0985  0.3069 -0.1227
   89CHL1   H2A 9040   4.609   4.774   7.005  0.9888  0.8172  1.1664
   89CHL1   H2B 9041   4.461   4.689   7.049  0.1626  0.0040 -0.6941
   89CHL1   C20 9042   4.743   4.613   7.982  0.2740  0.0127 -0.3177
   89CHL1   H20 9043   4.640   4.578   8.005 -0.1390  0.0197 -2.0418
   89CHL1   C21 9044   4.752   4.763   7.969 -0.1925  0.3281 -0.5397
   89CHL1  H21A 9045   4.659   4.800   7.921  0.9267  1.6766 -1.7721
   89CHL1  H21B 9046   4.847   4.791   7.917 -1.1983  2.4055 -1.3563
   89CHL1  H21C 9047   4.750   4.801   8.073 -1.2096  0.3241 -0.5519
   89CHL1   C22 9048   4.830   4.569   8.101 -0.2693 -1.1180  0.1086
   89CHL1  H22A 9049   4.789   4.625   8.187 -0.9854  1.4165 -1.7774
   89CHL1  H22B 9050   4.819   4.463   8.133  0.9661 -1.1057  0.6408
   89CHL1   C23 9051   4.984   4.593   8.092  0.2983 -0.2515  0.1217
   89CHL1  H23A 9052   5.026   4.530   8.011 -1.0947 -1.4094  0.2685
   89CHL1  H23B 9053   4.995   4.699   8.061 -3.9230  0.8425  1.6206
   89CHL1   C24 9054   5.066   4.549   8.214  0.0311 -0.2715  0.3339
   89CHL1  H24A 9055   5.169   4.541   8.173 -1.2697 -0.7399 -3.2027
   89CHL1  H24B 9056   5.079   4.638   8.279 -0.3978  1.8877 -2.3137
   89CHL1   C25 9057   5.029   4.426   8.297 -0.2070  0.0690  0.9828
   89CHL1   H25 9058   4.920   4.419   8.315 -0.9727  0.2379 -2.7754
   89CHL1   C26 9059   5.071   4.301   8.221  0.1059  0.4640  0.5551
   89CHL1  H26A 9060   5.182   4.303   8.209  0.5512  1.4181  3.8690
   89CHL1  H26B 9061   5.040   4.209   8.275 -0.1746  0.2584  0.0506
   89CHL1  H26C 9062   5.016   4.295   8.124  1.1260  1.3420 -0.1100
   89CHL1   C27 9063   5.091   4.434   8.439 -0.0589  0.0288  0.1222
   89CHL1  H27A 9064   5.201   4.424   8.429 -0.1643 -2.0246  0.5439
   89CHL1  H27B 9065   5.070   4.532   8.487  2.5112 -0.6381  2.9393
   89CHL1  H27C 9066   5.054   4.347   8.498  2.4124  0.4236  2.4649
   90CHL1    C3 9067   1.756   0.595   6.949 -0.1816 -0.3678  0.3145
   90CHL1    H3 9068   1.784   0.694   6.992 -1.0221 -0.3035  0.7266
   90CHL1    O3 9069   1.751   0.596   6.806 -0.3653  0.2666 -0.0257
   90CHL1   H3' 9070   1.661   0.624   6.789 -0.9916 -2.0456 -0.8472
   90CHL1    C4 9071   1.865   0.495   7.002  0.7285  0.2448 -0.2418
   90CHL1   H4A 9072   1.851   0.393   6.960  2.1294  0.5590 -1.5506
   90CHL1   H4B 9073   1.961   0.534   6.961 -0.3742  2.5524 -0.8087
   90CHL1    C5 9074   1.858   0.500   7.147  0.4553  0.3780  0.3100
   90CHL1    C6 9075   1.969   0.525   7.211  0.0946  0.1269  0.0002
   90CHL1    H6 9076   2.060   0.551   7.155  0.9755  2.1310  2.2325
   90CHL1    C7 9077   1.971   0.525   7.360 -0.2631 -0.7448  0.1690
   90CHL1   H7A 9078   2.069   0.480   7.389 -1.7287 -4.9554 -0.6640
   90CHL1   H7B 9079   1.956   0.627   7.400  4.0356  0.4534 -0.7227
   90CHL1    C8 9080   1.868   0.439   7.427  0.0090  0.0084  0.0435
   90CHL1    H8 9081   1.903   0.334   7.420  2.1152  0.5147  1.7902
   90CHL1   C14 9082   1.862   0.463   7.582  0.4063  0.0484 -0.0918
   90CHL1   H14 9083   1.829   0.565   7.610 -0.1821 -0.7399  2.3313
   90CHL1   C15 9084   1.994   0.453   7.652 -0.4755  0.6033  0.1353
   90CHL1  H15A 9085   2.047   0.367   7.605 -2.2686  0.2121 -1.2998
   90CHL1  H15B 9086   2.052   0.547   7.644  0.6083  0.1885  2.3523
   90CHL1   C16 9087   1.953   0.412   7.793  0.0583 -0.8103 -0.1627
   90CHL1  H16A 9088   1.988   0.312   7.829 -0.4935 -0.2877  2.0132
   90CHL1  H16B 9089   1.984   0.486   7.870 -0.0580 -2.3905  1.5019
   90CHL1   C17 9090   1.802   0.402   7.802  0.7359  0.0224 -0.4978
   90CHL1   H17 9091   1.765   0.502   7.830  1.2144 -0.2343  1.1413
   90CHL1   C13 9092   1.758   0.374   7.656 -0.5571 -0.2248  0.5771
   90CHL1   C18 9093   1.779   0.226   7.628  0.0114 -0.2193  0.2079
   90CHL1  H18A 9094   1.773   0.202   7.520  0.8073  0.1218  0.0871
   90CHL1  H18B 9095   1.878   0.200   7.672 -0.4330 -1.9773  0.2318
   90CHL1  H18C 9096   1.699   0.167   7.679 -0.8475 -0.9865 -1.9296
   90CHL1   C12 9097   1.624   0.428   7.610 -0.0896 -0.1145  0.5650
   90CHL1  H12A 9098   1.545   0.358   7.643  0.8508 -1.7030 -0.4231
   90CHL1  H12B 9099   1.610   0.532   7.646  0.9664 -0.5843  2.4583
   90CHL1   C11 9100   1.609   0.422   7.452 -0.3427  0.4781 -0.3141
   90CHL1  H11A 9101   1.605   0.313   7.428 -0.6728  0.5354 -0.5248
   90CHL1  H11B 9102   1.514   0.469   7.420 -0.2065  1.8707  1.2211
   90CHL1    C9 9103   1.733   0.478   7.365 -0.3618 -0.1530  0.8097
   90CHL1    H9 9104   1.722   0.585   7.392 -3.1374  0.0083 -0.6178
   90CHL1   C10 9105   1.722   0.464   7.213  0.1795  0.2579 -0.1166
   90CHL1   C19 9106   1.679   0.316   7.173 -0.0856  0.1777  0.0441
   90CHL1  H19A 9107   1.760   0.248   7.208  1.3831  1.7748 -0.1339
   90CHL1  H19B 9108   1.577   0.295   7.210 -0.1801  0.3862 -0.0982
   90CHL1  H19C 9109   1.672   0.299   7.063 -2.3718  0.1119  0.1517
   90CHL1    C1 9110   1.620   0.560   7.155 -0.4692  0.3359 -0.1556
   90CHL1   H1A 9111   1.516   0.539   7.190 -1.5635  3.7320 -0.9667
   90CHL1   H1B 9112   1.630   0.668   7.182 -1.1566  0.3739 -0.0353
   90CHL1    C2 9113   1.614   0.566   7.004  0.1560 -0.2649  0.3359
   90CHL1   H2A 9114   1.543   0.641   6.963  3.1750  1.1825 -2.6555
   90CHL1   H2B 9115   1.584   0.467   6.963 -0.1543 -1.2256  2.7420
   90CHL1   C20 9116   1.745   0.308   7.911  0.2542  0.6892  0.3203
   90CHL1   H20 9117   1.755   0.198   7.894  0.8434  0.8073 -0.1265
   90CHL1   C21 9118   1.590   0.325   7.928  0.0781  0.5109 -0.4732
   90CHL1  H21A 9119   1.557   0.259   8.011  3.0811 -0.2017  0.2636
   90CHL1  H21B 9120   1.539   0.285   7.838  0.7431  1.5956 -1.3536
   90CHL1  H21C 9121   1.560   0.430   7.946  1.0688  1.0866 -1.9626
   90CHL1   C22 9122   1.810   0.325   8.047 -0.1683  0.0787 -0.3733
   90CHL1  H22A 9123   1.920   0.324   8.034 -0.2429  0.8760 -1.1416
   90CHL1  H22B 9124   1.786   0.426   8.086 -1.9344  0.0740 -1.3381
   90CHL1   C23 9125   1.762   0.217   8.152  0.0337 -0.3745  0.3026
   90CHL1  H23A 9126   1.662   0.248   8.190 -0.4961  0.1013 -1.3571
   90CHL1  H23B 9127   1.747   0.121   8.098 -0.7231 -0.6193  0.9332
   90CHL1   C24 9128   1.860   0.198   8.269  0.2742 -0.2802 -0.0639
   90CHL1  H24A 9129   1.958   0.167   8.226  0.3223 -0.1968 -0.0143
   90CHL1  H24B 9130   1.871   0.297   8.318 -0.2069 -0.3943  0.2791
   90CHL1   C25 9131   1.832   0.086   8.370 -0.5793 -0.3141 -0.0898
   90CHL1   H25 9132   1.838  -0.004   8.304  2.7418 -0.8725  0.8064
   90CHL1   C26 9133   1.950   0.071   8.471  0.3113  0.2111 -0.0478
   90CHL1  H26A 9134   1.922   0.009   8.559  4.2202  1.7325  2.5595
   90CHL1  H26B 9135   2.032   0.020   8.416  1.0560  0.7054  0.5705
   90CHL1  H26C 9136   1.980   0.161   8.530  3.1137 -1.8849  1.9943
   90CHL1   C27 9137   1.694   0.097   8.435  0.2437 -0.2349  0.4425
   90CHL1  H27A 9138   1.630   0.133   8.352  1.6100  0.3172 -0.4049
   90CHL1  H27B 9139   1.660  -0.004   8.466 -3.0574  0.9277  1.0926
   90CHL1  H27C 9140   1.686   0.161   8.526  4.0309 -0.0754  0.8113
   91CHL1    C3 9141   4.992   0.343   7.207 -0.8251 -0.1223 -0.1672
   91CHL1    H3 9142   5.037   0.444   7.211 -0.5390 -0.2472 -0.1729
   91CHL1    O3 9143   4.980   0.292   7.079  0.0113  0.5862  0.4184
   91CHL1   H3' 9144   4.891   0.312   7.048  0.5177  1.0912 -0.8001
   91CHL1    C4 9145   5.064   0.240   7.290  0.0992  0.1941 -0.5586
   91CHL1   H4A 9146   5.017   0.140   7.290 -1.3869  0.8485  0.4071
   91CHL1   H4B 9147   5.169   0.238   7.255  0.9464  0.5385  1.7856
   91CHL1    C5 9148   5.061   0.287   7.441  0.0995 -0.5492  0.4636
   91CHL1    C6 9149   5.175   0.304   7.502  0.1399 -0.1432  0.0877
   91CHL1    H6 9150   5.257   0.283   7.431  0.2500  1.5869 -0.3362
   91CHL1    C7 9151   5.200   0.362   7.640  0.4123 -0.1637  0.1736
   91CHL1   H7A 9152   5.283   0.313   7.695  0.7646 -0.9274 -1.0148
   91CHL1   H7B 9153   5.224   0.471   7.634 -1.4269  0.2572 -0.1154
   91CHL1    C8 9154   5.059   0.352   7.721 -0.2054  0.6668  0.3172
   91CHL1    H8 9155   5.040   0.246   7.748  0.3982  0.0653 -1.4593
   91CHL1   C14 9156   5.065   0.418   7.854  0.0792 -0.1806  0.0435
   91CHL1   H14 9157   5.086   0.526   7.838 -0.8765 -0.0452 -0.3652
   91CHL1   C15 9158   5.172   0.373   7.958  0.4012 -0.2572  0.2194
   91CHL1  H15A 9159   5.180   0.263   7.973  0.6011 -0.0465  1.8471
   91CHL1  H15B 9160   5.272   0.419   7.938 -1.2747  2.9640 -1.5245
   91CHL1   C16 9161   5.118   0.434   8.090  0.3518 -0.5878  0.0900
   91CHL1  H16A 9162   5.102   0.353   8.165  2.1704 -1.1525 -0.0874
   91CHL1  H16B 9163   5.186   0.510   8.135 -1.9820  1.7464 -0.0574
   91CHL1   C17 9164   4.982   0.505   8.058 -0.4142 -0.1897  0.0400
   91CHL1   H17 9165   5.003   0.606   8.016 -2.7382 -0.5568 -2.2749
   91CHL1   C13 9166   4.930   0.432   7.935  0.4914 -1.1454  0.1013
   91CHL1   C18 9167   4.878   0.293   7.982 -0.0818 -0.3141 -0.3411
   91CHL1  H18A 9168   4.822   0.253   7.895 -0.4102 -1.8315  0.5310
   91CHL1  H18B 9169   4.952   0.217   8.014 -2.9087 -2.1590  2.3805
   91CHL1  H18C 9170   4.799   0.303   8.060 -1.5191 -1.7809 -1.5196
   91CHL1   C12 9171   4.829   0.507   7.847  0.2034  0.2017  0.1839
   91CHL1  H12A 9172   4.724   0.508   7.884 -0.1973 -1.0057 -0.8202
   91CHL1  H12B 9173   4.870   0.610   7.842  0.1342  0.2525  0.6176
   91CHL1   C11 9174   4.812   0.444   7.708  0.0040 -0.9014 -0.0972
   91CHL1  H11A 9175   4.753   0.350   7.720 -0.6947 -0.2194  2.3977
   91CHL1  H11B 9176   4.747   0.513   7.649  0.7960 -0.7292 -0.7881
   91CHL1    C9 9177   4.949   0.409   7.631  0.1431 -0.0943 -0.4949
   91CHL1    H9 9178   4.984   0.512   7.609 -2.5632  0.6976 -1.4852
   91CHL1   C10 9179   4.929   0.322   7.506  0.2307 -0.2809  0.7745
   91CHL1   C19 9180   4.850   0.198   7.540  0.0866  0.3681 -0.4852
   91CHL1  H19A 9181   4.891   0.147   7.630 -3.4774  2.7573  2.8455
   91CHL1  H19B 9182   4.747   0.220   7.576  0.1031 -1.3687  0.7274
   91CHL1  H19C 9183   4.845   0.122   7.460 -0.8729 -0.2688  0.1500
   91CHL1    C1 9184   4.843   0.403   7.408  0.0448  1.0360  0.1648
   91CHL1   H1A 9185   4.741   0.421   7.449 -0.7298 -2.4978  0.0749
   91CHL1   H1B 9186   4.874   0.510   7.398 -1.9718  1.9792  2.8463
   91CHL1    C2 9187   4.847   0.343   7.258  0.3827  0.4109  0.0881
   91CHL1   H2A 9188   4.783   0.408   7.195  2.6143  3.3139  0.5768
   91CHL1   H2B 9189   4.809   0.240   7.271  1.3776 -0.6330 -4.1162
   91CHL1   C20 9190   4.886   0.528   8.181 -0.6302  0.0024 -0.2033
   91CHL1   H20 9191   4.870   0.425   8.218 -2.5154 -0.1175 -1.2553
   91CHL1   C21 9192   4.747   0.582   8.138 -0.4032 -1.1906 -0.6639
   91CHL1  H21A 9193   4.764   0.682   8.093 -2.5588  0.8743  2.6749
   91CHL1  H21B 9194   4.680   0.594   8.225  0.6315  0.2790 -0.0308
   91CHL1  H21C 9195   4.694   0.510   8.073 -1.0239 -1.0035 -0.3649
   91CHL1   C22 9196   4.957   0.623   8.285  0.0962 -0.5135  0.3344
   91CHL1  H22A 9197   5.051   0.571   8.312  0.3051 -0.3647 -0.1148
   91CHL1  H22B 9198   4.985   0.712   8.226 -0.6375 -1.2542 -1.1991
   91CHL1   C23 9199   4.878   0.664   8.410  0.0866  0.3585  0.6014
   91CHL1  H23A 9200   4.956   0.729   8.457  0.1238  1.4003 -0.8240
   91CHL1  H23B 9201   4.801   0.741   8.389  0.2998 -0.0386 -1.9473
   91CHL1   C24 9202   4.824   0.554   8.504 -0.1601  0.3475  0.6115
   91CHL1  H24A 9203   4.772   0.474   8.446  0.0313  0.1071  0.7692
   91CHL1  H24B 9204   4.910   0.498   8.549  0.4439  0.2704 -0.5962
   91CHL1   C25 9205   4.733   0.600   8.617  0.1449 -0.0075  0.2994
   91CHL1   H25 9206   4.652   0.658   8.567  0.5884  0.4514  0.1069
   91CHL1   C26 9207   4.657   0.485   8.688 -0.3148 -0.3619  0.4982
   91CHL1  H26A 9208   4.555   0.519   8.716 -1.2674 -1.2398 -1.6250
   91CHL1  H26B 9209   4.625   0.409   8.613 -1.4786  1.3266 -0.7986
   91CHL1  H26C 9210   4.723   0.438   8.764  1.2299  2.1292  0.8075
   91CHL1   C27 9211   4.788   0.683   8.736  0.6268 -0.7698 -0.3636
   91CHL1  H27A 9212   4.852   0.763   8.694  3.2565 -3.4255 -1.8056
   91CHL1  H27B 9213   4.701   0.726   8.791  0.7125  1.5342 -1.9038
   91CHL1  H27C 9214   4.858   0.637   8.810 -0.3423 -0.1034  1.0149
   92CHL1    C3 9215   0.810   1.720   6.744  0.2325 -0.1812  0.6233
   92CHL1    H3 9216   0.722   1.652   6.741 -0.4087  0.6611 -0.4727
   92CHL1    O3 9217   0.844   1.747   6.610  0.2330  0.1273 -0.7550
   92CHL1   H3' 9218   0.838   1.658   6.576 -2.1866 -1.1948  2.6260
   92CHL1    C4 9219   0.783   1.839   6.828  0.5406  0.4549  0.1021
   92CHL1   H4A 9220   0.868   1.910   6.817  0.7087  0.2310 -0.0734
   92CHL1   H4B 9221   0.690   1.886   6.791  0.5603 -1.6237 -2.9744
   92CHL1    C5 9222   0.776   1.814   6.976  0.1981 -0.0146 -0.4095
   92CHL1    C6 9223   0.663   1.848   7.050 -0.0945 -0.1707  0.5578
   92CHL1    H6 9224   0.584   1.912   7.007 -0.7391 -0.6087  1.0723
   92CHL1    C7 9225   0.674   1.848   7.205  0.5513 -0.0295  0.6081
   92CHL1   H7A 9226   0.634   1.940   7.252 -0.8472  0.1237 -0.7909
   92CHL1   H7B 9227   0.606   1.768   7.243 -1.6433  0.8763 -1.1347
   92CHL1    C8 9228   0.814   1.830   7.262  0.1759  0.2178  0.0089
   92CHL1    H8 9229   0.875   1.922   7.256  2.0541 -0.9637 -0.0125
   92CHL1   C14 9230   0.785   1.780   7.407  0.2040  0.0709 -0.0632
   92CHL1   H14 9231   0.720   1.689   7.404  0.4454 -0.0924 -0.4480
   92CHL1   C15 9232   0.706   1.875   7.498 -0.2747  0.5895 -0.2914
   92CHL1  H15A 9233   0.729   1.981   7.476 -2.6395  1.0530 -0.7976
   92CHL1  H15B 9234   0.596   1.866   7.491 -0.1857  0.0907 -1.2719
   92CHL1   C16 9235   0.754   1.835   7.644 -0.2641 -0.8879 -0.3911
   92CHL1  H16A 9236   0.826   1.913   7.676 -0.7459 -0.6591  0.1699
   92CHL1  H16B 9237   0.672   1.823   7.718  1.4833 -0.9296  1.6301
   92CHL1   C17 9238   0.846   1.710   7.627  0.0525  0.2152 -0.5379
   92CHL1   H17 9239   0.777   1.626   7.605  0.8705 -0.5094 -0.4044
   92CHL1   C13 9240   0.911   1.741   7.491  0.0821  0.3298  0.0885
   92CHL1   C18 9241   1.007   1.864   7.503 -0.8060  0.1783  0.3156
   92CHL1  H18A 9242   0.950   1.959   7.510  1.9112  2.1392 -1.9017
   92CHL1  H18B 9243   1.076   1.866   7.591 -0.7878 -0.1141  0.3093
   92CHL1  H18C 9244   1.068   1.870   7.411  0.1154 -2.5614  0.6531
   92CHL1   C12 9245   0.981   1.621   7.410 -0.0181  0.4128 -0.5159
   92CHL1  H12A 9246   1.074   1.597   7.467 -0.6915  2.0777  1.3918
   92CHL1  H12B 9247   0.914   1.533   7.417 -0.1777  0.6687  1.7816
   92CHL1   C11 9248   0.999   1.661   7.264  0.2315 -0.4143 -0.6142
   92CHL1  H11A 9249   1.092   1.721   7.253  0.3560 -0.7130 -1.2302
   92CHL1  H11B 9250   1.024   1.565   7.213  0.1612 -0.3048 -0.8559
   92CHL1    C9 9251   0.874   1.722   7.185 -0.2549 -0.2031 -0.4012
   92CHL1    H9 9252   0.809   1.632   7.181  0.4646 -0.9118  2.0345
   92CHL1   C10 9253   0.901   1.748   7.036 -0.6042  0.1134  0.6403
   92CHL1   C19 9254   1.031   1.830   7.025  0.6666  0.4541  0.0640
   92CHL1  H19A 9255   1.047   1.857   6.918 -0.9424  1.4773  0.0422
   92CHL1  H19B 9256   1.022   1.919   7.092 -1.2798 -0.5270  1.1905
   92CHL1  H19C 9257   1.115   1.768   7.063 -0.2154 -2.1866 -1.9588
   92CHL1    C1 9258   0.918   1.618   6.958 -0.8041 -0.6558  0.2157
   92CHL1   H1A 9259   1.009   1.572   7.001 -0.8956 -1.9376 -0.9336
   92CHL1   H1B 9260   0.833   1.547   6.966 -1.0207 -0.3329  0.9319
   92CHL1    C2 9261   0.931   1.640   6.802  0.2499 -0.1556  0.4420
   92CHL1   H2A 9262   0.935   1.542   6.749  0.6458 -0.2534  0.6455
   92CHL1   H2B 9263   1.029   1.686   6.779 -0.8967  0.6474 -3.5690
   92CHL1   C20 9264   0.922   1.687   7.758 -0.6749  0.5919  0.1093
   92CHL1   H20 9265   0.970   1.781   7.794  2.2625 -1.1996  1.2273
   92CHL1   C21 9266   1.033   1.586   7.743 -0.1250 -0.0228 -0.7408
   92CHL1  H21A 9267   1.001   1.480   7.735 -1.7497  0.4213 -0.5585
   92CHL1  H21B 9268   1.100   1.582   7.832 -0.9856  0.0558 -0.0767
   92CHL1  H21C 9269   1.097   1.611   7.656 -0.0547  1.3080 -0.3188
   92CHL1   C22 9270   0.821   1.647   7.873 -0.3527  0.5917 -0.3326
   92CHL1  H22A 9271   0.756   1.735   7.890  0.4559  1.0045  0.7830
   92CHL1  H22B 9272   0.765   1.556   7.843 -0.5136  0.3139  0.7441
   92CHL1   C23 9273   0.891   1.606   8.003  0.1909  0.0355  0.4341
   92CHL1  H23A 9274   0.931   1.503   8.007  0.8169  0.2929  0.9475
   92CHL1  H23B 9275   0.973   1.681   8.014 -0.1434  0.7200 -1.3961
   92CHL1   C24 9276   0.794   1.597   8.126  0.4248 -0.7857  0.2373
   92CHL1  H24A 9277   0.727   1.686   8.128 -2.0793 -2.5193  3.0381
   92CHL1  H24B 9278   0.729   1.509   8.109 -1.7461  0.4666  1.6100
   92CHL1   C25 9279   0.851   1.606   8.268 -0.0584 -0.5161 -0.4640
   92CHL1   H25 9280   0.948   1.553   8.260 -0.1070 -0.3655 -2.9361
   92CHL1   C26 9281   0.871   1.747   8.318 -0.6552  0.0238 -0.0969
   92CHL1  H26A 9282   0.935   1.804   8.248  1.6961 -1.1410  1.0219
   92CHL1  H26B 9283   0.773   1.799   8.307 -0.0911  1.0443 -0.4406
   92CHL1  H26C 9284   0.913   1.751   8.420  0.1491 -0.6877 -0.3933
   92CHL1   C27 9285   0.761   1.525   8.368 -0.1571  0.0119 -0.6177
   92CHL1  H27A 9286   0.729   1.425   8.331 -0.8785 -0.3254  0.8057
   92CHL1  H27B 9287   0.810   1.501   8.465 -0.7743 -2.6899 -0.8993
   92CHL1  H27C 9288   0.661   1.570   8.391  0.0196 -0.6229  1.6750
   93CHL1    C3 9289   6.253   5.357   6.787  0.4327 -0.5591 -0.6882
   93CHL1    H3 9290   6.348   5.405   6.820 -0.0696  0.1286 -0.1951
   93CHL1    O3 9291   6.213   5.409   6.663  0.2217  0.1665 -0.2484
   93CHL1   H3' 9292   6.129   5.366   6.644  0.7999 -1.5248  0.7625
   93CHL1    C4 9293   6.289   5.209   6.768  1.0980  0.6217  0.6256
   93CHL1   H4A 9294   6.211   5.157   6.709  0.8693  1.6565 -0.0109
   93CHL1   H4B 9295   6.377   5.207   6.700  0.3306 -0.5392 -0.3508
   93CHL1    C5 9296   6.295   5.131   6.903 -0.3512  0.9138  0.6145
   93CHL1    C6 9297   6.400   5.060   6.922 -0.0321  0.4490  0.1614
   93CHL1    H6 9298   6.474   5.047   6.841 -1.3291 -2.6379 -0.6542
   93CHL1    C7 9299   6.423   4.975   7.043  1.1336  0.5753 -0.2972
   93CHL1   H7A 9300   6.448   4.874   7.004 -1.4734 -0.5931  0.8348
   93CHL1   H7B 9301   6.517   5.012   7.089  0.4589 -0.0146  1.6459
   93CHL1    C8 9302   6.304   4.963   7.140 -0.4262  0.6669 -0.1806
   93CHL1    H8 9303   6.238   4.888   7.090 -2.0643  2.2946 -0.5495
   93CHL1   C14 9304   6.355   4.923   7.278 -0.1212 -0.4856 -0.5120
   93CHL1   H14 9305   6.416   5.013   7.298  0.8699 -0.8088 -1.9189
   93CHL1   C15 9306   6.459   4.811   7.297  0.4336  0.6049 -0.2497
   93CHL1  H15A 9307   6.425   4.721   7.241 -1.5033 -0.4100  2.3612
   93CHL1  H15B 9308   6.556   4.832   7.247 -1.0247  0.0201 -3.6553
   93CHL1   C16 9309   6.461   4.789   7.453 -0.8539 -0.2364  0.4127
   93CHL1  H16A 9310   6.429   4.683   7.467 -1.4685 -0.7885 -3.8131
   93CHL1  H16B 9311   6.560   4.817   7.495 -1.4198  0.8918  1.0487
   93CHL1   C17 9312   6.355   4.898   7.508 -0.0037  0.6761 -0.0582
   93CHL1   H17 9313   6.405   4.997   7.524 -0.0159  0.2372  3.4615
   93CHL1   C13 9314   6.253   4.912   7.391 -1.1655 -0.3258 -0.5944
   93CHL1   C18 9315   6.163   4.788   7.374 -0.1819  0.1536 -0.4889
   93CHL1  H18A 9316   6.088   4.778   7.455  0.0740 -3.2539 -0.5357
   93CHL1  H18B 9317   6.113   4.785   7.274  0.1747 -3.6057 -0.6842
   93CHL1  H18C 9318   6.223   4.695   7.380  0.2790  0.0870 -3.8712
   93CHL1   C12 9319   6.174   5.047   7.389 -0.4856 -0.1443  0.5769
   93CHL1  H12A 9320   6.082   5.044   7.451 -1.9551  1.0956 -1.4142
   93CHL1  H12B 9321   6.242   5.124   7.429 -1.0900  1.6491 -1.6229
   93CHL1   C11 9322   6.110   5.081   7.252 -0.5627 -0.3245  0.4854
   93CHL1  H11A 9323   6.030   5.006   7.230 -1.8148  1.4680 -1.4225
   93CHL1  H11B 9324   6.063   5.181   7.252  0.4157  0.1818 -1.6457
   93CHL1    C9 9325   6.233   5.100   7.153  0.3602  0.4845 -0.2582
   93CHL1    H9 9326   6.303   5.166   7.208  2.4155 -1.0550 -0.8971
   93CHL1   C10 9327   6.189   5.150   7.012  0.1923 -0.2084 -0.3446
   93CHL1   C19 9328   6.063   5.078   6.966  0.0358 -0.1846 -0.0556
   93CHL1  H19A 9329   6.018   5.114   6.871 -1.5949 -0.2388  0.6543
   93CHL1  H19B 9330   6.082   4.971   6.941 -0.5080 -0.7834  1.9435
   93CHL1  H19C 9331   5.983   5.087   7.043  0.8202 -1.1304  0.9036
   93CHL1    C1 9332   6.159   5.306   7.027  0.2536 -0.1639 -0.0045
   93CHL1   H1A 9333   6.064   5.305   7.083  0.2655 -0.2200  0.0145
   93CHL1   H1B 9334   6.240   5.366   7.075 -0.1061 -1.1222  1.8523
   93CHL1    C2 9335   6.144   5.389   6.897 -0.0306 -0.4084  0.0411
   93CHL1   H2A 9336   6.161   5.496   6.924  0.1050  0.0101 -1.6082
   93CHL1   H2B 9337   6.041   5.374   6.859  0.2959 -2.0949 -0.2263
   93CHL1   C20 9338   6.309   4.868   7.652 -0.6511  0.0921  0.7421
   93CHL1   H20 9339   6.247   4.777   7.644 -1.5503  0.8129 -1.0550
   93CHL1   C21 9340   6.214   4.974   7.702  0.0028 -0.0319  0.0631
   93CHL1  H21A 9341   6.199   4.966   7.812  2.7545  0.5640  0.5438
   93CHL1  H21B 9342   6.121   4.966   7.641 -0.7970  0.6843  1.1383
   93CHL1  H21C 9343   6.253   5.074   7.672 -0.2043 -0.5207 -2.0003
   93CHL1   C22 9344   6.423   4.839   7.755 -0.5996  0.0306  0.3427
   93CHL1  H22A 9345   6.372   4.795   7.844 -0.5077 -0.3387  0.2143
   93CHL1  H22B 9346   6.493   4.758   7.722  0.4623  1.5223 -1.2475
   93CHL1   C23 9347   6.507   4.958   7.808  0.1414  0.3948  0.0160
   93CHL1  H23A 9348   6.564   5.006   7.727 -1.3261  0.9908 -0.7086
   93CHL1  H23B 9349   6.427   5.030   7.838 -1.3541 -1.4466  0.6907
   93CHL1   C24 9350   6.593   4.913   7.931 -0.5419 -0.2423  0.2509
   93CHL1  H24A 9351   6.654   4.831   7.889  0.3543  1.0131 -1.0124
   93CHL1  H24B 9352   6.667   4.990   7.963  0.7908 -1.7267  0.8473
   93CHL1   C25 9353   6.511   4.864   8.057  0.6624  0.2150 -0.2369
   93CHL1   H25 9354   6.448   4.775   8.032 -0.6413  0.8970  0.5069
   93CHL1   C26 9355   6.608   4.813   8.162  0.1790 -0.2900 -0.7920
   93CHL1  H26A 9356   6.638   4.897   8.229 -0.0575 -1.9999  1.5801
   93CHL1  H26B 9357   6.559   4.734   8.222  1.1125 -0.6685 -0.5120
   93CHL1  H26C 9358   6.696   4.766   8.112 -0.0395 -2.1302  0.4621
   93CHL1   C27 9359   6.429   4.963   8.139 -0.8113 -0.2559  0.0872
   93CHL1  H27A 9360   6.385   4.920   8.232  0.3129  1.8377  1.6725
   93CHL1  H27B 9361   6.490   5.049   8.173 -1.1982  0.1807 -0.3124
   93CHL1  H27C 9362   6.342   5.003   8.084  1.5605  1.9190 -2.3685
   94CHL1    C3 9363   2.236   2.000   6.686  0.6104 -0.3910  0.6321
   94CHL1    H3 9364   2.193   1.900   6.661  0.2912  0.5252 -3.1541
   94CHL1    O3 9365   2.243   2.085   6.570 -0.7713 -0.6331  0.3189
   94CHL1   H3' 9366   2.269   2.167   6.614  0.2852 -1.1919  0.7936
   94CHL1    C4 9367   2.138   2.080   6.777 -0.2336  0.2502 -0.1961
   94CHL1   H4A 9368   2.158   2.189   6.781  2.6582 -0.2382  0.2886
   94CHL1   H4B 9369   2.041   2.070   6.723 -0.4231  0.5517  0.0853
   94CHL1    C5 9370   2.136   2.023   6.917  0.6397 -0.9340  0.2304
   94CHL1    C6 9371   2.018   1.983   6.970  0.1358 -0.2136 -0.0577
   94CHL1    H6 9372   1.931   2.005   6.907  1.4476  0.3534 -1.7549
   94CHL1    C7 9373   1.998   1.941   7.109 -0.4303 -0.7292 -0.9675
   94CHL1   H7A 9374   1.915   2.004   7.147  2.4788  1.5143  2.2747
   94CHL1   H7B 9375   1.971   1.834   7.125  2.5190 -1.3074  0.9799
   94CHL1    C8 9376   2.119   1.971   7.192  0.0967  0.8004 -0.1829
   94CHL1    H8 9377   2.116   2.078   7.223 -0.2793  0.9125 -0.5996
   94CHL1   C14 9378   2.117   1.891   7.318  0.1564  0.0977  0.3443
   94CHL1   H14 9379   2.123   1.784   7.287  0.9470 -0.5066  2.4213
   94CHL1   C15 9380   1.990   1.885   7.403  0.7210 -0.3750 -0.2633
   94CHL1  H15A 9381   1.955   1.991   7.403  1.2450 -0.1843 -1.4248
   94CHL1  H15B 9382   1.915   1.813   7.364  0.1413  0.2167 -0.2716
   94CHL1   C16 9383   2.033   1.849   7.543 -0.6673 -0.3024 -0.3907
   94CHL1  H16A 9384   2.032   1.935   7.613 -3.1718  0.8427 -1.6939
   94CHL1  H16B 9385   1.976   1.767   7.592 -0.4205  0.7996  1.9025
   94CHL1   C17 9386   2.183   1.804   7.522 -0.1222  0.0486 -0.3401
   94CHL1   H17 9387   2.169   1.695   7.506 -0.8358 -0.0534  0.8370
   94CHL1   C13 9388   2.231   1.896   7.412 -0.4296 -0.1420 -0.4729
   94CHL1   C18 9389   2.244   2.044   7.467  0.6884  0.4088  0.8976
   94CHL1  H18A 9390   2.259   2.106   7.376 -1.2257 -1.6996 -0.9976
   94CHL1  H18B 9391   2.150   2.074   7.517  0.7189  2.2579 -0.0554
   94CHL1  H18C 9392   2.332   2.052   7.535  1.2924  0.2257  0.1541
   94CHL1   C12 9393   2.359   1.847   7.333 -0.5407 -0.4576 -0.2016
   94CHL1  H12A 9394   2.454   1.861   7.389  0.5327 -2.0765 -1.5455
   94CHL1  H12B 9395   2.344   1.740   7.307  0.6864 -0.6860 -0.0254
   94CHL1   C11 9396   2.383   1.929   7.203  0.0549  0.6281 -0.3268
   94CHL1  H11A 9397   2.413   2.033   7.226 -0.3359  0.7791 -0.4922
   94CHL1  H11B 9398   2.461   1.873   7.148  0.3255 -1.3015  1.8280
   94CHL1    C9 9399   2.249   1.934   7.114  0.3049 -0.3106 -0.3920
   94CHL1    H9 9400   2.241   1.828   7.080  0.2864 -0.7116  0.8235
   94CHL1   C10 9401   2.271   2.015   6.984  0.2621  0.4447  0.2441
   94CHL1   C19 9402   2.310   2.164   7.002 -0.2384  0.0069 -0.1505
   94CHL1  H19A 9403   2.248   2.200   7.087 -1.0308 -1.9842  0.1732
   94CHL1  H19B 9404   2.415   2.175   7.037 -0.9028  2.7332  1.2605
   94CHL1  H19C 9405   2.310   2.223   6.908 -0.2894 -0.1352 -0.2395
   94CHL1    C1 9406   2.368   1.937   6.896  0.6561 -0.4122  0.0980
   94CHL1   H1A 9407   2.473   1.947   6.929  0.1702 -0.1958  1.6402
   94CHL1   H1B 9408   2.336   1.831   6.884  2.0688 -0.7154 -1.1740
   94CHL1    C2 9409   2.373   1.991   6.747  0.1594 -0.0058  0.3979
   94CHL1   H2A 9410   2.449   1.933   6.690 -0.6297 -0.5217 -0.1467
   94CHL1   H2B 9411   2.408   2.096   6.761 -0.1447  0.0885  0.4682
   94CHL1   C20 9412   2.270   1.793   7.648  0.3559  0.0643  0.8299
   94CHL1   H20 9413   2.332   1.883   7.662 -0.4184  0.8316 -0.4966
   94CHL1   C21 9414   2.373   1.679   7.637 -0.2616 -0.0254 -0.2023
   94CHL1  H21A 9415   2.452   1.688   7.715  0.0612  4.1079 -0.7727
   94CHL1  H21B 9416   2.421   1.666   7.537  0.0384 -0.3425 -0.0196
   94CHL1  H21C 9417   2.315   1.589   7.664  1.7874 -1.2249  0.4747
   94CHL1   C22 9418   2.188   1.778   7.772  0.2680 -1.3441  0.0191
   94CHL1  H22A 9419   2.138   1.877   7.784  0.4133 -1.3389  0.6162
   94CHL1  H22B 9420   2.113   1.697   7.765  0.3926 -1.6730  1.8219
   94CHL1   C23 9421   2.276   1.754   7.898  0.3282  0.0262 -0.0433
   94CHL1  H23A 9422   2.316   1.650   7.898  1.4071  0.4226 -0.5471
   94CHL1  H23B 9423   2.368   1.815   7.887  0.8411 -0.9468 -1.5945
   94CHL1   C24 9424   2.212   1.768   8.036  0.6895  0.4731 -0.6653
   94CHL1  H24A 9425   2.270   1.710   8.110 -0.9673 -1.0575 -0.4976
   94CHL1  H24B 9426   2.224   1.875   8.064  0.7188 -0.5488  4.1640
   94CHL1   C25 9427   2.066   1.724   8.052 -0.2692  0.3443  0.0153
   94CHL1   H25 9428   2.017   1.788   7.975 -1.4583 -1.6494 -0.9838
   94CHL1   C26 9429   2.033   1.574   8.012  0.1222  0.1909 -0.0727
   94CHL1  H26A 9430   2.067   1.560   7.907  1.1229 -0.4463  0.3289
   94CHL1  H26B 9431   2.085   1.498   8.073 -2.3872 -0.2893  1.6078
   94CHL1  H26C 9432   1.922   1.562   8.010  0.0852  0.5087 -0.1320
   94CHL1   C27 9433   2.026   1.760   8.191 -0.0419 -0.1079  0.6532
   94CHL1  H27A 9434   2.031   1.870   8.206  0.6795  0.1030 -0.9116
   94CHL1  H27B 9435   1.924   1.721   8.209  0.4762 -0.6422  2.7094
   94CHL1  H27C 9436   2.097   1.712   8.263  1.4201  0.0119 -0.6643
   95CHL1    C3 9437   1.801   1.808   6.512 -0.0694  0.2169  0.1398
   95CHL1    H3 9438   1.838   1.896   6.570 -0.7419  0.2731  0.4943
   95CHL1    O3 9439   1.757   1.851   6.380  0.0425 -0.0780 -0.1293
   95CHL1   H3' 9440   1.684   1.906   6.409  0.8122  0.3688  1.0775
   95CHL1    C4 9441   1.897   1.686   6.515 -0.8407 -0.1674 -0.1966
   95CHL1   H4A 9442   1.838   1.608   6.461  0.0975 -0.9276 -0.1466
   95CHL1   H4B 9443   1.981   1.723   6.452 -1.6200 -0.2461 -1.3154
   95CHL1    C5 9444   1.939   1.647   6.651  0.1652  0.1506  0.1827
   95CHL1    C6 9445   2.065   1.639   6.693  0.3508 -0.0086  0.2219
   95CHL1    H6 9446   2.141   1.665   6.617 -0.8353  0.1339 -0.9390
   95CHL1    C7 9447   2.106   1.589   6.829  0.7229 -0.1277 -0.3238
   95CHL1   H7A 9448   2.186   1.514   6.812 -2.0078 -2.9432 -1.8120
   95CHL1   H7B 9449   2.155   1.681   6.867  0.7534 -0.7535  1.2303
   95CHL1    C8 9450   1.996   1.525   6.922 -0.1020 -0.2317 -0.2205
   95CHL1    H8 9451   1.986   1.418   6.893  0.0967 -0.1612 -0.5443
   95CHL1   C14 9452   2.023   1.532   7.073 -0.0191 -0.6168 -0.4895
   95CHL1   H14 9453   1.999   1.634   7.111  2.1539 -0.9466  2.0713
   95CHL1   C15 9454   2.165   1.502   7.130  1.0727  0.5280  0.8064
   95CHL1  H15A 9455   2.209   1.411   7.085  0.8097 -1.1671  3.7160
   95CHL1  H15B 9456   2.226   1.591   7.102 -0.1316  0.0617 -4.4133
   95CHL1   C16 9457   2.150   1.476   7.276 -0.1247 -0.4106 -0.5119
   95CHL1  H16A 9458   2.202   1.381   7.300  0.3106 -0.5256 -1.8144
   95CHL1  H16B 9459   2.217   1.549   7.326 -0.2864  0.8341 -2.0308
   95CHL1   C17 9460   1.998   1.472   7.312  0.4798 -0.4884  0.9490
   95CHL1   H17 9461   1.974   1.577   7.342  0.2869 -0.7378  1.6832
   95CHL1   C13 9462   1.926   1.455   7.168  0.4023 -0.2953  0.7908
   95CHL1   C18 9463   1.930   1.309   7.127 -0.1770  0.0973 -0.4133
   95CHL1  H18A 9464   1.863   1.251   7.195 -0.7435  0.8563 -0.3173
   95CHL1  H18B 9465   1.893   1.295   7.023 -0.6086  0.6640 -0.3427
   95CHL1  H18C 9466   2.027   1.267   7.160 -0.6877 -1.4119 -0.7150
   95CHL1   C12 9467   1.790   1.528   7.145  0.0798  0.3211 -1.0617
   95CHL1  H12A 9468   1.710   1.467   7.193  2.6503 -0.3929  2.7323
   95CHL1  H12B 9469   1.794   1.629   7.190  0.8147 -0.5437  0.9061
   95CHL1   C11 9470   1.752   1.536   6.995 -0.5043 -0.6408  0.0223
   95CHL1  H11A 9471   1.719   1.437   6.957  2.8595 -2.8428  2.2445
   95CHL1  H11B 9472   1.661   1.599   7.003 -0.9884 -1.5324  5.6698
   95CHL1    C9 9473   1.857   1.599   6.904 -1.2494 -1.1061  0.1679
   95CHL1    H9 9474   1.890   1.694   6.951  1.7368 -2.4588  1.0897
   95CHL1   C10 9475   1.819   1.617   6.746  0.0241 -0.0093  0.0427
   95CHL1   C19 9476   1.765   1.477   6.701  0.9054  0.2359 -0.1603
   95CHL1  H19A 9477   1.669   1.457   6.755  0.4133  1.4909 -0.5308
   95CHL1  H19B 9478   1.741   1.462   6.594 -2.5351 -0.3620  0.5756
   95CHL1  H19C 9479   1.834   1.394   6.725 -0.0024 -0.7304 -0.8355
   95CHL1    C1 9480   1.712   1.725   6.733 -0.4745 -0.6263  1.2700
   95CHL1   H1A 9481   1.619   1.703   6.789 -2.4057  0.6688 -1.2609
   95CHL1   H1B 9482   1.751   1.813   6.788  1.0393 -0.1006 -0.5192
   95CHL1    C2 9483   1.676   1.763   6.587  0.0172  0.0417  0.0525
   95CHL1   H2A 9484   1.610   1.852   6.586 -1.5815 -1.1119 -0.3158
   95CHL1   H2B 9485   1.612   1.685   6.541 -1.0853  1.2009 -0.4567
   95CHL1   C20 9486   1.958   1.383   7.429 -0.1451  0.6844 -0.5527
   95CHL1   H20 9487   1.982   1.276   7.411  0.9205  0.1221  3.3201
   95CHL1   C21 9488   1.809   1.397   7.453 -0.4982 -0.4347  0.3618
   95CHL1  H21A 9489   1.772   1.500   7.471  0.5607  0.3852 -1.8154
   95CHL1  H21B 9490   1.770   1.345   7.544 -0.3020  2.9825  2.5893
   95CHL1  H21C 9491   1.751   1.363   7.365 -2.0132  1.4510  0.5693
   95CHL1   C22 9492   2.050   1.411   7.557 -0.3622  0.0223  0.1360
   95CHL1  H22A 9493   2.158   1.419   7.532  0.0576  0.5856  1.9734
   95CHL1  H22B 9494   2.034   1.511   7.602  2.1074  0.2014  0.7423
   95CHL1   C23 9495   2.041   1.298   7.662  0.4222 -0.7535 -0.9882
   95CHL1  H23A 9496   1.945   1.289   7.717  1.6685  1.1775  1.7953
   95CHL1  H23B 9497   2.031   1.199   7.613  0.6694 -1.8667  1.0932
   95CHL1   C24 9498   2.157   1.304   7.769  0.3864  0.2927 -0.5536
   95CHL1  H24A 9499   2.251   1.258   7.733  1.5792  0.8167  1.7214
   95CHL1  H24B 9500   2.181   1.409   7.796 -2.2217  1.8259 -3.5194
   95CHL1   C25 9501   2.128   1.244   7.916  0.1831  0.2189 -0.1327
   95CHL1   H25 9502   2.040   1.299   7.955  1.2054  2.4403 -0.7283
   95CHL1   C26 9503   2.097   1.091   7.898 -0.2781 -0.0050 -0.5001
   95CHL1  H26A 9504   2.107   1.037   7.994 -0.8611  0.9503  0.1162
   95CHL1  H26B 9505   1.995   1.075   7.858 -0.0266 -0.9736 -0.7866
   95CHL1  H26C 9506   2.159   1.035   7.825 -0.5191 -0.4411 -0.3779
   95CHL1   C27 9507   2.254   1.264   8.008  0.2411 -0.5603 -0.1885
   95CHL1  H27A 9508   2.243   1.207   8.102  0.1354  2.5846  1.8674
   95CHL1  H27B 9509   2.348   1.228   7.961  1.5182  0.5157  1.4167
   95CHL1  H27C 9510   2.268   1.370   8.039  1.3917 -0.6884 -0.2294
   96CHL1    C3 9511   0.590   0.208   6.722 -0.0210 -0.1432 -0.7605
   96CHL1    H3 9512   0.487   0.167   6.721  0.6810 -2.1109  0.8679
   96CHL1    O3 9513   0.642   0.209   6.588  0.2965 -0.0018  0.3896
   96CHL1   H3' 9514   0.736   0.189   6.597  0.4572  0.3719 -0.4036
   96CHL1    C4 9515   0.593   0.345   6.794 -0.2592 -0.0709  0.4834
   96CHL1   H4A 9516   0.700   0.373   6.784 -0.5371  0.8067 -0.0775
   96CHL1   H4B 9517   0.532   0.411   6.730 -0.4423 -1.1921 -0.5392
   96CHL1    C5 9518   0.558   0.347   6.947 -0.5233  0.3638  0.4102
   96CHL1    C6 9519   0.454   0.413   7.007 -0.6830 -0.5524  0.8673
   96CHL1    H6 9520   0.404   0.491   6.948  0.8928 -1.0990 -1.3230
   96CHL1    C7 9521   0.431   0.419   7.155 -0.2824  0.0128 -0.0009
   96CHL1   H7A 9522   0.399   0.520   7.188 -0.2752 -1.0355  3.6677
   96CHL1   H7B 9523   0.336   0.367   7.178 -1.0165  0.7976 -1.1764
   96CHL1    C8 9524   0.548   0.361   7.232 -0.2305  0.0559 -0.3203
   96CHL1    H8 9525   0.633   0.433   7.230  0.1555 -0.4032 -0.9654
   96CHL1   C14 9526   0.516   0.342   7.381 -0.0685 -0.6286  0.3937
   96CHL1   H14 9527   0.436   0.266   7.389 -1.2487  0.4358 -0.8311
   96CHL1   C15 9528   0.467   0.466   7.450  0.5434 -0.1059 -0.1800
   96CHL1  H15A 9529   0.519   0.560   7.421 -0.6405  0.2239 -1.3416
   96CHL1  H15B 9530   0.357   0.479   7.443 -0.2234 -4.4822  0.9169
   96CHL1   C16 9531   0.495   0.435   7.597  0.3134  0.3067 -0.4189
   96CHL1  H16A 9532   0.547   0.519   7.647  2.0067 -0.0965 -1.4292
   96CHL1  H16B 9533   0.405   0.437   7.663  0.3971 -0.6984 -0.2525
   96CHL1   C17 9534   0.572   0.296   7.609  0.1866  0.6993 -0.5893
   96CHL1   H17 9535   0.498   0.214   7.625  0.2737  0.3453 -1.8906
   96CHL1   C13 9536   0.628   0.283   7.465 -0.7382 -0.3909  1.0875
   96CHL1   C18 9537   0.757   0.364   7.455  0.3694  1.2899 -0.0454
   96CHL1  H18A 9538   0.780   0.384   7.348  1.7558  2.8643  0.4912
   96CHL1  H18B 9539   0.742   0.464   7.501 -1.5561  0.5972  0.9225
   96CHL1  H18C 9540   0.846   0.319   7.504 -0.8646 -0.1623  0.9110
   96CHL1   C12 9541   0.645   0.133   7.407 -0.2635  0.9514 -0.1167
   96CHL1  H12A 9542   0.711   0.079   7.479 -2.4063 -1.6507  0.0641
   96CHL1  H12B 9543   0.551   0.078   7.429  0.4086  0.2504  1.1059
   96CHL1   C11 9544   0.679   0.140   7.259 -0.1285  0.0553  0.1452
   96CHL1  H11A 9545   0.787   0.166   7.268  0.0389 -0.7793  0.6341
   96CHL1  H11B 9546   0.676   0.037   7.217 -2.3856  0.3667 -0.5850
   96CHL1    C9 9547   0.586   0.228   7.174  0.1615 -0.4098 -0.5164
   96CHL1    H9 9548   0.488   0.178   7.165 -0.1428  0.4737 -2.7267
   96CHL1   C10 9549   0.650   0.248   7.029  0.0324  0.5016  0.2489
   96CHL1   C19 9550   0.790   0.316   7.037  0.2717  0.6014 -0.3684
   96CHL1  H19A 9551   0.777   0.420   7.072 -2.5993 -0.5450  2.4993
   96CHL1  H19B 9552   0.854   0.267   7.113  0.4006  2.7399  0.9576
   96CHL1  H19C 9553   0.854   0.304   6.947 -0.0929 -0.6072 -0.4814
   96CHL1    C1 9554   0.658   0.112   6.953  0.5808 -0.2233  0.1142
   96CHL1   H1A 9555   0.721   0.033   7.001  0.9488 -1.8539 -2.8107
   96CHL1   H1B 9556   0.555   0.072   6.963 -0.9721  3.8530  3.5669
   96CHL1    C2 9557   0.687   0.119   6.802 -0.6579 -0.2103  0.9036
   96CHL1   H2A 9558   0.697   0.020   6.752 -1.7159 -0.0089  0.2512
   96CHL1   H2B 9559   0.781   0.174   6.783 -0.4569 -0.3359  1.5342
   96CHL1   C20 9560   0.664   0.281   7.733  0.5427 -0.0751 -0.6297
   96CHL1   H20 9561   0.735   0.366   7.722  0.0309  0.1816 -2.2620
   96CHL1   C21 9562   0.742   0.145   7.741  0.4892  0.2334 -0.0953
   96CHL1  H21A 9563   0.805   0.117   7.654 -1.9552 -0.3361 -1.7932
   96CHL1  H21B 9564   0.668   0.063   7.752  0.5792  0.0911 -0.5343
   96CHL1  H21C 9565   0.808   0.147   7.830  0.7490 -0.2777 -0.2713
   96CHL1   C22 9566   0.587   0.305   7.870  0.2685  0.8402 -0.2831
   96CHL1  H22A 9567   0.527   0.399   7.868  1.7274  1.8984  2.0842
   96CHL1  H22B 9568   0.522   0.222   7.905  0.9313  0.3844 -0.1208
   96CHL1   C23 9569   0.678   0.321   7.982 -0.0428  0.3922 -0.2717
   96CHL1  H23A 9570   0.740   0.231   8.003 -3.4326 -1.7372  1.5884
   96CHL1  H23B 9571   0.740   0.410   7.958 -1.3221  1.9024  1.6912
   96CHL1   C24 9572   0.608   0.342   8.120 -0.8209 -0.9046 -0.1681
   96CHL1  H24A 9573   0.558   0.441   8.113  0.0067 -0.4005  0.7547
   96CHL1  H24B 9574   0.538   0.257   8.138 -0.1685 -1.0744  1.9689
   96CHL1   C25 9575   0.705   0.345   8.249  0.2846  0.0790 -0.2361
   96CHL1   H25 9576   0.782   0.424   8.238 -1.2032  1.3383 -2.6396
   96CHL1   C26 9577   0.622   0.383   8.369  0.9352 -0.4557  0.5613
   96CHL1  H26A 9578   0.690   0.405   8.455 -0.8241 -1.3585  2.2683
   96CHL1  H26B 9579   0.544   0.461   8.354 -0.7734 -2.5467 -2.3455
   96CHL1  H26C 9580   0.565   0.293   8.400  0.4542 -0.5945 -0.6985
   96CHL1   C27 9581   0.771   0.208   8.268 -1.0757 -0.0489 -0.0882
   96CHL1  H27A 9582   0.843   0.196   8.184  2.2874  0.6388  2.4664
   96CHL1  H27B 9583   0.835   0.210   8.359 -0.1265 -0.0683 -0.7418
   96CHL1  H27C 9584   0.709   0.115   8.269 -1.3496  0.0963 -1.6446
   97OSM      N 9585   4.813   3.238  11.082 -0.1909  0.4024  0.1493
   97OSM    C15 9586   4.854   3.310  10.954 -0.3402  0.8958 -0.5201
   97OSM   H15A 9587   4.931   3.385  10.971 -1.3487  2.0264 -0.7544
   97OSM   H15B 9588   4.769   3.371  10.928  0.0340  2.0388  0.7564
   97OSM   H15C 9589   4.880   3.246  10.871 -0.6483  0.8800 -0.6025
   97OSM    C14 9590   4.783   3.334  11.193 -0.0916  0.6251  0.5886
   97OSM   H14A 9591   4.736   3.418  11.145 -0.3227  0.1536 -0.0154
   97OSM   H14B 9592   4.870   3.375  11.243  2.2634 -3.0398 -0.1386
   97OSM   H14C 9593   4.721   3.289  11.269 -0.0269  0.5873  0.6194
   97OSM    C13 9594   4.687   3.156  11.051  0.3937  0.1952  0.5576
   97OSM   H13A 9595   4.612   3.230  11.028  1.4024  1.0339 -0.1142
   97OSM   H13B 9596   4.647   3.092  11.128  0.1042 -0.1357  0.1363
   97OSM   H13C 9597   4.705   3.091  10.967 -1.8357  0.7595 -0.4244
   97OSM    C12 9598   4.927   3.145  11.119 -0.0613  0.1668 -0.0925
   97OSM   H12A 9599   4.911   3.106  11.219  1.5666  1.8874  0.8908
   97OSM   H12B 9600   5.023   3.193  11.118  0.7062 -1.3033 -0.5614
   97OSM    C11 9601   4.947   3.006  11.036  0.1864 -0.2881  1.1300
   97OSM   H11A 9602   5.043   2.962  11.070  0.5711 -1.1104 -0.8602
   97OSM   H11B 9603   4.967   3.030  10.929 -0.4440 -0.8995  0.8680
   97OSM      P 9604   4.854   2.766  10.999 -0.2090 -0.1105 -0.2338
   97OSM    O13 9605   4.941   2.700  11.098  0.3043  0.5908  0.3222
   97OSM    O14 9606   4.726   2.709  10.958  0.2903 -0.9460 -0.0892
   97OSM    O11 9607   4.946   2.786  10.873 -0.4954 -0.2022 -0.1447
   97OSM    O12 9608   4.835   2.914  11.049 -0.6200  0.1413 -0.6891
   97OSM    C1S 9609   4.952   2.702  10.755 -0.8939  0.3515 -0.6310
   97OSM    H1S 9610   4.879   2.619  10.756  0.5827 -1.0016 -0.5561
   97OSM    H1T 9611   5.058   2.669  10.751 -0.4450  1.4628  1.0701
   97OSM     NF 9612   4.914   2.708  10.512 -0.3947  0.7230  0.4994
   97OSM    HNF 9613   4.995   2.671  10.467 -1.2592  0.0466 -0.5475
   97OSM    C2S 9614   4.939   2.791  10.629 -0.0889  0.5419 -0.0066
   97OSM    H2S 9615   4.849   2.855  10.641 -0.5734 -0.1487  0.0587
   97OSM    C3S 9616   5.063   2.878  10.607  0.3580 -0.6166  0.4020
   97OSM    H3S 9617   5.156   2.825  10.580  1.2825  0.0134  2.1749
   97OSM     O3 9618   5.119   2.934  10.725 -0.1658  0.4246 -0.5333
   97OSM    HO3 9619   5.075   2.876  10.787  1.1934 -1.9950 -1.6749
   97OSM    C4S 9620   5.044   2.984  10.502 -0.4906  0.3962 -0.1144
   97OSM    H4S 9621   5.042   2.946  10.399 -0.9528  1.3006 -0.4483
   97OSM    C5S 9622   5.045   3.116  10.518 -0.2712 -0.1737 -0.5191
   97OSM    H5S 9623   5.042   3.159  10.619 -0.7044 -0.1509 -0.5403
   97OSM    C6S 9624   5.027   3.216  10.406 -0.0564 -0.0562  0.1804
   97OSM    H6S 9625   5.106   3.293  10.414 -0.1409  0.0248  0.2416
   97OSM    H6T 9626   4.935   3.273  10.431  0.3623  0.5689  0.3158
   97OSM    C7S 9627   5.010   3.172  10.260 -0.2768 -0.0479 -0.6456
   97OSM    H7S 9628   4.910   3.124  10.263 -0.1071 -0.3829  0.0430
   97OSM    H7T 9629   5.079   3.091  10.229  0.9686  0.6043  0.3064
   97OSM    C8S 9630   5.005   3.290  10.156 -0.2679  0.4842 -0.6987
   97OSM    H8S 9631   4.936   3.373  10.183 -0.1812  1.7513 -4.0129
   97OSM    H8T 9632   4.967   3.244  10.063  0.2618  1.7135 -1.5451
   97OSM    C9S 9633   5.145   3.341  10.119  0.7069 -0.3663  0.3560
   97OSM    H9S 9634   5.207   3.250  10.106  2.2659  0.4165  1.8466
   97OSM    H9T 9635   5.191   3.395  10.205  0.0355 -0.6662  0.9066
   97OSM   C10S 9636   5.146   3.431   9.996  0.7361 -0.0186  0.1639
   97OSM   H10S 9637   5.248   3.469   9.973  0.4280 -0.3133 -1.8972
   97OSM   H10T 9638   5.080   3.519  10.015 -0.5907 -0.7685 -0.7886
   97OSM   C11S 9639   5.107   3.359   9.866  0.2098 -0.8972  0.0543
   97OSM   H11S 9640   5.004   3.317   9.876 -0.1748  0.4897  3.5044
   97OSM   H11T 9641   5.174   3.271   9.860  2.4308  0.6101  1.4513
   97OSM   C12S 9642   5.110   3.441   9.735 -0.6554  0.0279 -0.4874
   97OSM   H12S 9643   5.215   3.477   9.735 -0.9239  0.8275 -1.0727
   97OSM   H12T 9644   5.042   3.528   9.743 -0.9358 -0.1311 -1.1325
   97OSM   C13S 9645   5.075   3.351   9.614  0.1876  0.6397  0.5803
   97OSM   H13S 9646   4.975   3.303   9.624 -0.1463  1.2692  0.2994
   97OSM   H13T 9647   5.149   3.268   9.615 -0.0653  0.3634 -1.2826
   97OSM   C14S 9648   5.090   3.424   9.488  0.0179  0.3595  0.0923
   97OSM   H14S 9649   5.193   3.462   9.475  0.4727 -0.9231 -0.1696
   97OSM   H14T 9650   5.012   3.504   9.486 -0.3964  0.1612  3.0760
   97OSM   C15S 9651   5.079   3.334   9.368  0.0318 -0.1686  1.3031
   97OSM   H15S 9652   4.981   3.282   9.359 -1.0975  2.1373 -5.0716
   97OSM   H15T 9653   5.161   3.260   9.360  0.2492  0.2302 -0.9014
   97OSM   C16S 9654   5.086   3.409   9.231 -0.2790 -0.1676 -0.1239
   97OSM   H16S 9655   5.188   3.447   9.211 -0.2907  1.1694  1.9507
   97OSM   H16T 9656   5.024   3.501   9.238  0.2483  0.1629  0.3104
   97OSM   C17S 9657   5.048   3.335   9.106 -0.1469 -0.5495 -0.0694
   97OSM   H17S 9658   5.123   3.255   9.093 -0.6672 -1.4508  2.0867
   97OSM   H17T 9659   5.063   3.398   9.015 -1.4187  1.7264  1.1864
   97OSM   C18S 9660   4.903   3.298   9.092 -0.0302  0.0943 -0.1372
   97OSM   H18S 9661   4.837   3.387   9.095  1.8130  1.6001 -1.6481
   97OSM   H18T 9662   4.868   3.221   9.164 -2.7033  1.0669 -0.3105
   97OSM   H18U 9663   4.890   3.258   8.989  0.2885  1.0462 -0.5538
   97OSM    C1F 9664   4.798   2.643  10.495 -0.1183 -0.1040 -0.0771
   97OSM     OF 9665   4.714   2.643  10.583 -0.0131  0.5075 -0.6073
   97OSM    C2F 9666   4.780   2.567  10.370  0.1407 -0.1149  0.2161
   97OSM    H2F 9667   4.823   2.466  10.387  0.0646 -0.2852 -0.5512
   97OSM    H2G 9668   4.833   2.615  10.284  0.3019 -3.0239 -1.4312
   97OSM    C3F 9669   4.628   2.543  10.322  0.2500  0.5559  0.0554
   97OSM    H3F 9670   4.582   2.637  10.286 -2.8872 -0.1671  1.8026
   97OSM    H3G 9671   4.554   2.514  10.400 -0.5191  2.8517  0.2365
   97OSM    C4F 9672   4.612   2.432  10.217  0.3399 -0.1898  0.6576
   97OSM    H4F 9673   4.612   2.339  10.277 -3.3667 -0.8200 -0.0281
   97OSM    H4G 9674   4.697   2.419  10.147  2.0767 -0.8090  2.7714
   97OSM    C5F 9675   4.473   2.422  10.157 -0.7690 -0.1630 -0.6647
   97OSM    H5F 9676   4.457   2.504  10.084  0.1500  1.6729  1.0898
   97OSM    H5G 9677   4.394   2.438  10.234  0.6822 -1.4871  1.1741
   97OSM    C6F 9678   4.459   2.286  10.077 -0.4515 -0.5133 -0.7836
   97OSM    H6F 9679   4.462   2.217  10.164  1.8122 -0.0922 -0.4438
   97OSM    H6G 9680   4.548   2.264  10.015  0.6541  0.9385  0.1863
   97OSM    C7F 9681   4.330   2.274   9.997  0.3223  0.3760 -0.3609
   97OSM    H7F 9682   4.244   2.314  10.055  0.0877  0.4956 -0.7850
   97OSM    H7G 9683   4.324   2.164   9.981  2.3332  0.2117 -0.1963
   97OSM    C8F 9684   4.316   2.347   9.856 -0.0761  0.4045 -0.2162
   97OSM    H8F 9685   4.404   2.313   9.798 -0.4479  1.2478 -1.2951
   97OSM    H8G 9686   4.332   2.456   9.870  1.6302  0.1470  0.1138
   97OSM    C9F 9687   4.184   2.317   9.790 -0.1137  0.5024  0.3635
   97OSM    H9F 9688   4.090   2.354   9.835 -1.3235 -1.5220 -0.4055
   97OSM   C10F 9689   4.166   2.228   9.690 -0.1395  0.3891  0.1907
   97OSM   H10F 9690   4.068   2.206   9.644  0.1075  0.6476 -0.4632
   97OSM   C11F 9691   4.264   2.136   9.627 -0.0428  0.0583 -0.0715
   97OSM   H11F 9692   4.243   2.027   9.627  1.0542 -0.1765 -0.7719
   97OSM   H11G 9693   4.361   2.129   9.681  1.1342  0.7239 -2.0012
   97OSM   C12F 9694   4.292   2.163   9.471 -0.3233  0.8526 -0.7800
   97OSM   H12F 9695   4.373   2.094   9.439 -1.4491 -0.7321 -0.3516
   97OSM   H12G 9696   4.333   2.265   9.457  1.1584  0.4478  0.4354
   97OSM   C13F 9697   4.167   2.140   9.389  0.4779  0.1569  0.3344
   97OSM   H13F 9698   4.086   2.209   9.421 -2.5667 -1.8229 -2.3544
   97OSM   H13G 9699   4.125   2.040   9.415  1.3484 -0.2860  0.0721
   97OSM   C14F 9700   4.200   2.142   9.237  0.0089  0.7828 -0.6459
   97OSM   H14F 9701   4.254   2.049   9.211 -2.1021 -0.7847  0.3158
   97OSM   H14G 9702   4.260   2.233   9.216  1.4861  1.5983  5.2389
   97OSM   C15F 9703   4.077   2.146   9.146  0.7403 -0.0112 -0.7879
   97OSM   H15F 9704   4.011   2.230   9.176 -0.8523 -1.6593  0.5634
   97OSM   H15G 9705   4.017   2.060   9.184 -0.1609  1.3461  1.0045
   97OSM   C16F 9706   4.108   2.132   8.998 -0.1176  0.2720 -0.4929
   97OSM   H16F 9707   4.190   2.058   8.991  0.3590  0.7396  0.0921
   97OSM   H16G 9708   4.136   2.234   8.965  0.3915  0.7527  1.3211
   97OSM   C17F 9709   3.991   2.078   8.909 -0.2823 -0.1355 -0.2698
   97OSM   H17F 9710   3.952   1.980   8.944 -3.2420  1.2659  0.6960
   97OSM   H17G 9711   4.023   2.080   8.803 -2.0626 -1.3600 -0.8725
   97OSM   C18F 9712   3.874   2.168   8.908  0.0455 -0.2813  0.0098
   97OSM   H18F 9713   3.792   2.113   8.857  0.1698 -0.8803  0.4488
   97OSM   H18G 9714   3.888   2.255   8.841 -2.0539  2.0807  2.3593
   97OSM   H18H 9715   3.847   2.206   9.009 -0.3764  0.2863 -0.3090
   98OSM      N 9716   5.419   2.072  10.958 -0.1485  0.6986  0.5700
   98OSM    C15 9717   5.476   2.193  11.039 -0.4794  0.4031 -0.1108
   98OSM   H15A 9718   5.426   2.214  11.132  0.7473  1.0751  0.4261
   98OSM   H15B 9719   5.479   2.282  10.977 -1.4179  1.0188  0.6884
   98OSM   H15C 9720   5.568   2.159  11.084 -2.0102 -2.4559  1.0956
   98OSM    C14 9721   5.441   1.958  11.057  0.5367  0.1218  0.5067
   98OSM   H14A 9722   5.546   1.941  11.071  0.5012 -1.4616 -0.8485
   98OSM   H14B 9723   5.398   1.866  11.021 -1.8063  1.2099  0.2991
   98OSM   H14C 9724   5.384   1.981  11.146  0.1554  0.6935  0.1265
   98OSM    C13 9725   5.274   2.101  10.942  0.7351 -0.9507 -0.4744
   98OSM   H13A 9726   5.251   2.189  10.883 -0.4346 -1.7432 -1.2541
   98OSM   H13B 9727   5.228   2.117  11.038 -0.2090 -0.9372 -0.9157
   98OSM   H13C 9728   5.231   2.018  10.888 -0.0043  0.7044 -2.5691
   98OSM    C12 9729   5.484   2.056  10.820 -0.6964 -0.5147 -0.0096
   98OSM   H12A 9730   5.590   2.036  10.825 -0.5810 -0.6373 -1.9253
   98OSM   H12B 9731   5.473   2.149  10.767  2.3806 -0.7937 -1.3905
   98OSM    C11 9732   5.425   1.956  10.725  0.0520 -0.6361  0.1265
   98OSM   H11A 9733   5.481   1.955  10.629 -0.4962  2.5552 -0.3364
   98OSM   H11B 9734   5.329   1.994  10.686  0.8561  0.0785 -1.2041
   98OSM      P 9735   5.548   1.738  10.767  0.3465  0.0727 -0.0936
   98OSM    O13 9736   5.671   1.820  10.788 -0.1318  0.0998 -0.8601
   98OSM    O14 9737   5.530   1.609  10.839 -0.1434  0.2314 -0.1226
   98OSM    O11 9738   5.554   1.708  10.614  0.2580 -0.0747  0.0380
   98OSM    O12 9739   5.415   1.828  10.791 -0.1637 -0.7837 -0.4751
   98OSM    C1S 9740   5.428   1.676  10.546  0.0626 -0.6002  0.3234
   98OSM    H1S 9741   5.351   1.750  10.574 -1.3662 -1.9169 -0.0306
   98OSM    H1T 9742   5.390   1.586  10.599 -0.1266  1.1640  3.4457
   98OSM     NF 9743   5.308   1.644  10.331  0.6474  0.2868 -0.1725
   98OSM    HNF 9744   5.306   1.552  10.292  1.5280 -0.0635  0.5767
   98OSM    C2S 9745   5.440   1.669  10.389  0.2939 -0.2563  0.2600
   98OSM    H2S 9746   5.473   1.770  10.357 -2.3267  0.0166 -1.9324
   98OSM    C3S 9747   5.550   1.568  10.351  0.0614  0.6860 -0.4085
   98OSM    H3S 9748   5.516   1.464  10.370 -2.5566  1.4791 -0.3495
   98OSM     O3 9749   5.677   1.602  10.410  0.5251  0.4181  0.8856
   98OSM    HO3 9750   5.647   1.666  10.475  0.5275  0.3983  0.9064
   98OSM    C4S 9751   5.579   1.578  10.202  0.2246  0.6152  0.8264
   98OSM    H4S 9752   5.622   1.677  10.179 -0.2903  1.0228  1.6009
   98OSM    C5S 9753   5.561   1.482  10.107  0.1721 -0.1680  0.8817
   98OSM    H5S 9754   5.525   1.380  10.131  1.4784 -0.6906  0.7008
   98OSM    C6S 9755   5.586   1.492   9.958  0.8476 -0.0763 -0.5291
   98OSM    H6S 9756   5.488   1.476   9.908  1.4402 -1.3893 -1.3243
   98OSM    H6T 9757   5.644   1.399   9.944 -1.0829 -1.7725  1.8560
   98OSM    C7S 9758   5.655   1.616   9.899  0.2171  0.4694  0.1514
   98OSM    H7S 9759   5.762   1.613   9.930  0.3183 -0.0593 -0.2411
   98OSM    H7T 9760   5.605   1.710   9.930 -0.2242  0.0458  0.7189
   98OSM    C8S 9761   5.640   1.613   9.747  0.3442 -0.0684  0.7093
   98OSM    H8S 9762   5.677   1.705   9.697  2.5327 -1.0950  0.3298
   98OSM    H8T 9763   5.535   1.605   9.712 -0.4318 -0.4359  2.9723
   98OSM    C9S 9764   5.730   1.508   9.682  0.2331 -0.3977 -0.3825
   98OSM    H9S 9765   5.670   1.415   9.671  0.5945 -0.9316  1.6702
   98OSM    H9T 9766   5.822   1.488   9.741  0.4542  2.6799  0.5022
   98OSM   C10S 9767   5.795   1.551   9.549 -0.1979  0.6704  0.1715
   98OSM   H10S 9768   5.844   1.462   9.504  0.1426  0.1764  1.4766
   98OSM   H10T 9769   5.862   1.637   9.566  0.0949  0.4947 -0.0782
   98OSM   C11S 9770   5.690   1.582   9.437  0.0918 -0.1739  0.2942
   98OSM   H11S 9771   5.628   1.666   9.475 -0.0806  0.3942 -1.1866
   98OSM   H11T 9772   5.624   1.493   9.429 -0.8728  0.3513  1.8473
   98OSM   C12S 9773   5.759   1.621   9.305 -0.0073 -0.2848  0.4696
   98OSM   H12S 9774   5.816   1.536   9.261 -1.2848 -0.5363 -0.7622
   98OSM   H12T 9775   5.840   1.691   9.335  1.3738 -1.0286 -1.3674
   98OSM   C13S 9776   5.661   1.668   9.204 -0.0811 -0.2974  0.2880
   98OSM   H13S 9777   5.576   1.597   9.193 -0.6293  0.5834 -1.7047
   98OSM   H13T 9778   5.712   1.665   9.105 -2.3997  1.3545 -1.0755
   98OSM   C14S 9779   5.601   1.808   9.227  0.5241  0.0272  0.8477
   98OSM   H14S 9780   5.680   1.886   9.216 -0.8653  1.4521  0.5321
   98OSM   H14T 9781   5.553   1.817   9.327 -1.4204  0.8751 -0.1105
   98OSM   C15S 9782   5.484   1.834   9.131 -0.3455  1.3069 -0.0073
   98OSM   H15S 9783   5.443   1.930   9.171 -0.3516  0.8026  1.2103
   98OSM   H15T 9784   5.400   1.764   9.151 -0.4048  1.6822  1.0866
   98OSM   C16S 9785   5.532   1.842   8.984  0.3155  0.2766 -0.6547
   98OSM   H16S 9786   5.499   1.746   8.938  0.2510  0.0104 -0.0702
   98OSM   H16T 9787   5.642   1.837   8.974  0.4965  0.4491  0.9322
   98OSM   C17S 9788   5.480   1.954   8.904  0.2958 -0.0909  0.2519
   98OSM   H17S 9789   5.513   1.942   8.799  0.4822 -0.3837  0.3419
   98OSM   H17T 9790   5.528   2.044   8.946  1.5807 -1.0614  0.9498
   98OSM   C18S 9791   5.323   1.982   8.892  0.1100 -0.4429  0.1308
   98OSM   H18S 9792   5.276   1.964   8.991  0.7464 -3.2556  0.0132
   98OSM   H18T 9793   5.264   1.918   8.823 -0.8360  1.2318 -0.6706
   98OSM   H18U 9794   5.311   2.087   8.858 -0.6606 -1.0404 -1.6160
   98OSM    C1F 9795   5.210   1.737  10.309 -0.5543 -0.2580 -0.0025
   98OSM     OF 9796   5.229   1.857  10.347 -0.0191 -0.0108 -0.0687
   98OSM    C2F 9797   5.095   1.697  10.224  0.3984 -0.0377  0.4331
   98OSM    H2F 9798   5.079   1.789  10.163  4.1229 -1.0112 -2.4003
   98OSM    H2G 9799   5.006   1.678  10.287  0.1861  3.0701  1.2656
   98OSM    C3F 9800   5.120   1.573  10.130  0.7109 -0.3075 -0.3925
   98OSM    H3F 9801   5.025   1.529  10.092 -0.8341  1.4665  1.2179
   98OSM    H3G 9802   5.160   1.500  10.204  0.8252  1.6127  1.5257
   98OSM    C4F 9803   5.214   1.612  10.013 -0.4796  0.8879 -0.5873
   98OSM    H4F 9804   5.222   1.521   9.950 -1.4746 -0.2073  0.8029
   98OSM    H4G 9805   5.314   1.633  10.057 -0.4995  2.0321 -1.0489
   98OSM    C5F 9806   5.181   1.745   9.934  0.3795 -0.2425  0.3845
   98OSM    H5F 9807   5.217   1.824  10.004  0.6185 -1.7339  2.0080
   98OSM    H5G 9808   5.072   1.751   9.917  0.7816  2.8174 -1.9681
   98OSM    C6F 9809   5.255   1.764   9.809 -0.1995  0.3862  0.1079
   98OSM    H6F 9810   5.243   1.690   9.727 -1.4490  2.4570 -1.6828
   98OSM    H6G 9811   5.362   1.757   9.837  0.0255 -1.0162 -0.9913
   98OSM    C7F 9812   5.250   1.902   9.746  0.3522 -0.0403  0.4485
   98OSM    H7F 9813   5.279   1.986   9.814 -3.2927  2.1205 -0.4028
   98OSM    H7G 9814   5.145   1.926   9.720  0.1875 -0.3003  0.8520
   98OSM    C8F 9815   5.341   1.919   9.628 -0.0162  0.4481  0.9387
   98OSM    H8F 9816   5.444   1.897   9.663 -0.0598 -0.6334  0.4480
   98OSM    H8G 9817   5.345   2.027   9.602 -1.9904  0.2767 -0.2786
   98OSM    C9F 9818   5.312   1.838   9.507 -0.1533 -0.2126 -0.7952
   98OSM    H9F 9819   5.379   1.750   9.503 -0.2737 -0.3729  0.3046
   98OSM   C10F 9820   5.216   1.867   9.421 -0.2261 -0.2801  0.2974
   98OSM   H10F 9821   5.198   1.798   9.338  0.2486 -0.3748  0.2719
   98OSM   C11F 9822   5.115   1.973   9.432  0.6957  0.7698  0.1868
   98OSM   H11F 9823   5.144   2.058   9.497 -0.9756  0.8382  0.8865
   98OSM   H11G 9824   5.025   1.918   9.467  1.7055 -1.2808 -0.2530
   98OSM   C12F 9825   5.083   2.039   9.294 -0.2956  0.3856 -0.2582
   98OSM   H12F 9826   5.169   2.089   9.245 -0.4696 -1.0726 -2.1683
   98OSM   H12G 9827   5.010   2.118   9.322 -0.7326 -0.8005  2.2107
   98OSM   C13F 9828   5.019   1.950   9.187  0.5030  0.9290  0.8570
   98OSM   H13F 9829   4.936   1.890   9.230  0.6451 -2.2234 -2.7191
   98OSM   H13G 9830   5.081   1.869   9.144 -0.5511 -0.8989  2.6020
   98OSM   C14F 9831   4.969   2.041   9.067  0.9468 -0.5767 -1.1550
   98OSM   H14F 9832   5.052   2.110   9.042 -1.4803  2.1988 -2.1521
   98OSM   H14G 9833   4.883   2.104   9.100 -1.1513 -3.4337 -0.7625
   98OSM   C15F 9834   4.934   1.955   8.949 -0.6358  0.2948  0.0849
   98OSM   H15F 9835   4.841   1.898   8.973 -0.1768 -0.5710 -0.1545
   98OSM   H15G 9836   5.019   1.888   8.926 -0.7457 -0.1516  0.9247
   98OSM   C16F 9837   4.892   2.041   8.827  0.2386 -0.3112 -0.0524
   98OSM   H16F 9838   4.988   2.090   8.799  1.0894 -2.2015 -0.5461
   98OSM   H16G 9839   4.828   2.132   8.840 -0.7865 -0.8799 -0.9026
   98OSM   C17F 9840   4.827   1.971   8.711 -0.6760  0.1316 -0.3694
   98OSM   H17F 9841   4.728   1.937   8.749 -1.0173  1.6189  0.1526
   98OSM   H17G 9842   4.879   1.878   8.679 -1.1569 -0.4019  0.3480
   98OSM   C18F 9843   4.813   2.055   8.585  0.9650 -0.6210 -0.5429
   98OSM   H18F 9844   4.769   1.997   8.501 -3.4654  1.7622 -0.2066
   98OSM   H18G 9845   4.910   2.099   8.555  0.8446  1.3797  1.6663
   98OSM   H18H 9846   4.737   2.135   8.598  1.0635 -0.7120  0.7245
   99OSM      N 9847   6.221   3.135  11.194  0.8307 -0.6226 -0.4167
   99OSM    C15 9848   6.080   3.167  11.165  0.1798 -0.1594 -1.3706
   99OSM   H15A 9849   6.027   3.083  11.208  0.2659  0.2000 -0.5381
   99OSM   H15B 9850   6.061   3.158  11.059  0.7462 -1.4056 -1.3834
   99OSM   H15C 9851   6.039   3.260  11.203 -0.7725 -0.0117 -2.6884
   99OSM    C14 9852   6.312   3.232  11.128  0.0319 -0.1032  0.4881
   99OSM   H14A 9853   6.328   3.327  11.176 -0.2738 -0.1171  0.6240
   99OSM   H14B 9854   6.272   3.253  11.029  2.8117  0.3099 -0.6415
   99OSM   H14C 9855   6.409   3.186  11.118  0.2764  0.2533  1.2050
   99OSM    C13 9856   6.236   3.138  11.345  0.6281  0.0623  0.2610
   99OSM   H13A 9857   6.332   3.094  11.371  1.0489 -0.9702 -2.7248
   99OSM   H13B 9858   6.153   3.084  11.388 -0.4332  0.2239 -1.4860
   99OSM   H13C 9859   6.234   3.238  11.386 -0.7913 -0.7007  2.2128
   99OSM    C12 9860   6.247   2.992  11.146  0.3214 -0.1049 -0.7984
   99OSM   H12A 9861   6.166   2.926  11.172 -0.9156  1.5021 -0.3665
   99OSM   H12B 9862   6.337   2.958  11.197  0.1073  1.4964  0.7679
   99OSM    C11 9863   6.271   2.960  10.994  0.6799 -0.3012 -1.6841
   99OSM   H11A 9864   6.180   2.990  10.938 -0.9532  2.0781  1.8530
   99OSM   H11B 9865   6.273   2.849  10.986  0.8896 -0.3457 -1.0551
   99OSM      P 9866   6.514   2.936  10.923  0.0707 -0.1132 -0.1094
   99OSM    O13 9867   6.634   3.021  10.904 -0.2391 -0.9717 -0.0161
   99OSM    O14 9868   6.525   2.815  11.009  0.3198  0.0415  1.0536
   99OSM    O11 9869   6.469   2.888  10.780  0.2985 -0.3657  0.1966
   99OSM    O12 9870   6.393   3.021  10.965  0.3670 -0.2872  0.3825
   99OSM    C1S 9871   6.393   2.978  10.697  0.1596 -0.6935  0.1482
   99OSM    H1S 9872   6.453   3.071  10.691  1.0704 -1.2094  0.8888
   99OSM    H1T 9873   6.294   3.009  10.736  0.4332  1.4632 -0.7601
   99OSM     NF 9874   6.318   3.012  10.466  0.0664  0.0328  0.2472
   99OSM    HNF 9875   6.223   3.018  10.437  0.4964  0.3109 -1.1677
   99OSM    C2S 9876   6.365   2.911  10.561 -0.0484 -0.9070  0.0384
   99OSM    H2S 9877   6.465   2.874  10.532  0.3165 -1.5508  1.9710
   99OSM    C3S 9878   6.270   2.790  10.572 -0.2081  0.6448 -0.5151
   99OSM    H3S 9879   6.168   2.834  10.580 -1.0577 -1.4410  1.0888
   99OSM     O3 9880   6.294   2.704  10.676 -0.2501 -0.3257  0.3720
   99OSM    HO3 9881   6.371   2.747  10.714 -1.1511  0.4922  1.3508
   99OSM    C4S 9882   6.285   2.712  10.449  0.1607  0.5992  0.3111
   99OSM    H4S 9883   6.384   2.668  10.431  1.2582  3.1115 -0.0986
   99OSM    C5S 9884   6.186   2.680  10.364  0.3280 -0.4913 -0.0348
   99OSM    H5S 9885   6.087   2.709  10.400  0.9989  0.8049  0.8475
   99OSM    C6S 9886   6.202   2.598  10.240  0.0183  0.4188 -0.9445
   99OSM    H6S 9887   6.106   2.574  10.189  0.5503 -3.3239 -0.4801
   99OSM    H6T 9888   6.253   2.501  10.260  2.1139  1.4478 -1.0336
   99OSM    C7S 9889   6.286   2.675  10.131 -0.1084 -0.3258 -0.7697
   99OSM    H7S 9890   6.386   2.685  10.179  0.2614  0.3518 -1.6390
   99OSM    H7T 9891   6.245   2.778  10.129  0.5763 -0.0020  0.5728
   99OSM    C8S 9892   6.312   2.598  10.001 -0.6688  0.2426  0.0443
   99OSM    H8S 9893   6.336   2.683   9.933  0.4745  0.3417  0.5355
   99OSM    H8T 9894   6.215   2.549   9.979 -0.2288 -0.8935  0.5207
   99OSM    C9S 9895   6.429   2.495  10.010  0.2934 -0.1381 -0.1051
   99OSM    H9S 9896   6.397   2.418  10.083  0.5407 -0.8339 -0.7157
   99OSM    H9T 9897   6.510   2.555  10.055 -0.2041  0.7267 -0.3215
   99OSM   C10S 9898   6.470   2.429   9.873 -0.1401 -0.0523 -0.3563
   99OSM   H10S 9899   6.401   2.350   9.837 -1.4985  0.8787  0.1171
   99OSM   H10T 9900   6.562   2.377   9.907  1.1983  1.5778 -1.3581
   99OSM   C11S 9901   6.512   2.524   9.762 -0.6079 -0.1181  0.0063
   99OSM   H11S 9902   6.441   2.608   9.750 -0.0299  0.2554 -0.9318
   99OSM   H11T 9903   6.515   2.468   9.666  2.0007  0.0151 -0.0662
   99OSM   C12S 9904   6.654   2.577   9.784  0.0684  0.2759 -0.8779
   99OSM   H12S 9905   6.657   2.616   9.888  0.4750 -0.9849 -0.4024
   99OSM   H12T 9906   6.736   2.502   9.784 -1.4156 -1.4972  1.9667
   99OSM   C13S 9907   6.690   2.701   9.695  0.6944  0.5773  0.0890
   99OSM   H13S 9908   6.608   2.773   9.714 -0.1159 -0.4621  0.6322
   99OSM   H13T 9909   6.688   2.676   9.587  1.8017  0.7052  0.0310
   99OSM   C14S 9910   6.812   2.774   9.746  0.0240 -0.3165  0.7693
   99OSM   H14S 9911   6.791   2.805   9.850 -1.7997 -0.7625  0.5600
   99OSM   H14T 9912   6.826   2.863   9.681 -0.4470 -0.5078  0.4020
   99OSM   C15S 9913   6.935   2.692   9.751 -0.0739 -0.2051  0.5718
   99OSM   H15S 9914   6.907   2.598   9.803 -1.2153  0.0645  0.4768
   99OSM   H15T 9915   7.011   2.754   9.804  0.3416 -1.7821  1.8725
   99OSM   C16S 9916   6.993   2.657   9.611  0.0484 -0.5282 -0.1653
   99OSM   H16S 9917   6.997   2.743   9.541  0.5741 -1.9128 -1.9144
   99OSM   H16T 9918   6.930   2.581   9.560 -1.7742  1.1744 -0.5949
   99OSM   C17S 9919   7.145   2.607   9.614  0.3577  0.0467 -0.6182
   99OSM   H17S 9920   7.161   2.505   9.656  1.5545  0.0486 -1.0394
   99OSM   H17T 9921   7.195   2.675   9.687  1.4335 -1.8815  0.5523
   99OSM   C18S 9922   7.217   2.621   9.480  0.0373 -0.5201  0.3501
   99OSM   H18S 9923   7.325   2.596   9.482 -0.4405 -2.9611 -0.8758
   99OSM   H18T 9924   7.208   2.724   9.440  0.0568 -1.1304 -1.2782
   99OSM   H18U 9925   7.161   2.567   9.401 -1.8072 -0.6351  1.6837
   99OSM    C1F 9926   6.401   3.102  10.420 -0.2279 -0.5968  0.3373
   99OSM     OF 9927   6.525   3.084  10.421  0.2064  0.1649 -0.1160
   99OSM    C2F 9928   6.333   3.217  10.348  0.5199 -0.1388  0.4371
   99OSM    H2F 9929   6.281   3.273  10.429  1.0169  0.1749  0.5396
   99OSM    H2G 9930   6.253   3.177  10.282  0.2342  1.4920 -0.2377
   99OSM    C3F 9931   6.426   3.301  10.255 -0.7510  0.3830 -0.3837
   99OSM    H3F 9932   6.490   3.357  10.327  0.9930 -1.0957 -0.7042
   99OSM    H3G 9933   6.493   3.224  10.210  2.5036  0.8472  3.2130
   99OSM    C4F 9934   6.354   3.389  10.154  0.5206  0.2951  0.5879
   99OSM    H4F 9935   6.281   3.448  10.213 -0.7784 -2.2173  1.6404
   99OSM    H4G 9936   6.300   3.311  10.096  1.9039 -0.2866  0.0469
   99OSM    C5F 9937   6.451   3.478  10.070 -0.2921  0.0361  0.3682
   99OSM    H5F 9938   6.510   3.402  10.014  1.0238  0.9930  0.4036
   99OSM    H5G 9939   6.524   3.529  10.137  1.0465 -2.1278  0.6762
   99OSM    C6F 9940   6.386   3.580   9.980  0.1720  0.9006 -0.7654
   99OSM    H6F 9941   6.461   3.642   9.927  0.6127  0.8474 -0.2065
   99OSM    H6G 9942   6.324   3.637  10.053  0.1426 -2.2656  1.9489
   99OSM    C7F 9943   6.286   3.525   9.877  0.2690 -0.6080  0.5526
   99OSM    H7F 9944   6.202   3.478   9.933  0.5845 -0.5209  1.1036
   99OSM    H7G 9945   6.331   3.453   9.806 -0.1902 -1.2342  0.8823
   99OSM    C8F 9946   6.221   3.643   9.789 -0.8297  0.5812  0.1019
   99OSM    H8F 9947   6.303   3.702   9.744 -0.4253 -0.2397 -0.2491
   99OSM    H8G 9948   6.169   3.704   9.866 -1.2696 -2.6404  2.5366
   99OSM    C9F 9949   6.128   3.595   9.677  0.8891  0.2287  0.4998
   99OSM    H9F 9950   6.022   3.620   9.692  0.5523 -1.1342  0.4910
   99OSM   C10F 9951   6.163   3.534   9.565  0.2619 -0.0771  0.2899
   99OSM   H10F 9952   6.082   3.505   9.497 -0.0824 -0.1701  0.7359
   99OSM   C11F 9953   6.299   3.497   9.507 -0.3517 -0.0554  0.0445
   99OSM   H11F 9954   6.331   3.393   9.487  1.3997  0.9222 -2.9566
   99OSM   H11G 9955   6.371   3.542   9.578 -0.0977  2.1426 -1.5088
   99OSM   C12F 9956   6.313   3.558   9.369  0.4520 -0.0053 -0.1800
   99OSM   H12F 9957   6.422   3.557   9.349  0.4477 -0.1685 -0.1929
   99OSM   H12G 9958   6.263   3.657   9.379  0.7217  0.1911 -0.7622
   99OSM   C13F 9959   6.239   3.478   9.261  0.1553 -0.1957  0.4181
   99OSM   H13F 9960   6.143   3.442   9.303  0.2719 -1.0821 -0.0438
   99OSM   H13G 9961   6.299   3.386   9.242  0.3992 -0.1749  1.0652
   99OSM   C14F 9962   6.206   3.541   9.127 -0.0231 -0.3276  0.0253
   99OSM   H14F 9963   6.152   3.638   9.135 -2.8922 -1.4082 -3.6238
   99OSM   H14G 9964   6.138   3.472   9.074 -0.5695  0.2165  0.0069
   99OSM   C15F 9965   6.322   3.562   9.033 -0.1524  0.6024  0.2781
   99OSM   H15F 9966   6.355   3.472   8.977 -0.5162  0.9592 -0.5446
   99OSM   H15G 9967   6.407   3.599   9.094 -2.0991  1.7098  2.4532
   99OSM   C16F 9968   6.287   3.669   8.924  1.0581 -0.2612 -0.6858
   99OSM   H16F 9969   6.278   3.770   8.969 -1.9214 -1.0822  0.8219
   99OSM   H16G 9970   6.195   3.654   8.864  1.0663 -1.8399 -0.3458
   99OSM   C17F 9971   6.411   3.682   8.831 -0.0871  0.5945  0.0587
   99OSM   H17F 9972   6.502   3.700   8.891 -0.1964  0.2706  0.3238
   99OSM   H17G 9973   6.404   3.777   8.774  2.4150  0.1630 -1.0883
   99OSM   C18F 9974   6.440   3.569   8.736  0.5082  0.8834 -0.0623
   99OSM   H18F 9975   6.459   3.478   8.797  1.9488  0.8502 -0.5096
   99OSM   H18G 9976   6.527   3.589   8.670  2.2176 -1.6095  1.2392
   99OSM   H18H 9977   6.353   3.541   8.674  0.0581  0.5835  0.6803
  100OSM      N 9978   2.247   2.764  11.035 -0.1710  0.0954 -0.0387
  100OSM    C15 9979   2.111   2.750  11.100 -0.1076  0.2263  0.4230
  100OSM   H15A 9980   2.061   2.655  11.093 -1.8708  1.1429  0.0754
  100OSM   H15B 9981   2.049   2.825  11.054 -1.5808 -1.7844 -1.0658
  100OSM   H15C 9982   2.117   2.774  11.206  0.2383  2.8234 -0.1314
  100OSM    C14 9983   2.225   2.752  10.884 -0.5667  0.7231  0.4003
  100OSM   H14A 9984   2.154   2.675  10.859  0.7380 -0.6457  0.7169
  100OSM   H14B 9985   2.322   2.723  10.846  0.6249  0.3561  3.3869
  100OSM   H14C 9986   2.186   2.844  10.844  1.3494  0.1795 -3.0807
  100OSM    C13 9987   2.303   2.901  11.064  0.1832  0.0859  0.0587
  100OSM   H13A 9988   2.307   2.907  11.172  0.9809  1.2847 -0.0157
  100OSM   H13B 9989   2.246   2.979  11.015  1.3598  0.8741 -0.0947
  100OSM   H13C 9990   2.404   2.909  11.026  0.4276 -0.1573  0.6457
  100OSM    C12 9991   2.346   2.654  11.082 -0.2066  0.5338 -0.3964
  100OSM   H12A 9992   2.305   2.560  11.047  1.1245 -0.5376  0.7946
  100OSM   H12B 9993   2.342   2.651  11.190 -0.9670 -0.1299 -0.4305
  100OSM    C11 9994   2.494   2.672  11.039  0.0414  0.2785  0.1995
  100OSM   H11A 9995   2.564   2.607  11.096 -2.6370 -1.8988  1.1899
  100OSM   H11B 9996   2.541   2.771  11.057  0.2458 -0.0638  1.6896
  100OSM      P 9997   2.492   2.514  10.816 -0.2083  0.1498 -0.2994
  100OSM    O13 9998   2.495   2.403  10.909  0.2726  0.5230  0.0204
  100OSM    O14 9999   2.367   2.528  10.743 -0.3589 -0.5215  0.0925
  100OSM    O1110000   2.615   2.510  10.719 -0.4795 -0.5373 -0.6811
  100OSM    O1210001   2.513   2.647  10.899 -0.1058  0.0686  0.0354
  100OSM    C1S10002   2.593   2.478  10.584  0.5299  0.5599  0.9741
  100OSM    H1S10003   2.533   2.560  10.539  0.2311 -0.4431 -0.5412
  100OSM    H1T10004   2.540   2.381  10.572 -0.1623  1.0119  0.2887
  100OSM     NF10005   2.689   2.446  10.362 -0.1776 -0.1092  0.3936
  100OSM    HNF10006   2.663   2.356  10.330  2.3688 -1.3567  1.5556
  100OSM    C2S10007   2.728   2.452  10.504 -0.2763 -0.1752  0.1254
  100OSM    H2S10008   2.800   2.537  10.513  1.2340 -1.5936  2.7447
  100OSM    C3S10009   2.810   2.334  10.557 -0.0631  0.0859 -0.0372
  100OSM    H3S10010   2.751   2.240  10.558 -0.4216  0.2399 -1.9574
  100OSM     O310011   2.857   2.361  10.691 -0.3668 -0.1871  0.2765
  100OSM    HO310012   2.807   2.434  10.727  1.6927  1.2101  0.4876
  100OSM    C4S10013   2.926   2.309  10.468  0.8060  0.0556  0.0127
  100OSM    H4S10014   2.925   2.218  10.405  3.3497 -0.4005  0.4974
  100OSM    C5S10015   3.039   2.377  10.447 -0.3041 -0.6920 -0.1113
  100OSM    H5S10016   3.068   2.453  10.522  2.7602 -2.8378  1.0814
  100OSM    C6S10017   3.155   2.342  10.352 -0.0747  0.6029  0.3157
  100OSM    H6S10018   3.240   2.313  10.416  0.0682  0.1594 -0.0662
  100OSM    H6T10019   3.180   2.440  10.306 -0.6608  0.1675 -0.9878
  100OSM    C7S10020   3.121   2.245  10.234 -0.1145 -0.1280 -0.8108
  100OSM    H7S10021   3.092   2.148  10.279  0.4720 -0.1052 -0.3631
  100OSM    H7T10022   3.217   2.232  10.180  0.3198  2.3945 -0.8080
  100OSM    C8S10023   3.011   2.283  10.132  0.3069 -0.9054  0.3274
  100OSM    H8S10024   3.044   2.375  10.079 -1.2180 -2.3365 -3.5148
  100OSM    H8T10025   2.909   2.308  10.170  1.0842  0.0533  1.8501
  100OSM    C9S10026   2.996   2.179  10.015 -0.1866  0.0470  0.0414
  100OSM    H9S10027   2.952   2.081  10.045 -0.7679 -0.0203 -0.9662
  100OSM    H9T10028   3.097   2.145   9.983 -1.6060 -5.1772  0.2315
  100OSM   C10S10029   2.921   2.242   9.892 -0.4517  0.3212 -0.2177
  100OSM   H10S10030   2.970   2.338   9.865  1.9453 -0.8349 -0.2131
  100OSM   H10T10031   2.816   2.262   9.923  0.0586  0.8924  1.2259
  100OSM   C11S10032   2.922   2.155   9.767 -0.4701 -0.0810 -1.1283
  100OSM   H11S10033   2.875   2.056   9.786 -0.4332  0.0591 -0.2378
  100OSM   H11T10034   3.026   2.136   9.735  0.8953  1.7697  1.7366
  100OSM   C12S10035   2.854   2.223   9.646  0.2336 -0.1757 -0.0720
  100OSM   H12S10036   2.903   2.319   9.620 -1.0824 -0.2645 -3.2851
  100OSM   H12T10037   2.748   2.236   9.678  0.1011  0.2977 -0.6993
  100OSM   C13S10038   2.844   2.123   9.528 -0.3695  0.2130  0.0718
  100OSM   H13S10039   2.807   2.027   9.570  1.0069 -0.2624  0.2544
  100OSM   H13T10040   2.945   2.100   9.489  0.3925  0.4386  1.8024
  100OSM   C14S10041   2.745   2.165   9.420 -0.4613  0.0191 -0.0198
  100OSM   H14S10042   2.779   2.263   9.380 -0.3040  1.1170  2.5947
  100OSM   H14T10043   2.647   2.183   9.469  0.1852  1.5548  0.7926
  100OSM   C15S10044   2.718   2.062   9.305  0.0756 -0.5349 -0.5860
  100OSM   H15S10045   2.631   1.999   9.333 -1.2851  0.9592 -1.3339
  100OSM   H15T10046   2.809   1.998   9.305  0.0850 -0.6453  1.8331
  100OSM   C16S10047   2.687   2.138   9.176  0.2623 -0.2802 -0.1367
  100OSM   H16S10048   2.773   2.206   9.162  0.4459 -0.4327  0.2390
  100OSM   H16T10049   2.590   2.189   9.191 -0.0925 -1.3923  1.7259
  100OSM   C17S10050   2.681   2.047   9.052 -0.3109  0.6410 -0.1067
  100OSM   H17S10051   2.593   1.979   9.059  0.7237 -1.0887 -2.4438
  100OSM   H17T10052   2.773   1.985   9.060 -0.1647  0.5768 -1.7864
  100OSM   C18S10053   2.661   2.109   8.920 -0.4213  0.1169  0.3382
  100OSM   H18S10054   2.616   2.042   8.844 -0.2879 -0.2541  0.5856
  100OSM   H18T10055   2.755   2.151   8.878  0.1938 -1.6932 -0.1647
  100OSM   H18U10056   2.591   2.195   8.931 -1.0501 -0.5826  2.0439
  100OSM    C1F10057   2.640   2.553  10.300 -0.1810 -0.4618  0.1267
  100OSM     OF10058   2.664   2.667  10.344 -0.2803 -0.1351 -0.0908
  100OSM    C2F10059   2.544   2.521  10.188 -0.5202 -0.1034 -0.0639
  100OSM    H2F10060   2.445   2.480  10.215 -1.5314  2.7797  0.9506
  100OSM    H2G10061   2.594   2.449  10.120  1.8273 -0.1080  1.5420
  100OSM    C3F10062   2.500   2.641  10.099 -0.0531 -0.0646 -0.2237
  100OSM    H3F10063   2.587   2.701  10.066 -0.4826 -0.8190 -3.0267
  100OSM    H3G10064   2.438   2.719  10.147 -0.7106  1.5061 -3.3638
  100OSM    C4F10065   2.415   2.601   9.978  0.8327 -0.4513  0.1291
  100OSM    H4F10066   2.375   2.697   9.938  1.8835  0.2304  0.6775
  100OSM    H4G10067   2.325   2.547  10.015  0.2910  0.7161  0.5431
  100OSM    C5F10068   2.481   2.523   9.857  0.5939  0.2238  0.6998
  100OSM    H5F10069   2.450   2.417   9.870  0.6765  0.2303  0.9507
  100OSM    H5G10070   2.590   2.537   9.846  0.2480  1.5733 -1.7010
  100OSM    C6F10071   2.422   2.578   9.722 -0.7215 -0.4397 -0.1770
  100OSM    H6F10072   2.457   2.682   9.707  1.9532 -1.3076 -0.4607
  100OSM    H6G10073   2.312   2.591   9.720 -0.5952  0.8455 -2.9540
  100OSM    C7F10074   2.468   2.479   9.613  0.3021 -0.3900 -0.0213
  100OSM    H7F10075   2.438   2.383   9.661 -1.4271  0.2671  0.3018
  100OSM    H7G10076   2.578   2.488   9.602 -0.0771  1.7968 -3.3237
  100OSM    C8F10077   2.403   2.486   9.473  0.2633  0.3037 -0.2401
  100OSM    H8F10078   2.293   2.482   9.486  0.0071 -0.1680 -2.2117
  100OSM    H8G10079   2.420   2.392   9.416 -1.7167 -1.7127  2.2472
  100OSM    C9F10080   2.451   2.604   9.392  0.5104 -0.9284 -0.8515
  100OSM    H9F10081   2.421   2.703   9.429 -2.1990 -1.5336 -1.1943
  100OSM   C10F10082   2.516   2.613   9.278  0.1554  0.7673  0.1794
  100OSM   H10F10083   2.543   2.714   9.242 -1.2976  1.0136 -0.2748
  100OSM   C11F10084   2.573   2.494   9.201  0.4614 -0.4103 -0.0641
  100OSM   H11F10085   2.569   2.395   9.250  1.0800 -0.1983  0.4184
  100OSM   H11G10086   2.681   2.494   9.173  0.6954 -4.7533  0.2552
  100OSM   C12F10087   2.488   2.492   9.072 -0.0845  0.4453 -0.5571
  100OSM   H12F10088   2.379   2.495   9.090 -0.3602 -1.5146 -1.7039
  100OSM   H12G10089   2.507   2.388   9.039  0.7470  0.8249 -1.3441
  100OSM   C13F10090   2.524   2.596   8.966  0.1379 -0.0789  0.0053
  100OSM   H13F10091   2.505   2.696   9.011  0.9516 -0.0272  0.2410
  100OSM   H13G10092   2.446   2.577   8.889  1.5517  1.5762 -1.9445
  100OSM   C14F10093   2.662   2.585   8.903 -0.0903 -0.1676  0.0352
  100OSM   H14F10094   2.685   2.485   8.861  0.6081  0.4711 -1.1697
  100OSM   H14G10095   2.752   2.604   8.966 -0.1905  0.7191 -0.0831
  100OSM   C15F10096   2.680   2.687   8.792  0.3655  0.3208  0.5594
  100OSM   H15F10097   2.698   2.791   8.829 -0.9590  0.5672  0.5625
  100OSM   H15G10098   2.594   2.691   8.722  1.4852 -0.7188 -0.9270
  100OSM   C16F10099   2.796   2.645   8.702  0.2468  0.2449  0.3904
  100OSM   H16F10100   2.772   2.538   8.688 -2.4364  0.4839  2.4353
  100OSM   H16G10101   2.890   2.655   8.761  0.8244  0.0844 -0.4875
  100OSM   C17F10102   2.803   2.725   8.563  0.5650 -0.4200 -0.3017
  100OSM   H17F10103   2.792   2.834   8.583 -1.3177 -0.8897  1.4845
  100OSM   H17G10104   2.712   2.696   8.506 -0.6146  2.0152  0.2438
  100OSM   C18F10105   2.927   2.701   8.472 -0.0710 -0.0492 -0.3120
  100OSM   H18F10106   3.014   2.678   8.537  1.5093 -3.3253 -3.2661
  100OSM   H18G10107   2.949   2.776   8.393  0.7813 -1.2052 -1.2117
  100OSM   H18H10108   2.913   2.603   8.423  0.3206 -1.5623  2.4182
  101OSM      N10109   5.358   3.835  10.940  0.1428 -0.0804  0.7556
  101OSM    C1510110   5.271   3.847  10.816  0.2491  0.3678 -0.2510
  101OSM   H15A10111   5.230   3.946  10.802 -1.1305 -0.4298 -2.4138
  101OSM   H15B10112   5.191   3.775  10.811 -0.6293  1.3783 -1.1890
  101OSM   H15C10113   5.322   3.828  10.723 -1.3817 -2.9085 -0.6056
  101OSM    C1410114   5.267   3.873  11.052  0.1164 -0.3808  0.1027
  101OSM   H14A10115   5.215   3.966  11.034  2.7722  0.6865 -2.8617
  101OSM   H14B10116   5.320   3.878  11.146 -0.5323 -0.9121  0.5122
  101OSM   H14C10117   5.194   3.796  11.072  0.5530 -0.1281  3.1292
  101OSM    C1310118   5.404   3.696  10.964 -0.3505 -0.2821  0.1165
  101OSM   H13A10119   5.319   3.632  10.979 -1.0582  0.6983  0.4227
  101OSM   H13B10120   5.471   3.704  11.049 -0.3747  0.1126  0.1001
  101OSM   H13C10121   5.468   3.661  10.884 -0.5646 -1.6232  0.5229
  101OSM    C1210122   5.472   3.935  10.922 -0.1091  0.5163 -0.2069
  101OSM   H12A10123   5.534   3.930  11.010  2.6178  1.1390 -1.9807
  101OSM   H12B10124   5.428   4.034  10.924  2.5281  1.7582  0.9881
  101OSM    C1110125   5.568   3.927  10.795  0.4170 -0.3277 -1.1728
  101OSM   H11A10126   5.629   4.020  10.801  2.9788 -1.9658  2.4822
  101OSM   H11B10127   5.497   3.929  10.710 -1.2971 -1.9177  0.1229
  101OSM      P10128   5.750   3.805  10.942 -0.2021 -0.3460  0.0029
  101OSM    O1310129   5.735   3.926  11.029  0.1004 -0.2189  0.2731
  101OSM    O1410130   5.728   3.671  10.999 -0.0294 -0.2033  0.4292
  101OSM    O1110131   5.894   3.813  10.882 -0.1641 -0.1524  0.2294
  101OSM    O1210132   5.659   3.817  10.810  0.7467  0.1477  0.0143
  101OSM    C1S10133   5.940   3.734  10.773  0.5787  0.0768  0.3167
  101OSM    H1S10134   5.886   3.637  10.773  0.9608 -0.1409  0.1654
  101OSM    H1T10135   6.050   3.716  10.782  0.5062  0.4093  2.3565
  101OSM     NF10136   5.970   3.693  10.533  0.2836 -0.2241 -0.5797
  101OSM    HNF10137   6.060   3.711  10.492 -0.6599 -1.4451 -3.5060
  101OSM    C2S10138   5.919   3.793  10.626 -0.2820  0.7880 -0.6694
  101OSM    H2S10139   5.808   3.791  10.618 -0.7747  2.6172  3.4008
  101OSM    C3S10140   5.976   3.943  10.621 -0.2424 -0.3613  1.4062
  101OSM    H3S10141   6.082   3.940  10.656 -0.3117  1.1959  1.8550
  101OSM     O310142   5.921   4.040  10.717  0.2133  1.4288 -0.3992
  101OSM    HO310143   5.877   3.992  10.788  0.1326  4.0722  1.5165
  101OSM    C4S10144   5.974   4.005  10.479  0.6094  0.5792  0.0002
  101OSM    H4S10145   6.071   4.002  10.428  0.2584 -0.3657 -0.6528
  101OSM    C5S10146   5.867   4.072  10.424  0.1350  0.8152  0.2077
  101OSM    H5S10147   5.771   4.087  10.475 -0.6263 -0.6364 -0.7252
  101OSM    C6S10148   5.896   4.133  10.290  0.1311 -0.7528 -0.0529
  101OSM    H6S10149   6.000   4.166  10.269 -1.2582  2.4830 -2.6758
  101OSM    H6T10150   5.851   4.234  10.280  2.1388  0.0402 -1.8494
  101OSM    C7S10151   5.855   4.038  10.174  0.8741 -0.5753 -0.8978
  101OSM    H7S10152   5.746   4.015  10.180  1.2264 -2.5896 -1.3880
  101OSM    H7T10153   5.922   3.950  10.179 -0.3480 -1.4864  2.3596
  101OSM    C8S10154   5.865   4.104  10.041 -0.0279 -0.2746 -0.3928
  101OSM    H8S10155   5.963   4.155  10.026  0.3466 -0.0265  2.3838
  101OSM    H8T10156   5.791   4.187  10.041 -0.4804 -0.6019  2.2612
  101OSM    C9S10157   5.839   4.000   9.933 -0.2357  0.0341 -0.4529
  101OSM    H9S10158   5.735   3.964   9.949 -0.3868  0.2966 -0.8199
  101OSM    H9T10159   5.911   3.916   9.923 -0.6256 -0.4045  0.3727
  101OSM   C10S10160   5.843   4.045   9.784  0.3592  0.8267 -0.4381
  101OSM   H10S10161   5.941   4.090   9.758  0.1428  2.2106  0.9652
  101OSM   H10T10162   5.769   4.128   9.775 -0.9954 -0.4647 -1.7621
  101OSM   C11S10163   5.794   3.937   9.680  0.3480 -0.4047  0.5537
  101OSM   H11S10164   5.698   3.903   9.726 -0.3656 -0.7110 -1.0938
  101OSM   H11T10165   5.870   3.858   9.700 -0.1476 -0.4571  2.4157
  101OSM   C12S10166   5.772   3.987   9.538  0.0927  0.1668  0.4433
  101OSM   H12S10167   5.709   4.078   9.529 -0.8260 -0.5127 -0.2070
  101OSM   H12T10168   5.724   3.902   9.484  2.3618  0.1390 -1.7206
  101OSM   C13S10169   5.890   4.027   9.452 -0.0591 -0.1676  0.1469
  101OSM   H13S10170   5.960   3.940   9.453 -0.2903 -0.3636 -0.3126
  101OSM   H13T10171   5.936   4.121   9.491  0.5481  0.1754 -1.3134
  101OSM   C14S10172   5.848   4.043   9.308  0.1137  0.5030 -0.2733
  101OSM   H14S10173   5.781   4.131   9.296 -0.1786  0.0460 -2.3918
  101OSM   H14T10174   5.784   3.954   9.287  3.1763 -1.8433 -0.2729
  101OSM   C15S10175   5.967   4.035   9.213 -0.0242  0.2500  0.2300
  101OSM   H15S10176   6.022   3.939   9.231 -1.7441 -0.7232  0.5317
  101OSM   H15T10177   6.023   4.128   9.236 -0.6697  1.2377 -1.9321
  101OSM   C16S10178   5.927   4.027   9.064  0.0872 -0.5278 -0.1748
  101OSM   H16S10179   5.861   4.113   9.041  0.9136 -0.4501 -2.4707
  101OSM   H16T10180   5.870   3.936   9.035  1.3366 -1.5153  0.4119
  101OSM   C17S10181   6.043   4.035   8.974  0.6441 -0.0805 -0.2319
  101OSM   H17S10182   6.105   3.947   9.000  1.3339 -0.2463 -2.2148
  101OSM   H17T10183   6.106   4.119   9.010  0.0594  1.2039 -2.0313
  101OSM   C18S10184   6.021   4.038   8.820 -1.2209 -0.9996  0.0447
  101OSM   H18S10185   5.948   4.117   8.792 -1.1413 -1.1520 -0.5921
  101OSM   H18T10186   5.989   3.938   8.784 -0.6380 -0.7890 -1.0969
  101OSM   H18U10187   6.117   4.054   8.767 -1.3277  0.6388  0.2939
  101OSM    C1F10188   5.910   3.575  10.513  0.0042 -0.3231  0.7608
  101OSM     OF10189   5.792   3.560  10.554 -0.1542 -0.4113  0.2091
  101OSM    C2F10190   5.992   3.477  10.442 -0.1222  0.8463 -0.4579
  101OSM    H2F10191   6.057   3.418  10.511  1.1643  2.1023 -0.5424
  101OSM    H2G10192   6.069   3.530  10.382 -0.3130 -0.6039 -2.0748
  101OSM    C3F10193   5.908   3.379  10.359  0.2488  0.5633  0.0694
  101OSM    H3F10194   5.855   3.306  10.423 -0.2929  0.5328 -0.4065
  101OSM    H3G10195   5.988   3.321  10.308  0.8996  0.3531  1.3041
  101OSM    C4F10196   5.824   3.447  10.254 -0.2284  0.2574 -0.0060
  101OSM    H4F10197   5.733   3.497  10.294 -0.2029 -2.3014  3.7684
  101OSM    H4G10198   5.794   3.368  10.183  0.4414 -0.4411  0.4729
  101OSM    C5F10199   5.905   3.553  10.172  0.3234 -0.3380  0.1505
  101OSM    H5F10200   6.001   3.510  10.136  1.4336  1.7470  0.4751
  101OSM    H5G10201   5.937   3.641  10.233  1.9809  0.8366 -2.2663
  101OSM    C6F10202   5.827   3.605  10.052  0.8685  0.3654  1.1061
  101OSM    H6F10203   5.729   3.649  10.082 -0.1514 -1.0121 -0.0301
  101OSM    H6G10204   5.880   3.689  10.004  0.0381 -0.4718 -1.4390
  101OSM    C7F10205   5.815   3.496   9.949  0.5619  0.0285 -0.7655
  101OSM    H7F10206   5.745   3.415   9.978  2.1901 -0.6654  1.4125
  101OSM    H7G10207   5.914   3.451   9.931  0.2001 -1.0321 -0.1692
  101OSM    C8F10208   5.769   3.558   9.808  0.6639  0.8193  0.4213
  101OSM    H8F10209   5.847   3.626   9.766  1.7783 -0.8038 -0.2063
  101OSM    H8G10210   5.674   3.613   9.824  1.9957  3.2827  0.4498
  101OSM    C9F10211   5.747   3.445   9.713 -0.1440 -0.2510  0.5897
  101OSM    H9F10212   5.772   3.348   9.759  2.7943  0.7363  1.2429
  101OSM   C10F10213   5.708   3.445   9.582 -0.3272  0.0638  0.2039
  101OSM   H10F10214   5.711   3.359   9.513 -1.0290  0.9276 -0.9390
  101OSM   C11F10215   5.676   3.567   9.500 -1.5136  0.2328  0.3132
  101OSM   H11F10216   5.664   3.648   9.575  1.6400 -0.9315  2.3197
  101OSM   H11G10217   5.575   3.553   9.456 -0.5380 -0.6749 -1.7999
  101OSM   C12F10218   5.773   3.630   9.394 -0.0972 -0.1187 -0.1399
  101OSM   H12F10219   5.878   3.613   9.426 -0.3077 -1.3496 -0.0630
  101OSM   H12G10220   5.761   3.741   9.392  0.2846 -0.0819 -0.8515
  101OSM   C13F10221   5.754   3.562   9.256 -0.2525  0.1370 -0.4253
  101OSM   H13F10222   5.653   3.570   9.211  0.5850  2.2982 -2.1315
  101OSM   H13G10223   5.790   3.458   9.270 -2.6325 -0.4945  1.9651
  101OSM   C14F10224   5.835   3.630   9.146 -0.3064 -0.2992 -0.2599
  101OSM   H14F10225   5.937   3.663   9.177 -0.9536  2.1327 -0.4858
  101OSM   H14G10226   5.785   3.728   9.130  1.4269  0.6399 -0.2004
  101OSM   C15F10227   5.844   3.546   9.024 -0.1303 -0.4005 -0.1814
  101OSM   H15F10228   5.740   3.530   8.989 -0.1819  1.0768 -0.7778
  101OSM   H15G10229   5.899   3.454   9.053 -0.5573 -0.0465  1.9886
  101OSM   C16F10230   5.916   3.633   8.920 -0.7563 -0.6047 -0.7750
  101OSM   H16F10231   6.022   3.635   8.953  0.1298 -1.5216 -3.3204
  101OSM   H16G10232   5.873   3.735   8.924 -1.5612 -0.9518 -0.0896
  101OSM   C17F10233   5.918   3.561   8.785 -0.5103 -0.0101 -0.0114
  101OSM   H17F10234   5.831   3.493   8.778 -1.0790  0.2139  3.2429
  101OSM   H17G10235   6.001   3.490   8.764  0.0369  0.6964 -0.2568
  101OSM   C18F10236   5.920   3.666   8.674 -0.4473 -0.2427  0.1420
  101OSM   H18F10237   5.922   3.612   8.577 -0.6964 -0.3119  0.1738
  101OSM   H18G10238   6.017   3.719   8.688  0.2533 -1.3142 -0.5532
  101OSM   H18H10239   5.830   3.729   8.691  0.6825  1.3947  0.3039
  102OSM      N10240   1.707   5.433  10.824 -0.3599 -0.4515 -0.0884
  102OSM    C1510241   1.595   5.334  10.838 -0.8499 -0.3447  0.6834
  102OSM   H15A10242   1.560   5.324  10.940 -2.4468 -2.0960  0.0179
  102OSM   H15B10243   1.630   5.234  10.818  2.5900  0.8922 -0.0978
  102OSM   H15C10244   1.502   5.354  10.786 -0.8821 -0.2770  0.7668
  102OSM    C1410245   1.814   5.395  10.924  0.1666 -0.4765  0.8057
  102OSM   H14A10246   1.825   5.288  10.919 -4.3427 -1.1282 -3.5785
  102OSM   H14B10247   1.787   5.421  11.025  0.0009  0.2951  0.5727
  102OSM   H14C10248   1.907   5.444  10.898 -1.0779  1.2135 -0.7448
  102OSM    C1310249   1.764   5.436  10.690  0.0495 -0.6928 -0.7573
  102OSM   H13A10250   1.852   5.497  10.687  0.2304 -0.6988  2.0979
  102OSM   H13B10251   1.695   5.485  10.623  2.7817 -0.3763 -3.5617
  102OSM   H13C10252   1.787   5.335  10.659  1.0179 -1.1613  1.3562
  102OSM    C1210253   1.664   5.575  10.869  0.1158 -0.3239  0.2850
  102OSM   H12A10254   1.745   5.646  10.857  0.1129 -0.6704 -2.5060
  102OSM   H12B10255   1.618   5.570  10.966 -1.5929 -0.6556 -0.5139
  102OSM    C1110256   1.548   5.630  10.783 -0.4830 -0.3220  0.1802
  102OSM   H11A10257   1.580   5.634  10.677 -1.8188 -0.0463 -0.2313
  102OSM   H11B10258   1.540   5.732  10.825 -0.4434 -0.0822 -0.3885
  102OSM      P10259   1.309   5.584  10.686 -0.2989 -0.2157 -0.1838
  102OSM    O1310260   1.187   5.513  10.727  0.3862  0.5764  0.6381
  102OSM    O1410261   1.296   5.724  10.654 -0.5783 -0.0579  0.1803
  102OSM    O1110262   1.369   5.516  10.555  0.3568 -0.1571 -0.0385
  102OSM    O1210263   1.425   5.558  10.795  0.0282  0.6228  0.0502
  102OSM    C1S10264   1.383   5.382  10.524 -0.0407  0.3514  0.4844
  102OSM    H1S10265   1.294   5.321  10.551 -0.6306  0.8103 -0.3861
  102OSM    H1T10266   1.466   5.346  10.589  0.2769  1.5424  0.7686
  102OSM     NF10267   1.410   5.220  10.342  0.7241  0.1238  0.2382
  102OSM    HNF10268   1.492   5.164  10.354 -0.4012 -1.7818 -0.4906
  102OSM    C2S10269   1.420   5.363  10.372  0.7365 -0.5534  0.3001
  102OSM    H2S10270   1.352   5.421  10.306  0.7350  0.4643  1.1548
  102OSM    C3S10271   1.562   5.413  10.346 -0.2173  0.0392 -0.2023
  102OSM    H3S10272   1.637   5.350  10.400  0.3901  0.6771 -0.2879
  102OSM     O310273   1.597   5.542  10.391  0.0077 -0.6897  0.5612
  102OSM    HO310274   1.518   5.575  10.433  1.9733  1.5263  2.7950
  102OSM    C4S10275   1.592   5.393  10.199  0.5834  0.4575 -0.3376
  102OSM    H4S10276   1.585   5.287  10.172  0.5625  0.1427  0.8396
  102OSM    C5S10277   1.599   5.485  10.102 -0.0360 -0.9978  0.9520
  102OSM    H5S10278   1.582   5.593  10.116  2.1665 -0.2151 -1.5470
  102OSM    C6S10279   1.629   5.453   9.958 -0.1576 -0.0967 -0.4090
  102OSM    H6S10280   1.546   5.497   9.898 -1.5530  1.4942  2.5140
  102OSM    H6T10281   1.643   5.345   9.936  0.5869  0.0474 -0.6513
  102OSM    C7S10282   1.759   5.530   9.911  0.6354 -0.4605 -0.4461
  102OSM    H7S10283   1.829   5.518   9.997 -0.2002  1.8828  0.6500
  102OSM    H7T10284   1.741   5.639   9.910 -1.1270 -0.7208 -1.8939
  102OSM    C8S10285   1.822   5.486   9.782  0.4528 -0.1751 -0.3732
  102OSM    H8S10286   1.798   5.380   9.763 -2.9387  0.3272  0.3612
  102OSM    H8T10287   1.932   5.499   9.794  0.4371  0.7169 -1.0346
  102OSM    C9S10288   1.766   5.562   9.661 -0.2955 -0.6299  0.4547
  102OSM    H9S10289   1.809   5.664   9.650  1.0722 -1.3437 -1.1870
  102OSM    H9T10290   1.656   5.576   9.670 -0.4277 -0.0185 -1.7175
  102OSM   C10S10291   1.804   5.481   9.532 -0.3429 -0.1235 -0.2245
  102OSM   H10S10292   1.765   5.377   9.533 -1.4009  0.2629  0.0908
  102OSM   H10T10293   1.914   5.485   9.520 -0.2482 -0.4750  0.4565
  102OSM   C11S10294   1.744   5.548   9.414 -0.0904 -0.3996 -0.1379
  102OSM   H11S10295   1.767   5.657   9.412 -0.1152 -0.3260  1.7273
  102OSM   H11T10296   1.634   5.533   9.412 -0.1876  0.2347 -3.1937
  102OSM   C12S10297   1.801   5.489   9.286  0.4127  0.1815  0.0281
  102OSM   H12S10298   1.768   5.384   9.276 -1.7461  0.8747 -0.7004
  102OSM   H12T10299   1.911   5.501   9.296  0.3110  0.8620  0.4170
  102OSM   C13S10300   1.732   5.553   9.175  0.0063  0.2708  0.1913
  102OSM   H13S10301   1.731   5.663   9.195 -2.1907  0.6594 -1.6451
  102OSM   H13T10302   1.626   5.519   9.175  0.5908 -1.6296 -0.4385
  102OSM   C14S10303   1.784   5.519   9.034  0.4194 -0.1920  0.1661
  102OSM   H14S10304   1.801   5.410   9.031  0.7489 -0.1839  1.1749
  102OSM   H14T10305   1.887   5.559   9.018 -0.0909  1.0987 -0.0329
  102OSM   C15S10306   1.699   5.576   8.921  0.1125  0.4529 -0.5606
  102OSM   H15S10307   1.669   5.680   8.948  1.1577  0.5660  0.2332
  102OSM   H15T10308   1.608   5.513   8.929 -0.0445  0.6965 -0.4009
  102OSM   C16S10309   1.766   5.572   8.782  0.2081 -0.5404 -0.2255
  102OSM   H16S10310   1.866   5.621   8.788 -0.1378  0.0224  1.0387
  102OSM   H16T10311   1.698   5.627   8.714 -0.4393 -1.0964 -0.0322
  102OSM   C17S10312   1.782   5.431   8.726  0.9457  0.0714 -1.0521
  102OSM   H17S10313   1.686   5.376   8.737  0.3411  1.2993  0.1328
  102OSM   H17T10314   1.865   5.382   8.781  0.9381  1.8103  0.6172
  102OSM   C18S10315   1.821   5.432   8.575  0.4692  0.1436 -0.5590
  102OSM   H18S10316   1.832   5.326   8.544 -1.5363 -0.9604  2.0973
  102OSM   H18T10317   1.914   5.489   8.551 -0.8081  1.7757 -1.9083
  102OSM   H18U10318   1.740   5.484   8.520  2.0786  2.5363 -0.8523
  102OSM    C1F10319   1.289   5.165  10.308 -0.8675  0.9683 -0.0226
  102OSM     OF10320   1.194   5.238  10.290 -0.4798  0.2527  0.6826
  102OSM    C2F10321   1.279   5.013  10.300  0.0376  0.5080  0.3147
  102OSM    H2F10322   1.236   4.972  10.393  3.9877 -0.1664  2.0566
  102OSM    H2G10323   1.380   4.968  10.294 -0.9928 -1.7952 -1.4474
  102OSM    C3F10324   1.188   4.974  10.180  0.2874 -0.0854  0.3891
  102OSM    H3F10325   1.225   5.033  10.093 -0.9496  0.0721 -0.0512
  102OSM    H3G10326   1.081   5.000  10.194 -0.0840  0.1042 -2.1691
  102OSM    C4F10327   1.183   4.830  10.130 -0.4067  0.3792  0.3786
  102OSM    H4F10328   1.116   4.800  10.047 -0.7870  0.2907  0.7143
  102OSM    H4G10329   1.145   4.779  10.221 -0.1449 -1.5881 -0.5745
  102OSM    C5F10330   1.321   4.760  10.105  0.0282  0.0610  0.0603
  102OSM    H5F10331   1.301   4.651  10.094 -1.6939  0.3967 -0.5269
  102OSM    H5G10332   1.386   4.769  10.194  0.6620 -0.4266 -0.3424
  102OSM    C6F10333   1.398   4.790   9.973 -0.3588 -0.1100  0.2505
  102OSM    H6F10334   1.480   4.716   9.959 -0.7453 -0.4512 -0.2314
  102OSM    H6G10335   1.453   4.886   9.983  0.9784 -0.7985 -0.1845
  102OSM    C7F10336   1.314   4.793   9.844  0.1920  0.1177  0.2496
  102OSM    H7F10337   1.236   4.871   9.855 -0.6825 -1.0164  2.9417
  102OSM    H7G10338   1.249   4.703   9.842 -0.1294  0.2994  1.6947
  102OSM    C8F10339   1.391   4.808   9.715 -0.3275  0.5814  0.4040
  102OSM    H8F10340   1.434   4.707   9.699  0.3059  0.9322 -0.1217
  102OSM    H8G10341   1.476   4.871   9.748  2.3964 -2.8658  0.4843
  102OSM    C9F10342   1.301   4.856   9.601  0.0068  0.6356 -0.1840
  102OSM    H9F10343   1.222   4.927   9.630 -1.5698 -1.2307  0.3305
  102OSM   C10F10344   1.312   4.834   9.469 -0.3116 -0.0390 -0.6280
  102OSM   H10F10345   1.240   4.878   9.398 -0.8048  1.6110  0.8419
  102OSM   C11F10346   1.426   4.755   9.414  0.0199 -0.2382  0.4168
  102OSM   H11F10347   1.430   4.646   9.437  2.7143 -0.6576 -1.5233
  102OSM   H11G10348   1.522   4.784   9.462 -0.5318 -0.5832  1.7689
  102OSM   C12F10349   1.457   4.793   9.268 -0.6444 -0.0674 -0.0516
  102OSM   H12F10350   1.551   4.740   9.243 -0.0189  0.2033  1.5943
  102OSM   H12G10351   1.462   4.903   9.253  1.1711 -0.1835 -0.5361
  102OSM   C13F10352   1.347   4.745   9.177 -0.2426 -0.5512  0.4707
  102OSM   H13F10353   1.256   4.807   9.189  0.2886  0.0869  1.3920
  102OSM   H13G10354   1.320   4.640   9.200 -3.8768 -0.3084 -1.9063
  102OSM   C14F10355   1.390   4.766   9.032  0.0839  0.3309  0.0482
  102OSM   H14F10356   1.400   4.875   9.014  0.2744  0.1534 -0.9665
  102OSM   H14G10357   1.309   4.734   8.963 -0.0861  0.5461  0.1441
  102OSM   C15F10358   1.516   4.689   8.984  0.4987  0.9328 -0.3915
  102OSM   H15F10359   1.493   4.581   8.977 -2.0855  1.3527  0.7348
  102OSM   H15G10360   1.609   4.689   9.045  0.7598 -1.6283 -0.6785
  102OSM   C16F10361   1.547   4.708   8.834 -0.1567  0.7382  0.2970
  102OSM   H16F10362   1.450   4.714   8.780 -0.2446 -0.4837  0.2948
  102OSM   H16G10363   1.592   4.627   8.773 -2.0149  0.7424 -1.1666
  102OSM   C17F10364   1.621   4.839   8.815 -0.5373 -0.6399 -0.0185
  102OSM   H17F10365   1.692   4.852   8.900  0.3693  1.0211 -0.9627
  102OSM   H17G10366   1.548   4.921   8.832 -0.5050 -0.5312 -0.4014
  102OSM   C18F10367   1.696   4.869   8.690  0.7855  0.5410 -0.0009
  102OSM   H18F10368   1.650   4.823   8.600 -0.9423 -0.1409  1.1534
  102OSM   H18G10369   1.802   4.837   8.697  0.9954  1.0281 -0.8905
  102OSM   H18H10370   1.696   4.979   8.673  0.6410  0.2904 -1.8518
  103OSM      N10371   6.315   1.351  11.170 -0.2952  0.2478 -0.7253
  103OSM    C1510372   6.222   1.261  11.246  0.2811  0.7194 -0.3023
  103OSM   H15A10373   6.123   1.256  11.203 -0.0722 -0.7257  0.6143
  103OSM   H15B10374   6.219   1.310  11.342 -1.1832  0.8714 -0.4027
  103OSM   H15C10375   6.256   1.161  11.272 -3.4504 -0.9826 -1.3162
  103OSM    C1410376   6.274   1.492  11.197 -0.0403 -0.0568 -0.2605
  103OSM   H14A10377   6.166   1.497  11.189  0.0113  1.8925 -0.0434
  103OSM   H14B10378   6.314   1.561  11.124 -1.7757  2.7876  1.2979
  103OSM   H14C10379   6.297   1.520  11.298  0.3551 -2.1468  0.2759
  103OSM    C1310380   6.455   1.330  11.223 -0.2198 -0.6061  0.6092
  103OSM   H13A10381   6.454   1.346  11.330 -0.8783 -3.0440  1.0259
  103OSM   H13B10382   6.521   1.404  11.180  0.4395  0.3839  3.1142
  103OSM   H13C10383   6.498   1.233  11.208  0.0205 -0.5795  1.0820
  103OSM    C1210384   6.327   1.314  11.026  0.5302 -0.0944  1.0893
  103OSM   H12A10385   6.378   1.220  11.017 -0.6794 -0.7445  0.8954
  103OSM   H12B10386   6.369   1.392  10.964 -3.0841  0.3694 -1.0144
  103OSM    C1110387   6.197   1.294  10.948 -0.3121 -0.0533  0.1231
  103OSM   H11A10388   6.141   1.216  11.003 -1.8699  0.5182 -0.5927
  103OSM   H11B10389   6.217   1.264  10.843  1.0490  0.1790  0.3007
  103OSM      P10390   6.132   1.542  10.866  0.2449 -0.1466  0.1460
  103OSM    O1310391   6.030   1.639  10.907  0.2918 -0.1366  0.5936
  103OSM    O1410392   6.272   1.586  10.857  0.1151 -0.3345 -0.3794
  103OSM    O1110393   6.089   1.481  10.725  0.0685 -0.4623 -0.0903
  103OSM    O1210394   6.118   1.413  10.963 -0.3693 -0.0517  0.0303
  103OSM    C1S10395   6.030   1.566  10.632 -0.3127 -0.5624  0.0510
  103OSM    H1S10396   6.108   1.643  10.608  0.7943 -1.5902  0.2460
  103OSM    H1T10397   5.937   1.614  10.669  0.1657  1.8080 -1.5849
  103OSM     NF10398   5.949   1.586  10.400  0.8087 -0.2570 -0.1768
  103OSM    HNF10399   5.851   1.604  10.398  0.6653 -0.7321 -3.2490
  103OSM    C2S10400   5.997   1.490  10.498 -0.0787 -0.0247  0.3295
  103OSM    H2S10401   6.087   1.443  10.453  0.5577  2.2241 -0.9094
  103OSM    C3S10402   5.899   1.363  10.513  0.7317  0.3640  0.0227
  103OSM    H3S10403   5.792   1.390  10.523 -0.3224 -3.3685  0.5518
  103OSM     O310404   5.923   1.282  10.629 -0.1139  0.0448 -0.0471
  103OSM    HO310405   5.968   1.344  10.687 -0.7567  1.3574 -0.8717
  103OSM    C4S10406   5.907   1.289  10.379  0.4723  0.1715  0.3142
  103OSM    H4S10407   5.833   1.327  10.308  0.1217  0.0969  0.6301
  103OSM    C5S10408   5.998   1.195  10.342  0.4464  0.5497  0.7308
  103OSM    H5S10409   6.080   1.164  10.408  1.3617  0.0226 -0.6190
  103OSM    C6S10410   6.006   1.117  10.210  0.1118 -0.0281  0.2954
  103OSM    H6S10411   5.976   1.012  10.228 -0.1832 -0.2039 -1.1048
  103OSM    H6T10412   6.110   1.120  10.172  0.3143  0.2405  0.8499
  103OSM    C7S10413   5.921   1.169  10.088  0.1243  0.3164  0.0297
  103OSM    H7S10414   5.969   1.263  10.054  0.4779  0.2378  0.2974
  103OSM    H7T10415   5.818   1.189  10.124  0.2486 -0.0952  0.6226
  103OSM    C8S10416   5.918   1.079   9.970 -0.1902  0.0230  0.2446
  103OSM    H8S10417   5.857   0.991  10.000  1.0821 -1.1906 -0.5712
  103OSM    H8T10418   6.019   1.034   9.956 -0.1940  0.1157 -0.0907
  103OSM    C9S10419   5.866   1.140   9.850 -0.3459  0.0952 -0.0742
  103OSM    H9S10420   5.932   1.226   9.823  0.9267 -1.2360 -1.3411
  103OSM    H9T10421   5.763   1.179   9.865 -0.8915 -1.9875  2.2073
  103OSM   C10S10422   5.868   1.048   9.730  0.2449  0.6084  0.0069
  103OSM   H10S10423   5.807   0.956   9.747  1.1070  0.5157  3.3330
  103OSM   H10T10424   5.970   1.012   9.705 -0.2580 -1.2350  0.4509
  103OSM   C11S10425   5.812   1.125   9.612 -0.0333  0.0549  0.2781
  103OSM   H11S10426   5.873   1.214   9.584 -1.4511  0.8930 -0.2732
  103OSM   H11T10427   5.712   1.162   9.643  0.3087  1.0145  0.2948
  103OSM   C12S10428   5.813   1.045   9.483  0.4460 -0.6129  0.6564
  103OSM   H12S10429   5.770   0.950   9.522 -0.6166 -0.2210  0.4820
  103OSM   H12T10430   5.917   1.042   9.444 -0.1162 -1.6575 -0.8743
  103OSM   C13S10431   5.714   1.090   9.381 -0.2652  0.5667 -0.3592
  103OSM   H13S10432   5.612   1.117   9.415 -0.9828  1.0234 -2.7126
  103OSM   H13T10433   5.713   1.012   9.302  0.1355  0.0419  0.1419
  103OSM   C14S10434   5.770   1.209   9.309 -0.2347 -0.1138  0.6874
  103OSM   H14S10435   5.880   1.210   9.328 -0.5664 -0.2070  2.8485
  103OSM   H14T10436   5.733   1.308   9.341 -1.4588  0.1656 -1.4110
  103OSM   C15S10437   5.761   1.220   9.161  1.4719  0.2999  0.9631
  103OSM   H15S10438   5.808   1.137   9.104 -1.0594 -0.2662 -0.4344
  103OSM   H15T10439   5.801   1.318   9.126 -0.8517  1.1850  0.6084
  103OSM   C16S10440   5.607   1.224   9.117 -0.0888  0.3678 -0.1031
  103OSM   H16S10441   5.547   1.281   9.192 -0.9263 -0.4292 -0.1544
  103OSM   H16T10442   5.566   1.121   9.114 -3.2312  1.4764 -3.5748
  103OSM   C17S10443   5.582   1.271   8.973 -0.3255  0.1287  0.1501
  103OSM   H17S10444   5.498   1.208   8.938 -0.1828  1.7053 -3.3700
  103OSM   H17T10445   5.660   1.228   8.907 -0.7163 -0.0021 -0.2255
  103OSM   C18S10446   5.563   1.419   8.949  0.0775 -0.1259  0.2070
  103OSM   H18S10447   5.496   1.446   8.865 -0.2363 -0.5141  0.3294
  103OSM   H18T10448   5.660   1.474   8.945  0.4471 -0.6872  1.0295
  103OSM   H18U10449   5.507   1.457   9.037  0.8081  0.3566  0.4804
  103OSM    C1F10450   6.035   1.664  10.334  0.0551  0.5773 -0.0445
  103OSM     OF10451   6.155   1.659  10.353 -0.2751  0.1470  0.0395
  103OSM    C2F10452   5.971   1.771  10.242 -1.1517 -0.1407  0.4020
  103OSM    H2F10453   5.907   1.840  10.301 -0.9381  1.1524 -0.8363
  103OSM    H2G10454   5.913   1.716  10.165 -0.5057 -0.5650  0.2084
  103OSM    C3F10455   6.077   1.859  10.166 -0.1943 -0.7091 -0.3854
  103OSM    H3F10456   6.157   1.802  10.114 -2.1221 -3.2846 -0.7373
  103OSM    H3G10457   6.131   1.918  10.243  0.0293  0.5911 -1.5142
  103OSM    C4F10458   6.000   1.967  10.086 -0.1561  0.1950 -0.0952
  103OSM    H4F10459   5.943   2.030  10.158  0.8270 -1.3588  2.1854
  103OSM    H4G10460   5.927   1.926  10.013 -1.4967 -0.5722  1.5957
  103OSM    C5F10461   6.089   2.062  10.009  0.3361 -0.2223  0.7470
  103OSM    H5F10462   6.156   1.999   9.947 -0.0810 -1.4069  1.4837
  103OSM    H5G10463   6.158   2.124  10.071  1.7962 -2.6034  1.6514
  103OSM    C6F10464   6.014   2.160   9.909 -0.5826  0.1340 -0.4329
  103OSM    H6F10465   5.944   2.225   9.964 -0.8030  0.6143 -1.2674
  103OSM    H6G10466   5.966   2.091   9.837 -0.5558 -0.6466  0.2846
  103OSM    C7F10467   6.126   2.239   9.822  0.1376  0.2576 -0.0843
  103OSM    H7F10468   6.184   2.159   9.771  0.8878  1.3522 -0.9981
  103OSM    H7G10469   6.196   2.300   9.884 -0.4197 -0.4004  1.2334
  103OSM    C8F10470   6.073   2.331   9.709  0.6075 -0.0342 -0.6289
  103OSM    H8F10471   5.994   2.281   9.649 -0.3988  0.5647  0.1802
  103OSM    H8G10472   6.159   2.338   9.638  1.9144 -2.4974  0.5708
  103OSM    C9F10473   6.022   2.453   9.768  0.3629  0.0948  0.5533
  103OSM    H9F10474   5.924   2.442   9.817 -0.7578  0.7473 -1.4256
  103OSM   C10F10475   6.067   2.574   9.757  0.0497 -0.5452 -0.0241
  103OSM   H10F10476   6.038   2.656   9.825  3.4043 -0.5822  1.6229
  103OSM   C11F10477   6.184   2.612   9.682  0.0202 -0.4641  0.4095
  103OSM   H11F10478   6.261   2.531   9.680 -0.6266 -1.1129  1.1295
  103OSM   H11G10479   6.227   2.702   9.732 -0.9302  0.6232 -0.6863
  103OSM   C12F10480   6.143   2.633   9.531  0.7172 -0.5030  0.5280
  103OSM   H12F10481   6.078   2.722   9.520  1.6711 -0.0099 -1.4877
  103OSM   H12G10482   6.087   2.545   9.494 -0.7418 -0.6163  2.7591
  103OSM   C13F10483   6.265   2.670   9.438  0.0517 -0.5850  0.2317
  103OSM   H13F10484   6.346   2.593   9.443  0.7867  0.1766  0.2582
  103OSM   H13G10485   6.315   2.762   9.476 -0.0817 -0.9248  1.2601
  103OSM   C14F10486   6.213   2.692   9.301 -0.7214 -0.9254  0.0483
  103OSM   H14F10487   6.142   2.776   9.314  0.5846  0.2141  0.0337
  103OSM   H14G10488   6.155   2.601   9.271 -0.6368 -0.8061 -0.4935
  103OSM   C15F10489   6.320   2.737   9.202  0.2454  0.4384 -0.2704
  103OSM   H15F10490   6.409   2.673   9.218 -0.2981 -0.0300  1.1196
  103OSM   H15G10491   6.348   2.838   9.238  2.7557 -0.9077  1.9146
  103OSM   C16F10492   6.275   2.740   9.060 -0.4774  0.4161 -0.4583
  103OSM   H16F10493   6.193   2.815   9.057  0.0070  1.1341  1.9604
  103OSM   H16G10494   6.236   2.645   9.016 -0.1663  0.0846 -0.0335
  103OSM   C17F10495   6.386   2.799   8.971  0.5483  0.8225 -0.0937
  103OSM   H17F10496   6.483   2.744   8.971 -0.4121 -0.9350 -0.7399
  103OSM   H17G10497   6.415   2.900   9.005  1.0618  0.8285 -0.5342
  103OSM   C18F10498   6.342   2.808   8.826  0.0970  0.1716  0.3053
  103OSM   H18F10499   6.317   2.707   8.788  0.2001  0.6778 -1.1680
  103OSM   H18G10500   6.426   2.846   8.764 -0.7124  1.5095 -0.0235
  103OSM   H18H10501   6.253   2.874   8.817 -0.0752 -0.0532  0.3463
  104OSM      N10502   1.880   1.355  10.797 -0.1674  0.6783  0.1979
  104OSM    C1510503   1.775   1.327  10.903 -0.4919 -0.7491  0.4754
  104OSM   H15A10504   1.744   1.418  10.953  0.5238 -0.9719  1.5604
  104OSM   H15B10505   1.814   1.258  10.976  3.0268 -2.1850 -2.4572
  104OSM   H15C10506   1.690   1.271  10.867 -0.5722 -2.1011  2.5935
  104OSM    C1410507   2.011   1.376  10.860  1.0837 -0.6343 -0.4797
  104OSM   H14A10508   2.047   1.288  10.912 -0.5382 -1.0105  0.0705
  104OSM   H14B10509   1.996   1.449  10.938  2.3172 -0.0468 -0.7686
  104OSM   H14C10510   2.087   1.405  10.790  1.5518 -1.2815 -0.2499
  104OSM    C1310511   1.891   1.230  10.711 -0.3147  0.2991  0.3983
  104OSM   H13A10512   1.803   1.214  10.650  0.6993 -1.1816 -0.7521
  104OSM   H13B10513   1.914   1.143  10.770  0.7692  0.1892 -0.1475
  104OSM   H13C10514   1.972   1.243  10.639 -1.6393  0.0136 -1.2078
  104OSM    C1210515   1.836   1.466  10.707 -0.6161  0.4912 -0.8226
  104OSM   H12A10516   1.743   1.438  10.659 -0.2803  1.5125 -2.1311
  104OSM   H12B10517   1.907   1.487  10.629 -0.4219  2.2831 -0.2011
  104OSM    C1110518   1.818   1.605  10.772 -0.5245 -0.2963  0.3126
  104OSM   H11A10519   1.820   1.678  10.688  4.1960 -0.7974 -0.2856
  104OSM   H11B10520   1.910   1.628  10.830 -1.5654 -0.3988  2.0680
  104OSM      P10521   1.563   1.617  10.771 -0.1351 -0.0476  0.1047
  104OSM    O1310522   1.456   1.587  10.864  0.0529  0.3843  0.0833
  104OSM    O1410523   1.559   1.745  10.696  0.1325  0.0088  0.1359
  104OSM    O1110524   1.576   1.493  10.675 -0.0728 -0.2743 -0.3320
  104OSM    O1210525   1.699   1.606  10.847  0.2955  0.5399 -0.2744
  104OSM    C1S10526   1.472   1.423  10.612 -0.4107  0.2016  0.1189
  104OSM    H1S10527   1.382   1.440  10.675 -0.7937  1.6665 -0.7700
  104OSM    H1T10528   1.505   1.317  10.617 -1.4984 -0.1315  0.5514
  104OSM     NF10529   1.359   1.361  10.404 -0.2663 -0.1402  0.5027
  104OSM    HNF10530   1.408   1.301  10.341  1.8265  1.2614  0.6648
  104OSM    C2S10531   1.453   1.461  10.460  0.5302 -0.7204 -0.4466
  104OSM    H2S10532   1.414   1.565  10.452  2.4409  0.2084  1.2990
  104OSM    C3S10533   1.595   1.473  10.389  1.2201  0.3428 -0.2367
  104OSM    H3S10534   1.631   1.368  10.392  0.8637  0.2284  0.2442
  104OSM     O310535   1.702   1.539  10.452 -0.6275  0.6989  0.1849
  104OSM    HO310536   1.667   1.592  10.525  1.0426 -0.8038  2.2125
  104OSM    C4S10537   1.581   1.516  10.244 -0.4611  0.8853 -0.1577
  104OSM    H4S10538   1.586   1.427  10.181  1.6847  0.0712  1.0536
  104OSM    C5S10539   1.596   1.644  10.195 -0.5291 -0.0945 -0.8331
  104OSM    H5S10540   1.607   1.723  10.270 -0.2833 -0.4393 -0.5043
  104OSM    C6S10541   1.594   1.690  10.056 -0.1809 -0.3270  0.6466
  104OSM    H6S10542   1.699   1.719  10.032 -0.1675 -1.2513 -0.4999
  104OSM    H6T10543   1.533   1.784  10.053  0.8473  0.3857  1.5151
  104OSM    C7S10544   1.521   1.606   9.945  0.2755 -0.2944  0.1435
  104OSM    H7S10545   1.413   1.594   9.966 -0.3430  2.7270 -0.8932
  104OSM    H7T10546   1.572   1.507   9.939 -1.4206 -1.2774  1.1867
  104OSM    C8S10547   1.520   1.672   9.811 -0.5251 -0.1228  0.2218
  104OSM    H8S10548   1.627   1.695   9.793 -1.3245  2.2728 -2.2002
  104OSM    H8T10549   1.476   1.773   9.809  1.2917  0.7499  1.7447
  104OSM    C9S10550   1.459   1.592   9.702 -0.7189  0.0438 -0.6063
  104OSM    H9S10551   1.355   1.557   9.719 -0.0001 -1.7647  0.2617
  104OSM    H9T10552   1.520   1.500   9.693  0.7493  0.9962 -0.8575
  104OSM   C10S10553   1.457   1.665   9.573 -0.6660 -0.4204 -0.2035
  104OSM   H10S10554   1.560   1.703   9.558 -0.8218  0.2891  0.4244
  104OSM   H10T10555   1.388   1.752   9.577 -1.4804 -1.0845  0.4861
  104OSM   C11S10556   1.430   1.586   9.451 -0.0500  0.1717  0.2482
  104OSM   H11S10557   1.349   1.513   9.470  0.8038 -1.0605 -0.7070
  104OSM   H11T10558   1.528   1.546   9.417  0.2956  2.2495 -1.4347
  104OSM   C12S10559   1.383   1.669   9.328  1.1577  0.2463 -0.1773
  104OSM   H12S10560   1.464   1.736   9.294  1.8224 -0.0110  0.8384
  104OSM   H12T10561   1.293   1.728   9.356  0.2665 -0.1994 -1.9752
  104OSM   C13S10562   1.337   1.566   9.219 -0.1434 -0.0109 -0.4399
  104OSM   H13S10563   1.271   1.486   9.258  0.6695 -1.1456 -1.3158
  104OSM   H13T10564   1.427   1.511   9.181  0.4430 -0.9261  2.0381
  104OSM   C14S10565   1.272   1.630   9.094  0.0440 -0.6055  0.1707
  104OSM   H14S10566   1.334   1.719   9.071  2.0603 -2.0997 -0.4363
  104OSM   H14T10567   1.167   1.656   9.116 -0.0691 -0.1248 -0.8830
  104OSM   C15S10568   1.274   1.551   8.964  0.0370 -0.7408  0.5269
  104OSM   H15S10569   1.199   1.586   8.890  0.3327  3.3684  1.8904
  104OSM   H15T10570   1.227   1.457   9.001  1.3407 -1.0476  1.4768
  104OSM   C16S10571   1.413   1.544   8.891  0.1078 -0.6849 -0.2917
  104OSM   H16S10572   1.390   1.477   8.805  0.6832  0.4154 -1.3367
  104OSM   H16T10573   1.489   1.494   8.954 -0.8073  0.8817  2.1873
  104OSM   C17S10574   1.461   1.678   8.839 -0.7992 -0.1776 -0.1665
  104OSM   H17S10575   1.538   1.708   8.913  1.4966  2.0607 -3.2388
  104OSM   H17T10576   1.382   1.753   8.861 -1.0954 -0.8236  1.1154
  104OSM   C18S10577   1.517   1.681   8.705 -0.6248  0.0398 -0.0388
  104OSM   H18S10578   1.535   1.782   8.662  1.8674 -0.6524 -0.8189
  104OSM   H18T10579   1.459   1.627   8.627 -0.0267  1.2207 -1.3561
  104OSM   H18U10580   1.611   1.622   8.696 -0.7382  0.1540 -2.9631
  104OSM    C1F10581   1.229   1.351  10.442  0.1096 -0.0060 -0.7936
  104OSM     OF10582   1.170   1.437  10.504 -1.1773 -0.8181  0.1722
  104OSM    C2F10583   1.166   1.226  10.399  0.4465 -0.2612 -0.3113
  104OSM    H2F10584   1.152   1.155  10.483  1.7543 -0.4257 -0.2209
  104OSM    H2G10585   1.232   1.178  10.324  1.0766  0.5852 -0.3166
  104OSM    C3F10586   1.026   1.249  10.343 -0.7395 -0.4292 -0.0479
  104OSM    H3F10587   0.963   1.331  10.384 -0.9291 -0.2679 -0.6592
  104OSM    H3G10588   0.964   1.158  10.358 -2.1897  0.2362 -1.6266
  104OSM    C4F10589   1.018   1.285  10.196 -0.2758 -0.4218 -0.3890
  104OSM    H4F10590   0.913   1.275  10.161 -0.5593 -2.2476  0.8944
  104OSM    H4G10591   1.078   1.219  10.130  2.5907  1.0927  0.4815
  104OSM    C5F10592   1.063   1.428  10.168  0.0415 -0.6937  0.3737
  104OSM    H5F10593   1.172   1.441  10.182 -0.1250  2.0306 -0.3241
  104OSM    H5G10594   1.013   1.508  10.227 -1.1175  0.4602 -2.0063
  104OSM    C6F10595   1.043   1.486  10.023 -0.2765 -0.3256  0.3445
  104OSM    H6F10596   1.101   1.581  10.018  0.6071 -0.8620  0.2505
  104OSM    H6G10597   0.934   1.506  10.009 -0.8495 -3.2175  0.1168
  104OSM    C7F10598   1.089   1.388   9.920 -0.7420  0.0576  0.5361
  104OSM    H7F10599   1.043   1.287   9.923  1.4515 -0.9699  2.0541
  104OSM    H7G10600   1.198   1.367   9.925 -0.7181 -0.1473 -0.5901
  104OSM    C8F10601   1.069   1.445   9.778  0.4601  0.4334 -0.7535
  104OSM    H8F10602   1.095   1.365   9.705 -2.0555  0.0526 -1.3226
  104OSM    H8G10603   1.138   1.531   9.764 -0.7862  1.2139 -2.4366
  104OSM    C9F10604   0.924   1.475   9.750  0.0636 -1.1780 -0.1076
  104OSM    H9F10605   0.854   1.406   9.799 -1.0001  0.4754  0.8172
  104OSM   C10F10606   0.883   1.555   9.650  0.0578 -0.4830 -0.1915
  104OSM   H10F10607   0.777   1.581   9.636 -0.4109 -1.1171  1.7671
  104OSM   C11F10608   0.976   1.628   9.556 -0.0860  0.3015 -0.9504
  104OSM   H11F10609   1.077   1.639   9.602 -0.4395  2.4598 -0.6003
  104OSM   H11G10610   0.949   1.731   9.526 -1.1135  1.3553  3.0505
  104OSM   C12F10611   0.997   1.545   9.427  0.1341 -0.1814 -0.2055
  104OSM   H12F10612   1.041   1.447   9.457 -1.8436 -0.3577  2.5178
  104OSM   H12G10613   1.068   1.600   9.362 -1.4871 -1.8982 -3.7211
  104OSM   C13F10614   0.883   1.529   9.337  0.1531 -0.3453 -0.1524
  104OSM   H13F10615   0.844   1.632   9.321 -1.0580 -0.7207  0.2437
  104OSM   H13G10616   0.796   1.476   9.382 -0.1143  1.1350  1.1604
  104OSM   C14F10617   0.916   1.471   9.193 -1.3276 -0.4509  0.1678
  104OSM   H14F10618   0.898   1.363   9.172 -1.7305 -0.7164  1.7553
  104OSM   H14G10619   1.025   1.484   9.174 -1.5683  1.4884 -0.0967
  104OSM   C15F10620   0.849   1.552   9.085  0.1262 -0.6721 -0.4740
  104OSM   H15F10621   0.879   1.659   9.093 -0.2506 -0.5655 -0.4869
  104OSM   H15G10622   0.738   1.555   9.089  0.1716  1.3286  1.4593
  104OSM   C16F10623   0.877   1.504   8.942  0.4322 -0.3064  0.2875
  104OSM   H16F10624   0.839   1.401   8.923 -0.9407  0.3095 -0.4604
  104OSM   H16G10625   0.984   1.502   8.915  0.5605 -1.5255  0.8188
  104OSM   C17F10626   0.814   1.592   8.832 -0.0658  0.7913  0.2380
  104OSM   H17F10627   0.704   1.603   8.843 -0.0158  1.4389  0.1414
  104OSM   H17G10628   0.828   1.537   8.737 -0.2497 -2.1275  1.7932
  104OSM   C18F10629   0.873   1.738   8.811  1.3316 -0.1239 -0.5034
  104OSM   H18F10630   0.834   1.806   8.890  2.3650 -1.7189  1.4781
  104OSM   H18G10631   0.832   1.782   8.717  0.3930  1.9065  0.7954
  104OSM   H18H10632   0.984   1.732   8.801  1.3163  2.5134 -4.8601
  105OSM      N10633   4.139   4.501  10.770  0.2323  0.6124  0.1526
  105OSM    C1510634   3.992   4.484  10.736 -0.4515 -0.0789  0.2468
  105OSM   H15A10635   3.975   4.442  10.638  0.7648 -0.8047  0.3134
  105OSM   H15B10636   3.953   4.584  10.730  2.7005  1.4278  2.2348
  105OSM   H15C10637   3.949   4.410  10.802  0.6950 -1.2885 -0.2960
  105OSM    C1410638   4.203   4.557  10.649 -0.0162  0.1078 -0.1594
  105OSM   H14A10639   4.176   4.658  10.623 -0.3377 -0.1457 -0.8220
  105OSM   H14B10640   4.174   4.500  10.562  1.6668 -0.1476 -0.5796
  105OSM   H14C10641   4.310   4.561  10.662 -0.0669 -0.6130  0.6005
  105OSM    C1310642   4.152   4.599  10.880  0.6551  0.3949 -0.3590
  105OSM   H13A10643   4.132   4.703  10.861  3.5167  0.8461 -1.4477
  105OSM   H13B10644   4.246   4.574  10.927 -0.1530  0.4783  1.3460
  105OSM   H13C10645   4.086   4.570  10.960  0.4741 -0.3559 -0.7704
  105OSM    C1210646   4.201   4.368  10.824 -0.3690  0.3321  0.5226
  105OSM   H12A10647   4.305   4.386  10.848  0.0592 -1.2603 -0.0159
  105OSM   H12B10648   4.214   4.302  10.739 -0.8374  0.8541  0.0337
  105OSM    C1110649   4.127   4.297  10.938 -0.2163  0.6144  0.2596
  105OSM   H11A10650   4.116   4.383  11.009  0.3839  1.1839 -0.3261
  105OSM   H11B10651   4.207   4.228  10.970  0.2091  0.5997 -0.7930
  105OSM      P10652   3.989   4.121  10.818  0.4861 -0.4655  0.1429
  105OSM    O1310653   4.015   4.009  10.908 -0.0654  1.3228  0.4454
  105OSM    O1410654   3.856   4.134  10.754  0.1198  0.5210 -0.2019
  105OSM    O1110655   4.107   4.128  10.713  0.0608  0.1643  0.0401
  105OSM    O1210656   4.001   4.250  10.908 -0.4454  0.3561  0.1019
  105OSM    C1S10657   4.072   4.169  10.574  0.2179  0.5406 -0.6167
  105OSM    H1S10658   4.049   4.277  10.565 -0.4488  0.3704 -0.9798
  105OSM    H1T10659   3.978   4.119  10.543 -1.2030  1.2094  2.3012
  105OSM     NF10660   4.137   4.192  10.334  0.0737  0.4673  0.7710
  105OSM    HNF10661   4.090   4.126  10.276 -0.9102  0.0717  1.9728
  105OSM    C2S10662   4.180   4.132  10.464 -0.2250  0.5029  0.3168
  105OSM    H2S10663   4.273   4.185  10.494 -0.1299 -1.1380  3.3563
  105OSM    C3S10664   4.212   3.982  10.457  0.4495  0.6251 -0.0561
  105OSM    H3S10665   4.115   3.933  10.433 -0.1745  0.7325  2.0047
  105OSM     O310666   4.247   3.920  10.582  0.4693  0.1050 -0.0740
  105OSM    HO310667   4.234   3.994  10.642 -1.0556  0.4486 -0.7854
  105OSM    C4S10668   4.313   3.944  10.352 -0.2251  0.0233  0.7659
  105OSM    H4S10669   4.420   3.956  10.374 -0.1061  3.0913 -0.9309
  105OSM    C5S10670   4.286   3.882  10.239  0.2724 -0.6189  0.2888
  105OSM    H5S10671   4.184   3.843  10.227 -0.0093 -0.2467  1.3136
  105OSM    C6S10672   4.391   3.846  10.134  0.0379 -0.4650 -0.6727
  105OSM    H6S10673   4.429   3.744  10.154 -1.9809 -0.9110  1.3347
  105OSM    H6T10674   4.488   3.900  10.147  1.6421 -3.2335 -0.2945
  105OSM    C7S10675   4.329   3.843   9.991 -0.2119 -0.0025  0.1488
  105OSM    H7S10676   4.298   3.946   9.964  1.7791  0.1627 -1.8641
  105OSM    H7T10677   4.240   3.778  10.002  1.1877 -1.7209  2.4239
  105OSM    C8S10678   4.424   3.806   9.879 -0.6554 -0.4247  0.1088
  105OSM    H8S10679   4.488   3.721   9.910  2.5755  1.9517  0.4920
  105OSM    H8T10680   4.503   3.882   9.862 -0.9831 -0.3722 -1.3192
  105OSM    C9S10681   4.353   3.798   9.750 -0.0025  0.4631 -0.2627
  105OSM    H9S10682   4.312   3.900   9.735  0.7392  0.5564 -1.8833
  105OSM    H9T10683   4.270   3.725   9.758 -0.3605  0.9190  0.1777
  105OSM   C10S10684   4.445   3.749   9.630 -0.0296 -0.1903  0.2307
  105OSM   H10S10685   4.488   3.650   9.656  1.1436  0.2279 -0.0906
  105OSM   H10T10686   4.529   3.820   9.620 -1.7736  2.2225  1.6551
  105OSM   C11S10687   4.358   3.741   9.501 -0.0997 -0.2427  0.5416
  105OSM   H11S10688   4.307   3.837   9.477 -1.5427 -0.6706  1.6932
  105OSM   H11T10689   4.277   3.671   9.532  1.1941 -1.6084  0.9407
  105OSM   C12S10690   4.434   3.686   9.377  0.1653  0.6596 -0.1823
  105OSM   H12S10691   4.477   3.585   9.397  0.5776 -0.0590 -3.9236
  105OSM   H12T10692   4.510   3.763   9.352  0.2811  1.5664  2.6129
  105OSM   C13S10693   4.352   3.682   9.248 -0.0838 -0.1821 -0.1528
  105OSM   H13S10694   4.312   3.782   9.221  0.3660  0.5831  1.8256
  105OSM   H13T10695   4.273   3.609   9.276  0.2563  0.5624  3.2286
  105OSM   C14S10696   4.441   3.643   9.127 -0.3931 -0.8096 -0.0369
  105OSM   H14S10697   4.516   3.567   9.155  1.1390 -0.0449 -1.8047
  105OSM   H14T10698   4.491   3.740   9.107 -1.6884 -0.2086 -0.5263
  105OSM   C15S10699   4.386   3.623   8.988  1.0278  0.4130  0.0346
  105OSM   H15S10700   4.319   3.704   8.952  2.3367  1.9648  0.9589
  105OSM   H15T10701   4.323   3.531   8.992  2.1943 -0.3754  2.1085
  105OSM   C16S10702   4.494   3.606   8.880 -0.1044 -0.4614 -0.7869
  105OSM   H16S10703   4.559   3.518   8.901  0.0257 -0.0266  0.6936
  105OSM   H16T10704   4.552   3.701   8.884 -2.2949  0.9253  3.5781
  105OSM   C17S10705   4.445   3.592   8.739  0.2873 -0.3812  0.1284
  105OSM   H17S10706   4.532   3.614   8.673  0.1902 -0.4022 -0.0084
  105OSM   H17T10707   4.371   3.669   8.708  1.7408 -0.0024 -2.8090
  105OSM   C18S10708   4.393   3.452   8.713  0.5181  0.4046  0.6160
  105OSM   H18S10709   4.313   3.438   8.788 -1.6645  2.5897 -1.1676
  105OSM   H18T10710   4.474   3.379   8.736  0.9302  0.0867 -1.6057
  105OSM   H18U10711   4.347   3.433   8.613  0.1415 -4.2287  1.4449
  105OSM    C1F10712   4.112   4.321  10.307 -0.8047 -0.3990 -0.0099
  105OSM     OF10713   4.146   4.404  10.388  0.4943  0.1070 -0.5180
  105OSM    C2F10714   4.039   4.347  10.172  0.0315 -0.2412 -0.1901
  105OSM    H2F10715   3.938   4.301  10.161  0.5288 -1.2393 -0.6601
  105OSM    H2G10716   4.099   4.297  10.094  1.5210 -1.4174  1.6247
  105OSM    C3F10717   4.040   4.497  10.134  0.2863 -0.0860  0.6624
  105OSM    H3F10718   4.131   4.519  10.074 -0.2398 -1.4405 -0.6830
  105OSM    H3G10719   4.045   4.579  10.209  2.7197  1.4652 -1.0356
  105OSM    C4F10720   3.927   4.527  10.037 -0.3305  0.0082  0.5394
  105OSM    H4F10721   3.869   4.621  10.051  1.3941  1.4838 -1.5356
  105OSM    H4G10722   3.854   4.444  10.041  0.4250 -0.6697  0.4797
  105OSM    C5F10723   3.979   4.522   9.891  0.6428  0.3397 -0.0551
  105OSM    H5F10724   4.002   4.417   9.863  0.7130 -1.0167  4.4005
  105OSM    H5G10725   4.067   4.589   9.879 -0.5153  1.8200 -0.5459
  105OSM    C6F10726   3.879   4.588   9.801 -0.3125 -0.3256  1.1497
  105OSM    H6F10727   3.840   4.677   9.855  0.7351  0.7662  0.1519
  105OSM    H6G10728   3.804   4.516   9.763  0.2947 -0.2104 -0.3325
  105OSM    C7F10729   3.936   4.645   9.671 -0.2753 -0.2200  0.1011
  105OSM    H7F10730   4.022   4.704   9.708  0.9580 -0.4210 -2.3127
  105OSM    H7G10731   3.873   4.727   9.630 -1.5241 -1.9470 -1.6556
  105OSM    C8F10732   3.976   4.534   9.564  0.3323  0.3034 -0.3814
  105OSM    H8F10733   4.022   4.446   9.614 -1.5258  0.0468  0.9349
  105OSM    H8G10734   4.051   4.581   9.496  1.4636  1.7911  1.7651
  105OSM    C9F10735   3.847   4.474   9.498 -0.1851 -0.3688  0.0525
  105OSM    H9F10736   3.766   4.434   9.560  0.2123 -1.5071 -0.1297
  105OSM   C10F10737   3.812   4.474   9.366  0.8889  0.2122  0.0352
  105OSM   H10F10738   3.719   4.421   9.344  0.8410  0.1414  0.3961
  105OSM   C11F10739   3.887   4.525   9.253  0.4765  0.1720  0.6840
  105OSM   H11F10740   3.995   4.510   9.273  0.1677  1.4212  3.8336
  105OSM   H11G10741   3.853   4.629   9.235 -0.7664  0.1687  2.6700
  105OSM   C12F10742   3.855   4.431   9.120  0.0312  0.0616 -0.0401
  105OSM   H12F10743   3.747   4.426   9.096 -0.0357  0.0293  0.2618
  105OSM   H12G10744   3.901   4.331   9.138 -1.1460 -0.3372  0.8539
  105OSM   C13F10745   3.925   4.482   8.991  0.3391  0.3699  0.3782
  105OSM   H13F10746   4.013   4.540   9.025 -0.4167  2.1521 -0.5646
  105OSM   H13G10747   3.870   4.568   8.947  1.6862  0.6016 -0.9278
  105OSM   C14F10748   3.952   4.376   8.879 -0.0483 -0.3104 -0.1167
  105OSM   H14F10749   3.856   4.330   8.848 -0.1118  0.2379 -0.7656
  105OSM   H14G10750   4.019   4.298   8.921  0.2859  1.5368  3.1339
  105OSM   C15F10751   4.001   4.439   8.756  0.2948  0.1678 -0.1475
  105OSM   H15F10752   4.110   4.450   8.773  0.1418  1.5790  0.0830
  105OSM   H15G10753   3.964   4.543   8.746  1.1708  0.3270 -2.2804
  105OSM   C16F10754   3.975   4.364   8.621  0.4290  0.5357  0.3047
  105OSM   H16F10755   3.864   4.370   8.612  0.3199 -0.2306  1.0044
  105OSM   H16G10756   4.015   4.261   8.622  1.7480  1.0081 -0.9078
  105OSM   C17F10757   4.049   4.432   8.507  0.4779 -0.6886 -0.0669
  105OSM   H17F10758   4.064   4.353   8.430 -0.4587 -0.1996 -0.7779
  105OSM   H17G10759   4.150   4.466   8.536  0.5114 -1.6315  1.0104
  105OSM   C18F10760   3.966   4.549   8.440 -0.0120  0.9061  0.1697
  105OSM   H18F10761   4.029   4.584   8.355  0.3997  1.9277  0.8762
  105OSM   H18G10762   3.939   4.621   8.519 -5.1024 -0.2761 -0.0992
  105OSM   H18H10763   3.872   4.515   8.391  0.2381  0.6697 -0.1553
  106OSM      N10764   2.559   4.332  11.081  0.1100  0.0427  0.1079
  106OSM    C1510765   2.543   4.326  10.935 -0.4231  0.6084 -0.1075
  106OSM   H15A10766   2.583   4.417  10.895 -2.1426  0.4407 -2.3920
  106OSM   H15B10767   2.439   4.323  10.903 -0.5229 -0.1588  0.2500
  106OSM   H15C10768   2.596   4.244  10.888 -0.0488 -0.2843  1.7617
  106OSM    C1410769   2.695   4.384  11.118  0.1503 -0.2372 -0.5144
  106OSM   H14A10770   2.720   4.375  11.223  0.8759  1.1896 -0.5536
  106OSM   H14B10771   2.706   4.489  11.097 -1.2084 -0.2448 -1.3802
  106OSM   H14C10772   2.763   4.328  11.056 -1.0098 -4.1828  1.4185
  106OSM    C1310773   2.457   4.429  11.131 -0.2206 -0.0786  0.1848
  106OSM   H13A10774   2.361   4.398  11.092 -0.5117  0.3814  0.5328
  106OSM   H13B10775   2.473   4.527  11.090 -1.2020 -0.2726 -0.6968
  106OSM   H13C10776   2.454   4.440  11.239 -1.2828 -2.1903  0.4214
  106OSM    C1210777   2.533   4.187  11.139  0.1120  0.0973 -0.2788
  106OSM   H12A10778   2.441   4.144  11.101 -0.7691  0.5558  1.2351
  106OSM   H12B10779   2.516   4.191  11.245 -1.6877 -0.1711 -0.5207
  106OSM    C1110780   2.642   4.083  11.118  0.0043  0.7745  1.1291
  106OSM   H11A10781   2.619   4.001  11.190 -0.7656 -0.7557 -0.7701
  106OSM   H11B10782   2.745   4.119  11.142  0.3587 -0.0210  0.8667
  106OSM      P10783   2.534   3.945  10.924  0.1253 -0.5154 -0.4350
  106OSM    O1310784   2.568   3.805  10.951  0.3846 -0.2292 -0.0106
  106OSM    O1410785   2.405   3.992  10.976  0.3342  0.5464  0.3708
  106OSM    O1110786   2.548   3.964  10.767  0.0101 -0.2721 -0.1368
  106OSM    O1210787   2.648   4.037  10.982  0.4314 -0.2379  0.4327
  106OSM    C1S10788   2.644   3.897  10.689  0.5657  0.9732 -0.4942
  106OSM    H1S10789   2.612   3.792  10.672 -1.1768  1.4172 -0.1385
  106OSM    H1T10790   2.744   3.895  10.737  0.2562 -0.5537  0.1575
  106OSM     NF10791   2.777   3.872  10.463 -0.0506  0.3823  0.2602
  106OSM    HNF10792   2.856   3.924  10.431 -0.4073 -0.3428 -1.9361
  106OSM    C2S10793   2.684   3.954  10.547  0.4745 -0.4972 -0.5889
  106OSM    H2S10794   2.586   3.953  10.495  0.5156 -1.2784 -0.6572
  106OSM    C3S10795   2.741   4.103  10.561  0.2078  0.1329 -0.0641
  106OSM    H3S10796   2.844   4.104  10.603  0.2239 -1.3762 -0.0355
  106OSM     O310797   2.657   4.178  10.648 -0.2326  0.2163 -0.0906
  106OSM    HO310798   2.595   4.112  10.679  1.6129 -1.9234 -0.7041
  106OSM    C4S10799   2.750   4.168  10.427 -1.0979 -0.3553 -0.4751
  106OSM    H4S10800   2.852   4.208  10.414 -0.6973 -0.9510  0.7053
  106OSM    C5S10801   2.656   4.203  10.335  0.1075  0.5191 -0.8215
  106OSM    H5S10802   2.550   4.189  10.358  0.5787 -0.2053  1.1502
  106OSM    C6S10803   2.683   4.278  10.206 -0.0706  0.0129 -0.0456
  106OSM    H6S10804   2.791   4.287  10.180 -0.1163  1.7239  0.2914
  106OSM    H6T10805   2.636   4.378  10.209  0.2820  0.1464  2.3541
  106OSM    C7S10806   2.630   4.214  10.073  0.2723  0.1376  0.1974
  106OSM    H7S10807   2.523   4.190  10.093  0.4029 -0.7567 -0.1458
  106OSM    H7T10808   2.687   4.125  10.041  1.5346  0.2937  1.9096
  106OSM    C8S10809   2.614   4.320   9.957  0.1075  0.7647 -0.5800
  106OSM    H8S10810   2.706   4.375   9.929  0.6810 -0.9602 -2.2740
  106OSM    H8T10811   2.551   4.405   9.993  0.0330  0.5200 -0.1224
  106OSM    C9S10812   2.551   4.258   9.838  0.4390 -0.1392  0.1949
  106OSM    H9S10813   2.469   4.188   9.867 -1.9534  1.2085 -2.7918
  106OSM    H9T10814   2.626   4.196   9.785  0.7568  0.8969 -0.6114
  106OSM   C10S10815   2.518   4.358   9.726 -0.2240  0.1289 -0.0827
  106OSM   H10S10816   2.615   4.410   9.713  0.0657 -0.7538 -1.7413
  106OSM   H10T10817   2.439   4.427   9.762  0.3665  0.5682  0.3900
  106OSM   C11S10818   2.479   4.288   9.593  0.5541 -0.1057 -0.2799
  106OSM   H11S10819   2.382   4.234   9.597  0.0143  0.8915  1.4148
  106OSM   H11T10820   2.557   4.220   9.554  1.4974 -1.4752  3.5601
  106OSM   C12S10821   2.474   4.392   9.482  0.0664  0.2365  0.3752
  106OSM   H12S10822   2.563   4.457   9.496  1.8890 -1.5725 -1.7407
  106OSM   H12T10823   2.390   4.463   9.494  0.2775  0.7732 -1.0797
  106OSM   C13S10824   2.476   4.338   9.336 -0.2182 -0.0903 -0.1350
  106OSM   H13S10825   2.377   4.294   9.312  0.2517 -1.0588 -0.3373
  106OSM   H13T10826   2.549   4.255   9.335  0.3574  0.3574  1.5465
  106OSM   C14S10827   2.516   4.448   9.233 -0.3722  0.7543 -0.7904
  106OSM   H14S10828   2.617   4.483   9.265 -0.7459 -0.2991  1.7897
  106OSM   H14T10829   2.449   4.536   9.241  0.9223  1.7318 -0.2853
  106OSM   C15S10830   2.518   4.391   9.091  0.1344  0.4754  0.6473
  106OSM   H15S10831   2.414   4.378   9.053  0.4481 -0.5312  0.0987
  106OSM   H15T10832   2.552   4.286   9.101 -0.3022  0.3449  0.7921
  106OSM   C16S10833   2.603   4.464   8.988  0.0423  0.0778 -0.1440
  106OSM   H16S10834   2.707   4.478   9.023  0.1409  0.6798 -0.6669
  106OSM   H16T10835   2.551   4.561   8.975 -2.0283 -0.8833  0.5268
  106OSM   C17S10836   2.621   4.384   8.851 -0.2119 -0.1486 -0.6239
  106OSM   H17S10837   2.519   4.361   8.812 -0.0672 -1.5695 -0.2373
  106OSM   H17T10838   2.665   4.285   8.877 -0.3491 -0.1962 -0.5709
  106OSM   C18S10839   2.719   4.446   8.745  1.0824  0.2779  0.3120
  106OSM   H18S10840   2.822   4.453   8.785  0.8450 -0.7998  1.1643
  106OSM   H18T10841   2.682   4.546   8.715 -1.3034 -0.9049 -1.0475
  106OSM   H18U10842   2.724   4.390   8.649 -4.1595  1.1936 -0.8452
  106OSM    C1F10843   2.739   3.765  10.402  0.5070 -0.6048  0.3307
  106OSM     OF10844   2.634   3.716  10.434  0.1612 -0.2472  0.3715
  106OSM    C2F10845   2.821   3.707  10.286  0.5823 -0.4971 -0.6017
  106OSM    H2F10846   2.924   3.690  10.323  0.7480  0.2562 -0.6899
  106OSM    H2G10847   2.840   3.784  10.207 -1.9449  2.1293  1.1406
  106OSM    C3F10848   2.758   3.580  10.222 -0.1282 -0.0346  0.0210
  106OSM    H3F10849   2.652   3.598  10.196  0.4506  3.0840 -0.5845
  106OSM    H3G10850   2.768   3.498  10.296  0.6593 -0.9012 -1.0079
  106OSM    C4F10851   2.834   3.534  10.090  0.6247  0.2107  0.2259
  106OSM    H4F10852   2.775   3.453  10.043  2.7409 -0.8684 -0.7417
  106OSM    H4G10853   2.935   3.493  10.111  1.3515  0.5701 -2.1711
  106OSM    C5F10854   2.842   3.637   9.976 -0.9255 -0.1905 -0.3286
  106OSM    H5F10855   2.898   3.724  10.017  0.0673 -1.2462  0.6266
  106OSM    H5G10856   2.744   3.678   9.943 -0.7592  1.1247  0.7379
  106OSM    C6F10857   2.911   3.595   9.848 -0.3875  0.4018  0.1572
  106OSM    H6F10858   2.884   3.491   9.817  0.7341  0.8780 -2.7036
  106OSM    H6G10859   3.021   3.598   9.862  0.1731  0.9875 -3.3958
  106OSM    C7F10860   2.872   3.690   9.729  0.0750 -0.3392  0.2845
  106OSM    H7F10861   2.866   3.795   9.765 -0.7025 -0.8631  1.7501
  106OSM    H7G10862   2.776   3.654   9.685  0.7549 -0.1404 -1.4378
  106OSM    C8F10863   2.965   3.677   9.617 -0.3267 -0.4840  0.6716
  106OSM    H8F10864   2.984   3.571   9.588  0.6196 -0.0876 -0.2158
  106OSM    H8G10865   3.056   3.730   9.652 -0.6740  0.1196  0.6697
  106OSM    C9F10866   2.923   3.763   9.503  0.4076  0.1859  0.9484
  106OSM    H9F10867   2.886   3.866   9.515 -1.1659 -0.1429 -0.5525
  106OSM   C10F10868   2.918   3.720   9.372 -0.1840  0.6025  0.1706
  106OSM   H10F10869   2.889   3.792   9.294 -1.5094 -0.7051 -0.5922
  106OSM   C11F10870   2.967   3.581   9.319  0.7476 -0.0943  0.0806
  106OSM   H11F10871   2.888   3.503   9.307  0.2577  0.0000  2.2952
  106OSM   H11G10872   3.029   3.524   9.390  2.6339 -0.7488 -1.9683
  106OSM   C12F10873   3.042   3.589   9.182  0.0652  0.8293  0.3768
  106OSM   H12F10874   3.097   3.495   9.164  0.8128  1.5858 -1.6136
  106OSM   H12G10875   3.123   3.664   9.171  0.5734  0.1304 -0.8637
  106OSM   C13F10876   2.959   3.592   9.050  0.3686 -0.0359 -0.4440
  106OSM   H13F10877   2.898   3.685   9.044  2.0403  1.3571  2.1926
  106OSM   H13G10878   2.884   3.512   9.068 -2.6153  2.7178  0.4391
  106OSM   C14F10879   3.032   3.570   8.918 -0.3142  0.4303  0.3780
  106OSM   H14F10880   3.103   3.486   8.934 -1.7535 -0.7022  1.1281
  106OSM   H14G10881   3.085   3.662   8.887 -2.9808  0.9936 -3.2635
  106OSM   C15F10882   2.944   3.529   8.800 -1.4278  0.5762  0.2452
  106OSM   H15F10883   3.002   3.518   8.706  0.5695 -0.8339  1.5573
  106OSM   H15G10884   2.871   3.612   8.794 -1.7446  0.2789 -0.0798
  106OSM   C16F10885   2.865   3.403   8.821 -0.0143  0.5263 -0.3900
  106OSM   H16F10886   2.781   3.420   8.892  0.2515  1.6215 -0.3195
  106OSM   H16G10887   2.937   3.325   8.854 -1.2881 -1.0897 -1.2464
  106OSM   C17F10888   2.796   3.349   8.687 -0.1648 -0.1638 -0.4003
  106OSM   H17F10889   2.759   3.248   8.715 -2.3333  0.5614 -0.4877
  106OSM   H17G10890   2.871   3.334   8.607 -0.6237 -1.7107 -0.5736
  106OSM   C18F10891   2.675   3.432   8.646  0.2909  0.2345 -0.2228
  106OSM   H18F10892   2.601   3.434   8.729  0.1103 -1.7089 -0.3071
  106OSM   H18G10893   2.617   3.392   8.560 -1.2580  2.3826 -0.2651
  106OSM   H18H10894   2.705   3.534   8.614 -0.8542 -0.3127 -3.4341
  107OSM      N10895   6.643   0.765  11.042  0.1377 -0.5498  0.0271
  107OSM    C1510896   6.704   0.753  11.175 -0.4786  0.3488 -0.2944
  107OSM   H15A10897   6.634   0.749  11.256 -1.2126 -0.9370 -0.9695
  107OSM   H15B10898   6.776   0.832  11.195  0.2381 -0.3151 -0.1955
  107OSM   H15C10899   6.770   0.668  11.183 -0.5303  0.4060  0.9957
  107OSM    C1410900   6.753   0.808  10.948 -0.0806 -0.5057  0.2208
  107OSM   H14A10901   6.804   0.891  10.994 -0.8691 -0.1948  0.5623
  107OSM   H14B10902   6.708   0.828  10.852  0.4082  2.6702  0.5367
  107OSM   H14C10903   6.819   0.724  10.935 -0.5055 -0.7363 -0.5106
  107OSM    C1310904   6.585   0.637  11.001  0.2781  0.1790  0.4868
  107OSM   H13A10905   6.513   0.603  11.074 -1.3818  1.9246 -0.2700
  107OSM   H13B10906   6.660   0.564  10.976 -0.1152  0.0113 -0.1963
  107OSM   H13C10907   6.518   0.646  10.918 -1.5879 -0.7102  1.8169
  107OSM    C1210908   6.537   0.874  11.049  0.3707 -0.2060 -0.4663
  107OSM   H12A10909   6.584   0.960  11.095  2.7624 -1.6661 -0.0219
  107OSM   H12B10910   6.455   0.840  11.111 -0.5456  0.6094 -1.1897
  107OSM    C1110911   6.464   0.914  10.918  0.3323  0.1711 -0.3653
  107OSM   H11A10912   6.381   0.982  10.946 -0.5494 -0.6159 -0.9770
  107OSM   H11B10913   6.417   0.824  10.873  1.0905 -0.4537  0.0683
  107OSM      P10914   6.591   1.128  10.837  0.4857 -0.0812 -0.0717
  107OSM    O1310915   6.591   1.160  10.980  0.8676 -0.3772  0.3282
  107OSM    O1410916   6.716   1.158  10.770 -0.1465 -0.0997  0.1358
  107OSM    O1110917   6.471   1.208  10.768 -1.3089 -0.0945  0.3497
  107OSM    O1210918   6.547   0.977  10.816 -0.2631  0.1699  0.1575
  107OSM    C1S10919   6.502   1.300  10.669  0.3427  0.0959  0.1823
  107OSM    H1S10920   6.593   1.363  10.680  0.0112  0.5744  0.1910
  107OSM    H1T10921   6.418   1.372  10.675 -0.0688 -0.3037 -0.5225
  107OSM     NF10922   6.534   1.332  10.424  0.2416  0.3147 -0.1121
  107OSM    HNF10923   6.457   1.374  10.376  0.8478  0.7941 -0.6968
  107OSM    C2S10924   6.500   1.232  10.526  0.2587 -0.0911 -0.3977
  107OSM    H2S10925   6.579   1.155  10.512  0.1163  0.0975 -2.6187
  107OSM    C3S10926   6.364   1.155  10.499  0.0348 -0.9338  0.3593
  107OSM    H3S10927   6.281   1.229  10.502 -1.6681 -2.6621 -1.4947
  107OSM     O310928   6.318   1.067  10.608  0.4562 -0.0085  1.0228
  107OSM    HO310929   6.377   1.097  10.678 -0.0755 -0.1431  1.5444
  107OSM    C4S10930   6.369   1.089  10.365 -0.0670 -0.0346 -0.0046
  107OSM    H4S10931   6.336   1.145  10.276  0.5049 -0.0100 -0.2058
  107OSM    C5S10932   6.410   0.963  10.352 -0.1324  0.3637 -0.1710
  107OSM    H5S10933   6.439   0.912  10.445 -1.9452  0.5563  0.5401
  107OSM    C6S10934   6.410   0.882  10.227  0.3366  0.7970 -0.1859
  107OSM    H6S10935   6.337   0.799  10.232  0.0393  1.0950  0.5602
  107OSM    H6T10936   6.512   0.838  10.220 -0.2034 -0.7308  1.0210
  107OSM    C7S10937   6.371   0.957  10.096 -0.3112 -0.2132  0.2386
  107OSM    H7S10938   6.415   1.059  10.086  0.4224 -0.7019 -2.0840
  107OSM    H7T10939   6.263   0.984  10.100 -0.1259  0.4738  3.0317
  107OSM    C8S10940   6.415   0.887   9.969  0.4928 -0.7382 -0.3111
  107OSM    H8S10941   6.437   0.782   9.995 -3.0012 -1.1818  1.3859
  107OSM    H8T10942   6.505   0.938   9.928  0.2038  0.7961  0.8853
  107OSM    C9S10943   6.305   0.895   9.860 -0.2811  0.2121  0.2884
  107OSM    H9S10944   6.296   1.003   9.835  0.5745  0.4552  0.9732
  107OSM    H9T10945   6.205   0.853   9.886 -0.0121 -0.6961 -0.1121
  107OSM   C10S10946   6.354   0.828   9.732  0.0084  0.2861  0.6515
  107OSM   H10S10947   6.361   0.718   9.748  0.5907  0.2660  0.2973
  107OSM   H10T10948   6.458   0.861   9.712 -0.5131  0.1527 -2.8547
  107OSM   C11S10949   6.272   0.867   9.613 -0.9708 -0.0662  0.1814
  107OSM   H11S10950   6.294   0.968   9.572 -1.5472 -1.5057 -4.0682
  107OSM   H11T10951   6.164   0.849   9.633 -0.6759  0.3417  2.4644
  107OSM   C12S10952   6.302   0.775   9.495  1.3225  0.2581  0.4585
  107OSM   H12S10953   6.292   0.671   9.534  2.3785  0.0001  0.1010
  107OSM   H12T10954   6.410   0.783   9.469  0.8863  2.8941 -0.9234
  107OSM   C13S10955   6.221   0.812   9.361  1.1195 -0.9724  0.6655
  107OSM   H13S10956   6.265   0.904   9.318  0.1784 -1.0648 -0.5500
  107OSM   H13T10957   6.118   0.830   9.399  0.0697  1.4767 -2.8124
  107OSM   C14S10958   6.225   0.708   9.248 -0.0801  0.3424 -0.0481
  107OSM   H14S10959   6.152   0.628   9.275 -1.0781  2.2613  3.5045
  107OSM   H14T10960   6.324   0.659   9.241 -0.2493 -0.8065  3.5445
  107OSM   C15S10961   6.168   0.761   9.115  0.2171 -0.1435  0.2615
  107OSM   H15S10962   6.209   0.689   9.041  0.3990  0.8412 -0.6216
  107OSM   H15T10963   6.212   0.862   9.095  0.5947 -0.5452 -1.0389
  107OSM   C16S10964   6.012   0.754   9.109  0.9276 -0.2835 -0.4441
  107OSM   H16S10965   5.982   0.827   9.188  0.1752 -0.8606 -0.1871
  107OSM   H16T10966   5.970   0.653   9.127 -0.7178  0.2998 -0.8698
  107OSM   C17S10967   5.954   0.806   8.977  0.0927 -0.2765  0.2667
  107OSM   H17S10968   5.844   0.805   8.991 -0.0639 -0.8798 -0.9145
  107OSM   H17T10969   5.977   0.746   8.886 -1.6253  1.7583 -1.6269
  107OSM   C18S10970   6.007   0.941   8.938  0.4610  0.0495  0.1279
  107OSM   H18S10971   6.113   0.937   8.903  1.8427  3.4694  3.2770
  107OSM   H18T10972   6.003   1.018   9.018  1.0549  0.4227 -0.1897
  107OSM   H18U10973   5.945   0.989   8.859  0.9655  1.1583  0.3818
  107OSM    C1F10974   6.663   1.378  10.411 -0.0311 -0.3816 -0.0878
  107OSM     OF10975   6.757   1.306  10.449 -0.2811 -0.0628  0.2616
  107OSM    C2F10976   6.692   1.512  10.348  0.4165 -0.2519  0.2607
  107OSM    H2F10977   6.750   1.578  10.415 -1.2226  0.1615  1.3518
  107OSM    H2G10978   6.592   1.555  10.322  1.1588  1.7524  0.6070
  107OSM    C3F10979   6.760   1.505  10.209 -0.7950  0.5519  0.1616
  107OSM    H3F10980   6.701   1.446  10.136  1.6979 -3.1373  0.8777
  107OSM    H3G10981   6.853   1.443  10.209 -1.1324  0.0213 -0.7682
  107OSM    C4F10982   6.805   1.636  10.146 -0.9040 -0.4988  0.6990
  107OSM    H4F10983   6.848   1.707  10.220  2.8064 -1.5628 -0.2429
  107OSM    H4G10984   6.709   1.678  10.107 -0.1485  0.1034 -0.5553
  107OSM    C5F10985   6.911   1.619  10.033 -0.2517  0.4781  0.9096
  107OSM    H5F10986   7.012   1.580  10.058  0.5868  1.2591 -1.0477
  107OSM    H5G10987   6.931   1.715   9.981  0.6587 -0.0986  0.1727
  107OSM    C6F10988   6.856   1.528   9.914  0.8807 -0.5698  0.0574
  107OSM    H6F10989   6.757   1.569   9.885  1.4113  0.3334 -0.5366
  107OSM    H6G10990   6.828   1.427   9.951 -2.1564 -0.4638 -1.6503
  107OSM    C7F10991   6.942   1.527   9.786 -0.3783 -0.3123 -0.4165
  107OSM    H7F10992   7.045   1.508   9.822 -0.3687  1.1690  0.4115
  107OSM    H7G10993   6.945   1.627   9.736 -0.7345  0.1776  0.5345
  107OSM    C8F10994   6.904   1.420   9.682 -0.6242  0.0831 -0.4029
  107OSM    H8F10995   6.902   1.326   9.740  1.3659  0.6628  0.6865
  107OSM    H8G10996   6.984   1.395   9.610  0.0018 -0.2128  0.3887
  107OSM    C9F10997   6.775   1.466   9.616  0.2608  0.1271  0.4195
  107OSM    H9F10998   6.695   1.491   9.687  0.3013  0.2422  0.4262
  107OSM   C10F10999   6.752   1.476   9.488  0.0434 -0.5388  0.2355
  107OSM   H10F11000   6.649   1.500   9.458  0.3776  1.3799  0.5046
  107OSM   C11F11001   6.848   1.434   9.379 -0.0764 -0.4308 -0.3295
  107OSM   H11F11002   6.939   1.387   9.420  0.2396  0.5460  0.1255
  107OSM   H11G11003   6.890   1.526   9.334 -1.7334 -0.0404 -1.1902
  107OSM   C12F11004   6.804   1.338   9.272  0.0455 -1.0203 -1.0035
  107OSM   H12F11005   6.735   1.261   9.312 -0.0128 -0.1371  0.7186
  107OSM   H12G11006   6.897   1.287   9.239 -0.2915 -1.5692 -1.1129
  107OSM   C13F11007   6.747   1.401   9.144  0.3557 -0.9301  0.4284
  107OSM   H13F11008   6.787   1.505   9.135 -1.2969 -0.3935 -1.1600
  107OSM   H13G11009   6.638   1.419   9.147 -0.0117 -2.0712 -2.8262
  107OSM   C14F11010   6.793   1.330   9.023 -0.1106  0.0117  0.0130
  107OSM   H14F11011   6.903   1.327   9.033 -0.1869  0.1132  0.9958
  107OSM   H14G11012   6.778   1.386   8.929 -1.4908 -2.1445 -1.1385
  107OSM   C15F11013   6.742   1.190   8.999 -0.0844 -0.6275 -0.3974
  107OSM   H15F11014   6.725   1.140   9.097 -0.7354  0.7893  0.2500
  107OSM   H15G11015   6.820   1.147   8.933 -0.8512 -2.4726 -0.1697
  107OSM   C16F11016   6.613   1.186   8.915  0.0516  0.9332  0.0300
  107OSM   H16F11017   6.636   1.230   8.816  0.2669 -0.2145 -0.4352
  107OSM   H16G11018   6.540   1.246   8.975  0.5262  1.1534  0.3967
  107OSM   C17F11019   6.558   1.047   8.889  0.8232 -0.6680  0.4023
  107OSM   H17F11020   6.531   1.003   8.988  0.3662 -0.0429  0.5577
  107OSM   H17G11021   6.633   0.975   8.849  0.4905 -1.5003  1.2390
  107OSM   C18F11022   6.433   1.060   8.808 -0.4284 -0.3645 -0.2446
  107OSM   H18F11023   6.399   0.961   8.770  0.4720 -0.7632 -0.0410
  107OSM   H18G11024   6.441   1.131   8.723 -1.1357  0.1235  0.0823
  107OSM   H18H11025   6.356   1.110   8.871 -0.8918 -0.5276 -0.6778
  108OSM      N11026   2.945   3.469  10.659 -0.0470 -0.0941 -0.4380
  108OSM    C1511027   2.957   3.411  10.795 -0.3168  0.8574 -0.6818
  108OSM   H15A11028   3.050   3.441  10.840 -0.3389  1.1151 -0.8064
  108OSM   H15B11029   2.942   3.305  10.786  0.4575  0.7354 -0.5871
  108OSM   H15C11030   2.879   3.447  10.861  0.9031 -0.6182  1.7078
  108OSM    C1411031   2.825   3.402  10.590 -0.0728  0.3884 -0.2483
  108OSM   H14A11032   2.852   3.302  10.560  0.8993  0.3644  0.6155
  108OSM   H14B11033   2.777   3.460  10.513 -0.0085  1.7528  0.6977
  108OSM   H14C11034   2.748   3.403  10.666 -1.0050  2.6415 -1.1302
  108OSM    C1311035   2.922   3.617  10.674 -0.0140  0.2555  0.6302
  108OSM   H13A11036   2.819   3.631  10.702 -1.4269 -0.2107 -3.5311
  108OSM   H13B11037   2.936   3.659  10.575  0.0794  1.4021  1.1143
  108OSM   H13C11038   3.002   3.663  10.730  0.0316  1.8022 -0.6330
  108OSM    C1211039   3.074   3.437  10.573 -0.1602 -0.0183 -0.8110
  108OSM   H12A11040   3.154   3.498  10.611 -0.6478 -1.6689  3.4173
  108OSM   H12B11041   3.057   3.475  10.473  1.4348  1.6566 -0.4922
  108OSM    C1111042   3.121   3.288  10.554 -0.5738  0.0938 -0.2267
  108OSM   H11A11043   3.186   3.293  10.465 -0.7811 -0.5228 -0.4151
  108OSM   H11B11044   3.029   3.229  10.532 -2.2683  1.5259  2.3937
  108OSM      P11045   3.348   3.263  10.682  0.4769  0.3342 -0.1943
  108OSM    O1311046   3.372   3.410  10.676  0.2067  0.3021 -0.3213
  108OSM    O1411047   3.397   3.188  10.801 -0.6169  0.2877  0.0811
  108OSM    O1111048   3.412   3.191  10.558 -0.5699  0.3466 -0.2332
  108OSM    O1211049   3.193   3.235  10.671  0.5302 -0.4220 -0.0838
  108OSM    C1S11050   3.365   3.064  10.502  0.3923 -0.3274 -0.0422
  108OSM    H1S11051   3.260   3.041  10.530  0.5304 -0.2553  0.5667
  108OSM    H1T11052   3.429   2.986  10.549  2.2838  0.0808 -1.7989
  108OSM     NF11053   3.308   2.967  10.277 -0.4245  0.3446  0.0944
  108OSM    HNF11054   3.353   2.887  10.240 -0.2735  0.7772 -0.6906
  108OSM    C2S11055   3.388   3.069  10.349 -0.0230 -0.0238  0.2253
  108OSM    H2S11056   3.358   3.169  10.312  0.5337 -0.3393 -1.1744
  108OSM    C3S11057   3.542   3.060  10.315 -0.4034  0.5959 -0.4461
  108OSM    H3S11058   3.575   2.963  10.358  0.8527  1.8026  1.4336
  108OSM     O311059   3.623   3.166  10.366 -0.1250  0.3034  0.3687
  108OSM    HO311060   3.569   3.206  10.435 -0.3592 -0.0721  0.4023
  108OSM    C4S11061   3.566   3.062  10.169  0.5069 -0.4980 -0.1982
  108OSM    H4S11062   3.561   3.165  10.131  0.4023  0.1612  1.4832
  108OSM    C5S11063   3.599   2.953  10.099 -0.1792  0.2600 -0.1426
  108OSM    H5S11064   3.629   2.865  10.157 -0.9785  0.7012  0.9521
  108OSM    C6S11065   3.627   2.957   9.955  1.2755 -0.1007 -0.0197
  108OSM    H6S11066   3.706   3.032   9.931 -0.1067  1.1678 -0.8299
  108OSM    H6T11067   3.535   2.972   9.894  1.3342 -0.0651 -0.0995
  108OSM    C7S11068   3.677   2.819   9.915 -0.7417 -0.2435 -0.5879
  108OSM    H7S11069   3.601   2.740   9.933 -0.5989 -0.4092 -0.7085
  108OSM    H7T11070   3.766   2.805   9.980 -0.0443  3.5830 -0.4589
  108OSM    C8S11071   3.727   2.810   9.774 -0.0797 -0.1245  1.1187
  108OSM    H8S11072   3.802   2.731   9.754  0.6667  0.6670  0.7149
  108OSM    H8T11073   3.780   2.901   9.737  0.5797 -1.3719 -1.2109
  108OSM    C9S11074   3.601   2.777   9.682 -0.0802 -0.8694 -0.0824
  108OSM    H9S11075   3.548   2.874   9.667  3.2941  0.9197 -1.5872
  108OSM    H9T11076   3.540   2.700   9.734  0.0337 -0.5719  0.5038
  108OSM   C10S11077   3.646   2.740   9.540 -0.2230  0.0330 -0.4270
  108OSM   H10S11078   3.728   2.665   9.544  0.7535  1.1060  1.8307
  108OSM   H10T11079   3.687   2.824   9.479  1.9920 -1.1805 -0.7358
  108OSM   C11S11080   3.539   2.683   9.451 -0.6095  0.2294  0.3821
  108OSM   H11S11081   3.451   2.750   9.444  1.2790  2.8220  0.3995
  108OSM   H11T11082   3.497   2.587   9.488 -1.6630  0.6203  0.2163
  108OSM   C12S11083   3.599   2.651   9.319  0.2350  0.4917 -0.4269
  108OSM   H12S11084   3.609   2.540   9.322 -0.2268  0.4263  2.9027
  108OSM   H12T11085   3.700   2.693   9.303  0.4725 -0.2405 -0.8810
  108OSM   C13S11086   3.525   2.711   9.205 -0.6959  0.0888  0.8780
  108OSM   H13S11087   3.505   2.820   9.202 -2.7710 -0.2673 -0.8206
  108OSM   H13T11088   3.422   2.672   9.213 -1.0813  0.9352  0.1537
  108OSM   C14S11089   3.585   2.676   9.065 -1.0179 -0.6929 -0.2421
  108OSM   H14S11090   3.692   2.707   9.060 -1.3341  0.7675  1.1867
  108OSM   H14T11091   3.530   2.743   8.996  0.9221  0.4224 -0.7662
  108OSM   C15S11092   3.557   2.531   9.035 -0.2458  0.3513  0.3766
  108OSM   H15S11093   3.455   2.502   9.067 -0.5029 -0.1511 -0.8546
  108OSM   H15T11094   3.631   2.470   9.091 -1.9683 -1.1817  1.0960
  108OSM   C16S11095   3.565   2.499   8.886  0.5251 -0.0282 -0.5743
  108OSM   H16S11096   3.654   2.550   8.844 -0.6425  0.1617 -2.9765
  108OSM   H16T11097   3.482   2.550   8.832 -0.3561  0.9298  1.5617
  108OSM   C17S11098   3.545   2.349   8.847  0.0211  0.2419  0.5079
  108OSM   H17S11099   3.444   2.312   8.874 -0.5906  1.9092  0.6407
  108OSM   H17T11100   3.609   2.278   8.903  0.6408 -0.6032 -1.2224
  108OSM   C18S11101   3.579   2.331   8.699  0.2440  0.4198 -0.2326
  108OSM   H18S11102   3.680   2.375   8.685  0.4745  0.9131  2.4792
  108OSM   H18T11103   3.506   2.396   8.646  0.7411  0.6943 -0.5793
  108OSM   H18U11104   3.571   2.225   8.666 -2.1990 -0.1108  1.7380
  108OSM    C1F11105   3.176   2.971  10.283 -0.1249 -0.0164 -0.4282
  108OSM     OF11106   3.117   3.073  10.312 -0.3157  0.7772  0.2824
  108OSM    C2F11107   3.098   2.844  10.272  0.0641  0.6619  0.2399
  108OSM    H2F11108   3.025   2.829  10.354 -0.9934  1.6580 -0.4917
  108OSM    H2G11109   3.165   2.755  10.267  1.5185  1.5080  2.5045
  108OSM    C3F11110   3.031   2.823  10.133 -0.8987  0.2240  0.3549
  108OSM    H3F11111   3.110   2.838  10.056 -1.3258 -0.5677 -0.2525
  108OSM    H3G11112   2.955   2.903  10.129  0.0361  1.1006 -1.1184
  108OSM    C4F11113   2.967   2.692  10.123 -0.2092  0.7541  0.3702
  108OSM    H4F11114   2.909   2.678  10.217  0.9719 -1.2178  0.8774
  108OSM    H4G11115   3.043   2.611  10.113 -0.6849  0.0329  2.2005
  108OSM    C5F11116   2.877   2.684  10.000  0.1594  0.7901 -0.1809
  108OSM    H5F11117   2.806   2.769   9.994 -1.1920 -0.1976  1.0997
  108OSM    H5G11118   2.811   2.596  10.016  0.7562  0.4081  0.2310
  108OSM    C6F11119   2.961   2.651   9.872 -0.5195 -0.1732 -0.6073
  108OSM    H6F11120   3.025   2.565   9.900  2.0402  0.7975 -3.0536
  108OSM    H6G11121   3.029   2.736   9.850 -2.2450  1.8433  1.3064
  108OSM    C7F11122   2.876   2.606   9.753 -0.4479 -0.0712 -0.4523
  108OSM    H7F11123   2.813   2.521   9.787 -2.4480  1.5283  0.0317
  108OSM    H7G11124   2.956   2.550   9.700  0.7749  0.5540  0.6731
  108OSM    C8F11125   2.804   2.715   9.663  0.0567 -0.0688  0.0831
  108OSM    H8F11126   2.734   2.771   9.729  0.5242 -1.6448  2.0402
  108OSM    H8G11127   2.739   2.659   9.592  0.9581  0.3015 -1.0583
  108OSM    C9F11128   2.918   2.797   9.597  0.9484  0.6518  1.2039
  108OSM    H9F11129   2.969   2.875   9.656 -0.6560  2.3688  0.4584
  108OSM   C10F11130   2.947   2.794   9.462 -0.8685  0.7157 -0.3704
  108OSM   H10F11131   3.016   2.869   9.420 -0.1377 -0.1210 -0.7047
  108OSM   C11F11132   2.884   2.709   9.353  0.5663  0.3742  0.1378
  108OSM   H11F11133   2.776   2.701   9.379  0.3364  0.6095 -0.7088
  108OSM   H11G11134   2.941   2.614   9.351  1.2868  0.7782  0.9272
  108OSM   C12F11135   2.894   2.772   9.214  0.2447  0.2293  0.7461
  108OSM   H12F11136   2.891   2.883   9.214  3.0836  0.4106 -0.0955
  108OSM   H12G11137   2.802   2.738   9.162 -0.1390 -2.3588  2.8849
  108OSM   C13F11138   3.027   2.720   9.147 -0.6670  0.2072  0.0430
  108OSM   H13F11139   3.021   2.613   9.117 -0.2371 -0.6744  2.8411
  108OSM   H13G11140   3.119   2.746   9.205  1.5137 -2.6707 -1.8303
  108OSM   C14F11141   3.058   2.808   9.023  0.2808  0.5275 -0.4747
  108OSM   H14F11142   3.074   2.911   9.060  2.0252 -0.0202  0.3971
  108OSM   H14G11143   2.968   2.800   8.958  0.2407 -2.9037 -0.1860
  108OSM   C15F11144   3.174   2.762   8.928  0.1742  0.3223 -0.5704
  108OSM   H15F11145   3.163   2.652   8.912  1.4379  0.2561 -1.1344
  108OSM   H15G11146   3.264   2.765   8.994 -0.1635  0.1772 -0.0987
  108OSM   C16F11147   3.189   2.848   8.802 -0.5619  0.3984  0.0066
  108OSM   H16F11148   3.216   2.953   8.826 -2.2109  0.4151  2.0307
  108OSM   H16G11149   3.094   2.838   8.746  0.5884 -0.6057 -1.8722
  108OSM   C17F11150   3.292   2.795   8.697  0.0894 -0.3019 -0.0144
  108OSM   H17F11151   3.301   2.687   8.672 -0.4897  0.3357 -3.4153
  108OSM   H17G11152   3.389   2.835   8.732  0.3526 -0.9807  0.0308
  108OSM   C18F11153   3.274   2.852   8.550  0.3422  0.0906 -0.0352
  108OSM   H18F11154   3.198   2.787   8.500 -0.3641 -0.8796  2.1768
  108OSM   H18G11155   3.368   2.849   8.491  1.5273  0.9539  1.7635
  108OSM   H18H11156   3.236   2.955   8.564  1.9708  0.9375 -1.5124
  109OSM      N11157   2.638   2.033  10.932  0.0629 -0.1415  0.3230
  109OSM    C1511158   2.507   2.104  10.915 -0.7609  0.2278 -0.0453
  109OSM   H15A11159   2.514   2.211  10.907 -1.0969  0.2095 -0.6170
  109OSM   H15B11160   2.432   2.078  10.988 -1.9479  0.5704 -1.1062
  109OSM   H15C11161   2.468   2.076  10.818 -0.6634  1.5176 -0.4813
  109OSM    C1411162   2.738   2.096  10.838 -0.2832 -0.6715  0.6946
  109OSM   H14A11163   2.728   2.203  10.840 -0.3570 -0.3948 -3.6965
  109OSM   H14B11164   2.703   2.076  10.737 -1.8136 -3.0955  1.6002
  109OSM   H14C11165   2.836   2.058  10.862 -0.4772 -2.1463 -0.6339
  109OSM    C1311166   2.684   2.044  11.068  0.4357  0.0434  0.4811
  109OSM   H13A11167   2.693   2.145  11.105  2.6009  0.9050 -2.0887
  109OSM   H13B11168   2.784   2.005  11.074  0.1607 -0.6719  0.4456
  109OSM   H13C11169   2.619   1.985  11.131  0.2084 -0.8906 -0.5933
  109OSM    C1211170   2.618   1.886  10.891  0.1507  0.2681 -0.0580
  109OSM   H12A11171   2.550   1.837  10.960 -2.1515  1.1061 -1.6203
  109OSM   H12B11172   2.714   1.839  10.904  0.5137  0.6654 -1.2882
  109OSM    C1111173   2.565   1.853  10.752  0.0001  0.1258  0.5555
  109OSM   H11A11174   2.593   1.748  10.730  3.6917  1.0421  0.1354
  109OSM   H11B11175   2.618   1.902  10.667 -2.3138 -0.5378 -1.3624
  109OSM      P11176   2.311   1.783  10.787 -0.2186  0.0140  0.1332
  109OSM    O1311177   2.329   1.734  10.927  0.1846  0.0430  0.4775
  109OSM    O1411178   2.179   1.850  10.763 -0.1368  0.5209  0.3996
  109OSM    O1111179   2.339   1.670  10.687  0.4811  0.7893  0.0157
  109OSM    O1211180   2.424   1.887  10.744  0.1742 -0.5427 -0.0883
  109OSM    C1S11181   2.376   1.697  10.552  0.3912  0.4098  0.2719
  109OSM    H1S11182   2.487   1.695  10.548  0.3667 -1.6878 -1.1543
  109OSM    H1T11183   2.340   1.792  10.509  0.1468  1.0895  1.9150
  109OSM     NF11184   2.360   1.618  10.319  0.0494 -0.3208  0.5943
  109OSM    HNF11185   2.285   1.646  10.259 -0.7792 -1.7307  0.9024
  109OSM    C2S11186   2.323   1.586  10.456  0.1111  0.5726 -0.1323
  109OSM    H2S11187   2.368   1.488  10.483 -2.8738 -1.4454 -1.8524
  109OSM    C3S11188   2.172   1.551  10.478 -0.2828 -0.6914  0.2678
  109OSM    H3S11189   2.106   1.627  10.429  0.6586 -0.6524 -1.0064
  109OSM     O311190   2.136   1.525  10.614  0.1787 -0.3786  0.2512
  109OSM    HO311191   2.212   1.559  10.663  0.0148 -0.3445  0.4798
  109OSM    C4S11192   2.146   1.422  10.393  0.2527  0.0820 -0.1822
  109OSM    H4S11193   2.229   1.350  10.383  0.5215 -0.0850  2.4192
  109OSM    C5S11194   2.027   1.396  10.329 -0.1095  0.2955 -0.2351
  109OSM    H5S11195   1.939   1.446  10.374  0.7438  0.5546  1.2080
  109OSM    C6S11196   2.009   1.273  10.250  0.3168 -0.2646  0.1509
  109OSM    H6S11197   1.922   1.221  10.297 -0.4373  1.5213  0.8065
  109OSM    H6T11198   2.099   1.209  10.261  0.8192  0.4524  0.2668
  109OSM    C7S11199   1.986   1.298  10.104  0.4601 -0.0425 -0.4208
  109OSM    H7S11200   2.066   1.350  10.047  0.1264 -0.0607 -0.9079
  109OSM    H7T11201   1.894   1.359  10.091 -2.2055 -3.5603  0.3824
  109OSM    C8S11202   1.953   1.170  10.031  0.3903  0.1661  0.0686
  109OSM    H8S11203   1.867   1.127  10.086 -0.8641 -0.9886 -2.6412
  109OSM    H8T11204   2.050   1.114  10.027 -0.7597 -2.0570  1.2969
  109OSM    C9S11205   1.916   1.199   9.884  0.3856 -0.0422  0.6891
  109OSM    H9S11206   1.999   1.263   9.846 -2.3034  1.8515 -2.5758
  109OSM    H9T11207   1.824   1.261   9.881  0.2004 -0.1975 -3.9234
  109OSM   C10S11208   1.886   1.078   9.793 -0.0052 -0.0118 -0.1305
  109OSM   H10S11209   1.791   1.033   9.827  0.9129 -1.1790  0.9965
  109OSM   H10T11210   1.970   1.005   9.800 -1.4757 -1.8515 -0.7932
  109OSM   C11S11211   1.865   1.119   9.646 -0.3632 -0.1744  0.6268
  109OSM   H11S11212   1.957   1.162   9.601 -0.3202 -1.8942 -1.0565
  109OSM   H11T11213   1.781   1.189   9.628 -0.6785 -1.3152 -2.9118
  109OSM   C12S11214   1.834   1.004   9.552  0.4271 -0.0194  0.0921
  109OSM   H12S11215   1.743   0.959   9.596 -0.7952  0.5193 -1.8088
  109OSM   H12T11216   1.911   0.923   9.553  0.6983  0.2090 -0.9132
  109OSM   C13S11217   1.813   1.049   9.408 -0.4343 -0.1637 -1.1257
  109OSM   H13S11218   1.913   1.072   9.365 -1.2384 -0.2312 -3.1318
  109OSM   H13T11219   1.766   1.149   9.401 -1.1538 -0.4146 -0.1055
  109OSM   C14S11220   1.730   0.942   9.333  0.1992 -0.8199  0.3654
  109OSM   H14S11221   1.634   0.915   9.383  0.7904 -1.9525  0.9343
  109OSM   H14T11222   1.787   0.846   9.338 -0.5556 -1.7340 -4.1235
  109OSM   C15S11223   1.696   0.981   9.181 -0.9441  0.2206 -0.1128
  109OSM   H15S11224   1.772   1.057   9.155 -0.8824  0.2335  0.1000
  109OSM   H15T11225   1.597   1.028   9.166 -1.2590 -0.8942 -1.9403
  109OSM   C16S11226   1.693   0.854   9.088  0.1142 -0.6136 -0.4100
  109OSM   H16S11227   1.628   0.775   9.131 -1.9447 -0.0477 -2.3099
  109OSM   H16T11228   1.793   0.806   9.078 -0.0106 -1.0480  0.3773
  109OSM   C17S11229   1.634   0.880   8.948 -0.0262  0.3274  0.8005
  109OSM   H17S11230   1.674   0.974   8.904 -0.1361  0.0167  0.0137
  109OSM   H17T11231   1.526   0.903   8.955  0.1596  1.0097  1.5277
  109OSM   C18S11232   1.645   0.759   8.853 -0.1597 -0.4459  0.2271
  109OSM   H18S11233   1.582   0.773   8.763  1.7236  1.2062 -0.9052
  109OSM   H18T11234   1.623   0.662   8.902 -0.7460 -1.9716 -2.8266
  109OSM   H18U11235   1.745   0.748   8.807 -1.0383  0.5092 -2.0388
  109OSM    C1F11236   2.475   1.615  10.263 -0.6391  0.1767 -0.5164
  109OSM     OF11237   2.585   1.587  10.325  0.5440 -0.3846  0.5934
  109OSM    C2F11238   2.475   1.644  10.117  0.1981 -0.2826  0.3891
  109OSM    H2F11239   2.449   1.750  10.097 -1.0776 -0.4920  0.8027
  109OSM    H2G11240   2.389   1.591  10.072 -0.4045  0.1558  0.9906
  109OSM    C3F11241   2.615   1.615  10.051  0.3450 -0.4686  0.2944
  109OSM    H3F11242   2.660   1.521  10.088 -0.5779  0.1203  3.1789
  109OSM    H3G11243   2.681   1.700  10.079  0.0671  0.1483 -0.8700
  109OSM    C4F11244   2.601   1.591   9.902 -0.6668  0.3538  0.4354
  109OSM    H4F11245   2.607   1.691   9.855 -1.2950  0.8625  1.4169
  109OSM    H4G11246   2.496   1.555   9.891 -0.6256  0.2471  0.3877
  109OSM    C5F11247   2.706   1.491   9.848 -0.4806 -0.4465  0.0907
  109OSM    H5F11248   2.698   1.393   9.899 -0.3702 -1.1983 -1.2798
  109OSM    H5G11249   2.811   1.529   9.855 -1.1111  1.1917  1.1905
  109OSM    C6F11250   2.684   1.459   9.699  0.6100  0.2480 -0.4754
  109OSM    H6F11251   2.577   1.435   9.683  0.6121  0.6824 -1.1949
  109OSM    H6G11252   2.744   1.376   9.654  2.0368  1.2544 -0.5074
  109OSM    C7F11253   2.717   1.579   9.608  0.2209  0.3756 -0.2145
  109OSM    H7F11254   2.826   1.601   9.613 -0.1892  2.5513 -0.0532
  109OSM    H7G11255   2.662   1.667   9.647  1.0902  0.2168  1.4458
  109OSM    C8F11256   2.669   1.548   9.463 -0.2359 -0.0348  0.3922
  109OSM    H8F11257   2.558   1.541   9.465 -0.2439 -2.3217 -2.0278
  109OSM    H8G11258   2.709   1.456   9.415  0.3078  1.5120 -2.3747
  109OSM    C9F11259   2.700   1.667   9.381  0.4032 -0.4327  0.2158
  109OSM    H9F11260   2.781   1.733   9.417  0.0646  0.0443  0.1077
  109OSM   C10F11261   2.643   1.697   9.262 -0.1799  0.3324 -0.3832
  109OSM   H10F11262   2.670   1.785   9.201 -2.9454 -0.3376 -2.8207
  109OSM   C11F11263   2.544   1.608   9.185 -0.4338  0.5415  0.1951
  109OSM   H11F11264   2.514   1.517   9.241  1.0338 -0.3237 -0.3505
  109OSM   H11G11265   2.580   1.556   9.094 -1.5006 -0.5667  0.3863
  109OSM   C12F11266   2.436   1.692   9.125  0.1265  0.4799  0.1643
  109OSM   H12F11267   2.486   1.779   9.077  1.0876  0.6032  1.3349
  109OSM   H12G11268   2.363   1.737   9.196  0.8025  1.2493  0.3841
  109OSM   C13F11269   2.362   1.618   9.010 -0.7062  0.1394 -0.6726
  109OSM   H13F11270   2.343   1.516   9.050 -1.3009  0.6871  0.4942
  109OSM   H13G11271   2.428   1.608   8.921  0.5270  0.0623  0.2136
  109OSM   C14F11272   2.229   1.678   8.960 -0.4327 -0.7734  0.0735
  109OSM   H14F11273   2.254   1.783   8.934  0.6117 -0.8432  0.7315
  109OSM   H14G11274   2.149   1.666   9.036 -2.0513  0.3667 -1.3818
  109OSM   C15F11275   2.193   1.596   8.830  0.9062  0.9874 -0.7151
  109OSM   H15F11276   2.194   1.489   8.857  0.3681  1.1278 -0.1392
  109OSM   H15G11277   2.271   1.608   8.751 -0.9522  1.4381 -2.5702
  109OSM   C16F11278   2.054   1.623   8.761 -0.9079 -0.2357  0.5120
  109OSM   H16F11279   2.039   1.733   8.747 -0.2964 -0.2757 -0.5820
  109OSM   H16G11280   1.982   1.598   8.842  0.1895 -0.9535  1.2978
  109OSM   C17F11281   2.005   1.550   8.643 -1.1087  0.5543 -0.2640
  109OSM   H17F11282   2.026   1.441   8.649  2.0499  0.9628 -1.8035
  109OSM   H17G11283   2.068   1.570   8.554 -0.5162 -0.4968 -0.0957
  109OSM   C18F11284   1.857   1.571   8.613 -0.2415 -0.7074 -0.7264
  109OSM   H18F11285   1.844   1.680   8.592 -1.8375 -0.8731 -0.7308
  109OSM   H18G11286   1.795   1.553   8.703 -0.5901 -0.7454 -0.9701
  109OSM   H18H11287   1.825   1.497   8.536  0.1738 -0.1111 -1.4870
  110OSM      N11288   3.986   0.843  11.102  0.0098 -0.2796  0.2349
  110OSM    C1511289   4.086   0.886  11.002  0.3896  0.5618  0.3522
  110OSM   H15A11290   4.180   0.916  11.048  0.3498 -0.5848  1.2108
  110OSM   H15B11291   4.059   0.974  10.944  0.0110 -0.9231 -1.8556
  110OSM   H15C11292   4.110   0.801  10.939  0.6025  1.3018 -0.6027
  110OSM    C1411293   4.045   0.728  11.177 -0.4128 -0.2987  1.0303
  110OSM   H14A11294   4.084   0.656  11.106  3.0322  3.9264 -1.9354
  110OSM   H14B11295   3.975   0.681  11.245  0.1264 -0.4980  1.4504
  110OSM   H14C11296   4.133   0.761  11.231 -1.3174 -0.1019  2.4476
  110OSM    C1311297   3.971   0.957  11.203 -0.2289 -0.4994  0.3600
  110OSM   H13A11298   3.879   0.945  11.259 -0.6076  0.3498 -0.0536
  110OSM   H13B11299   3.964   1.056  11.161  1.1252 -0.3617  0.4327
  110OSM   H13C11300   4.060   0.963  11.263  0.3958  0.5124 -0.6489
  110OSM    C1211301   3.855   0.798  11.035 -0.0007 -0.8016  0.5066
  110OSM   H12A11302   3.880   0.718  10.967  1.4595 -1.1778  1.4308
  110OSM   H12B11303   3.817   0.885  10.984 -1.0841  0.4190  3.2040
  110OSM    C1111304   3.745   0.736  11.127 -0.3912 -0.2095  0.1847
  110OSM   H11A11305   3.654   0.751  11.065  0.3902 -2.1317 -1.5649
  110OSM   H11B11306   3.733   0.801  11.216  0.4118  0.1265  0.0575
  110OSM      P11307   3.729   0.482  11.036  0.2120 -0.0250 -0.0579
  110OSM    O1311308   3.802   0.356  11.054 -0.1961 -0.3839  0.4239
  110OSM    O1411309   3.584   0.480  11.021 -0.7912  0.1129  0.4026
  110OSM    O1111310   3.783   0.545  10.900  0.1964  0.2689 -0.3355
  110OSM    O1211311   3.759   0.593  11.152  0.2792  0.1345 -0.3922
  110OSM    C1S11312   3.906   0.494  10.843 -0.3071  0.2172 -0.9116
  110OSM    H1S11313   3.891   0.386  10.824 -4.4899  0.9840 -3.1374
  110OSM    H1T11314   3.988   0.513  10.915 -1.4589 -0.3275  0.6217
  110OSM     NF11315   4.083   0.541  10.678  0.2623 -0.0263  0.5202
  110OSM    HNF11316   4.145   0.619  10.684  0.4449 -0.1609  0.4023
  110OSM    C2S11317   3.941   0.560  10.709 -0.1547  0.3407  0.1210
  110OSM    H2S11318   3.884   0.498  10.636 -1.7309  1.7720  0.0713
  110OSM    C3S11319   3.900   0.708  10.700 -0.3303 -0.2542  0.0286
  110OSM    H3S11320   3.961   0.754  10.781 -2.7565  2.1481  0.6262
  110OSM     O311321   3.764   0.738  10.727  0.3303 -0.0154  0.6113
  110OSM    HO311322   3.727   0.655  10.758 -0.0330 -0.3016 -0.5435
  110OSM    C4S11323   3.933   0.751  10.557 -0.7782  0.2420 -0.1869
  110OSM    H4S11324   4.021   0.817  10.554  0.1945 -1.0004 -0.4189
  110OSM    C5S11325   3.860   0.714  10.449 -0.3293  0.7773 -0.3861
  110OSM    H5S11326   3.768   0.655  10.450  0.5439 -0.8142 -2.9047
  110OSM    C6S11327   3.905   0.758  10.313 -0.8805  0.3850 -0.6917
  110OSM    H6S11328   4.015   0.747  10.312 -0.7026  1.7952 -0.1547
  110OSM    H6T11329   3.872   0.861  10.287 -1.7131 -0.2772 -2.3601
  110OSM    C7S11330   3.857   0.664  10.193 -0.0708  0.4367  0.0798
  110OSM    H7S11331   3.747   0.648  10.207 -0.0440  0.8367  0.8180
  110OSM    H7T11332   3.911   0.567  10.200 -0.6015  0.1649  0.5504
  110OSM    C8S11333   3.870   0.734  10.060  0.2257 -0.3328 -0.4527
  110OSM    H8S11334   3.812   0.828  10.070 -0.1376 -0.6540  0.6346
  110OSM    H8T11335   3.821   0.669   9.983 -1.4563 -1.3433  1.3723
  110OSM    C9S11336   4.007   0.770  10.006  0.2296  0.1486  0.2508
  110OSM    H9S11337   4.057   0.670  10.000 -1.0690 -0.4466 -1.4564
  110OSM    H9T11338   4.054   0.835  10.083 -0.5142 -0.5887  1.3666
  110OSM   C10S11339   4.003   0.846   9.869 -0.3666 -0.1603 -0.4580
  110OSM   H10S11340   3.980   0.773   9.789 -0.9955  0.7347 -1.1089
  110OSM   H10T11341   4.102   0.894   9.850 -0.3043 -0.6951 -1.5125
  110OSM   C11S11342   3.892   0.944   9.859  0.3263 -0.0433 -0.0025
  110OSM   H11S11343   3.886   0.995   9.958  0.8326 -3.4459  1.9560
  110OSM   H11T11344   3.797   0.888   9.848  0.4078 -0.3377  0.7491
  110OSM   C12S11345   3.918   1.059   9.758  0.1728  0.1262 -0.3126
  110OSM   H12S11346   4.007   1.117   9.788 -0.1896  0.2017  0.6321
  110OSM   H12T11347   3.832   1.130   9.761 -0.6051 -0.7906 -0.1362
  110OSM   C13S11348   3.914   0.992   9.609  0.2057 -0.0343  0.3987
  110OSM   H13S11349   3.837   0.912   9.610 -0.0769  0.2169 -0.4693
  110OSM   H13T11350   4.014   0.946   9.595 -0.1298 -0.2473 -1.5892
  110OSM   C14S11351   3.891   1.097   9.493 -0.0752 -0.0171 -0.2418
  110OSM   H14S11352   3.786   1.133   9.498  0.7868  2.7314 -0.2611
  110OSM   H14T11353   3.906   1.031   9.405  1.3256  0.3293 -0.2932
  110OSM   C15S11354   3.993   1.209   9.480  0.1551 -0.3112  0.2032
  110OSM   H15S11355   4.089   1.155   9.467  0.2357 -0.4695  1.3806
  110OSM   H15T11356   3.989   1.274   9.570 -1.6229 -1.5517  1.0749
  110OSM   C16S11357   3.962   1.302   9.369  0.8545 -0.2077  0.2988
  110OSM   H16S11358   3.926   1.242   9.283  0.4480  1.8876 -1.0711
  110OSM   H16T11359   4.047   1.366   9.335  0.5879  1.4651  2.5000
  110OSM   C17S11360   3.868   1.418   9.416  0.4843  0.1895 -0.0762
  110OSM   H17S11361   3.925   1.470   9.495  1.5920  0.8543 -1.2718
  110OSM   H17T11362   3.779   1.377   9.469  1.2163 -1.0153  0.2622
  110OSM   C18S11363   3.840   1.524   9.309 -0.0603  0.0873  0.0994
  110OSM   H18S11364   3.779   1.601   9.363  1.1471 -0.2436  2.0640
  110OSM   H18T11365   3.779   1.473   9.231  1.2265 -1.2719 -0.0576
  110OSM   H18U11366   3.931   1.571   9.267  0.1003  0.1500  0.5075
  110OSM    C1F11367   4.136   0.430  10.632 -0.4168  0.0407  0.3856
  110OSM     OF11368   4.066   0.328  10.636 -0.2553 -0.2783  0.3480
  110OSM    C2F11369   4.284   0.431  10.601 -0.7084  0.3163 -0.7529
  110OSM    H2F11370   4.331   0.367  10.679 -0.8259  1.3510  0.1882
  110OSM    H2G11371   4.318   0.537  10.608 -1.4776  0.5510 -0.4612
  110OSM    C3F11372   4.316   0.384  10.456  0.7404 -0.2032 -0.3222
  110OSM    H3F11373   4.296   0.276  10.435 -3.8023  0.1632  0.9338
  110OSM    H3G11374   4.423   0.406  10.443  1.0149 -0.8784  0.6194
  110OSM    C4F11375   4.245   0.462  10.347  0.0299  0.0876  0.3776
  110OSM    H4F11376   4.263   0.571  10.358  1.1439  0.1848 -1.7548
  110OSM    H4G11377   4.136   0.441  10.344  0.3808 -1.7944 -1.4904
  110OSM    C5F11378   4.299   0.423  10.207 -0.0235 -0.2070 -0.4165
  110OSM    H5F11379   4.280   0.315  10.189  0.3297  0.1810 -3.9131
  110OSM    H5G11380   4.409   0.439  10.201 -0.1645  0.4049 -1.7543
  110OSM    C6F11381   4.248   0.508  10.094 -0.4634  0.2783  0.0683
  110OSM    H6F11382   4.268   0.616  10.113  0.8829 -0.0717  0.7185
  110OSM    H6G11383   4.138   0.491  10.085 -0.6717  2.0168 -1.1474
  110OSM    C7F11384   4.329   0.475   9.964  0.5647 -0.4760  0.2651
  110OSM    H7F11385   4.294   0.376   9.927  1.6468 -0.1455 -1.8070
  110OSM    H7G11386   4.435   0.452   9.988  0.8451 -0.2168 -0.6752
  110OSM    C8F11387   4.310   0.575   9.850 -0.4013 -0.1109  0.2561
  110OSM    H8F11388   4.343   0.679   9.870  0.7762  0.3347 -3.2853
  110OSM    H8G11389   4.201   0.587   9.828  0.1070  0.3803 -2.3437
  110OSM    C9F11390   4.381   0.539   9.717 -0.1167  0.4305  0.0213
  110OSM    H9F11391   4.489   0.540   9.739 -0.3534 -3.1768  2.1740
  110OSM   C10F11392   4.343   0.506   9.593  0.6182 -0.3931  0.5425
  110OSM   H10F11393   4.427   0.491   9.524  1.9724 -1.4037  2.3013
  110OSM   C11F11394   4.208   0.496   9.542 -0.0182  0.0879  0.1327
  110OSM   H11F11395   4.143   0.457   9.623  2.2947  0.0559  2.0851
  110OSM   H11G11396   4.204   0.420   9.461  2.5544 -0.2825  0.2514
  110OSM   C12F11397   4.150   0.629   9.501  0.2785  0.1537  0.3509
  110OSM   H12F11398   4.151   0.694   9.591  1.5452  0.2025  0.3236
  110OSM   H12G11399   4.043   0.612   9.475  0.1755 -0.5653  1.2075
  110OSM   C13F11400   4.231   0.703   9.393  0.7375  0.1666  0.2978
  110OSM   H13F11401   4.265   0.639   9.308 -1.5022  1.5851 -1.8032
  110OSM   H13G11402   4.325   0.746   9.435 -0.4225  3.2261  0.0007
  110OSM   C14F11403   4.163   0.821   9.326 -0.4176  0.1132  0.4990
  110OSM   H14F11404   4.129   0.901   9.395 -0.4405  0.9393 -0.4423
  110OSM   H14G11405   4.069   0.782   9.280 -1.3965  1.6336  1.1458
  110OSM   C15F11406   4.253   0.893   9.227  0.5789 -0.4507  0.3287
  110OSM   H15F11407   4.281   0.824   9.144  1.5347  0.1122  0.1663
  110OSM   H15G11408   4.350   0.915   9.276  0.8618 -0.9775  0.0169
  110OSM   C16F11409   4.208   1.032   9.170 -0.1684 -0.1109 -0.2668
  110OSM   H16F11410   4.207   1.108   9.251  1.2389 -0.5085  0.1668
  110OSM   H16G11411   4.114   1.025   9.112 -0.0443 -2.3280 -0.3089
  110OSM   C17F11412   4.324   1.093   9.090  0.3546  0.1773  0.0293
  110OSM   H17F11413   4.382   1.023   9.025  0.2528  1.7965 -1.9187
  110OSM   H17G11414   4.391   1.137   9.167  0.3321  0.5012 -0.1359
  110OSM   C18F11415   4.282   1.203   8.995  0.1004 -0.1448 -0.0027
  110OSM   H18F11416   4.356   1.219   8.914 -0.8780  1.7994 -0.5558
  110OSM   H18G11417   4.269   1.304   9.040  0.8985  0.8932 -2.0031
  110OSM   H18H11418   4.188   1.178   8.941 -0.8798 -1.8958  2.3126
  111OSM      N11419   3.556   3.990  10.963  0.0512 -0.1987  0.2942
  111OSM    C1511420   3.566   3.894  11.079  0.1276 -0.7303 -0.3087
  111OSM   H15A11421   3.530   3.796  11.051 -2.2620  0.1047 -0.4152
  111OSM   H15B11422   3.500   3.931  11.157  1.1683  2.7457 -0.9243
  111OSM   H15C11423   3.667   3.903  11.116 -0.0908  0.7635  0.0100
  111OSM    C1411424   3.585   4.130  11.010 -0.1392  0.1457 -0.0226
  111OSM   H14A11425   3.683   4.128  11.056  0.6661 -0.4952 -1.7163
  111OSM   H14B11426   3.519   4.160  11.090 -0.1737 -0.8961  0.3529
  111OSM   H14C11427   3.575   4.194  10.924  2.3142 -0.1582 -0.6003
  111OSM    C1311428   3.654   3.932  10.873 -0.0321 -0.0939  0.8053
  111OSM   H13A11429   3.752   3.950  10.915  0.3063 -0.5676  0.2278
  111OSM   H13B11430   3.653   3.980  10.777  1.2535 -1.2675  0.1699
  111OSM   H13C11431   3.654   3.825  10.859  0.1468  0.1443 -1.1786
  111OSM    C1211432   3.419   3.984  10.895 -0.5231  0.5598  0.2832
  111OSM   H12A11433   3.342   3.978  10.971 -0.3643  2.1492  0.6251
  111OSM   H12B11434   3.408   3.888  10.848 -3.7845  1.3206 -0.7970
  111OSM    C1111435   3.380   4.088  10.782 -0.0348  0.1689  0.1867
  111OSM   H11A11436   3.394   4.193  10.815 -3.0447  0.6066  0.3679
  111OSM   H11B11437   3.270   4.072  10.772 -0.3529  0.4275  2.6505
  111OSM      P11438   3.427   3.964  10.557 -0.6512 -0.2229 -0.4884
  111OSM    O1311439   3.544   3.963  10.468 -0.2262 -0.4469 -0.0023
  111OSM    O1411440   3.397   3.839  10.630  0.4836  0.1593  0.1539
  111OSM    O1111441   3.308   4.026  10.479 -0.5330 -0.1256  0.0528
  111OSM    O1211442   3.459   4.063  10.671  0.5568  0.2742  0.4945
  111OSM    C1S11443   3.307   4.165  10.430 -0.0957 -0.5344  0.4130
  111OSM    H1S11444   3.411   4.205  10.435 -1.0902  2.2794  0.6221
  111OSM    H1T11445   3.240   4.228  10.493 -1.5731 -1.3209 -0.3244
  111OSM     NF11446   3.281   4.299  10.221  0.1518 -0.0898  0.8251
  111OSM    HNF11447   3.227   4.380  10.240 -1.9782 -1.6415  1.8138
  111OSM    C2S11448   3.242   4.174  10.284 -0.4755 -0.4146  0.7973
  111OSM    H2S11449   3.298   4.092  10.235  1.8746  2.9984 -2.7951
  111OSM    C3S11450   3.094   4.123  10.284  0.4329  0.0928 -0.4223
  111OSM    H3S11451   3.023   4.199  10.321 -0.1725  0.1088 -1.5762
  111OSM     O311452   3.072   4.001  10.353  0.1055 -0.2029 -0.3603
  111OSM    HO311453   3.155   3.988  10.401 -0.7874 -0.9706  1.0568
  111OSM    C4S11454   3.047   4.113  10.141 -0.1150  0.4728 -0.1152
  111OSM    H4S11455   3.010   4.206  10.095 -0.5063  0.0111 -0.7439
  111OSM    C5S11456   3.059   4.002  10.060 -0.3452 -0.6301 -0.7683
  111OSM    H5S11457   3.112   3.911  10.090  2.0768  0.8673 -0.2682
  111OSM    C6S11458   3.007   3.999   9.919  0.3466 -0.2569 -0.6537
  111OSM    H6S11459   2.912   3.941   9.926  0.2072  0.1752  2.4413
  111OSM    H6T11460   3.077   3.934   9.863 -0.9130 -2.1661 -0.1265
  111OSM    C7S11461   2.980   4.131   9.849 -0.0845  0.0488 -0.8950
  111OSM    H7S11462   3.069   4.197   9.860 -0.3113  0.2214  0.0250
  111OSM    H7T11463   2.888   4.173   9.896  0.3894  0.4275 -0.2820
  111OSM    C8S11464   2.984   4.115   9.700 -0.0649  0.0684  0.5400
  111OSM    H8S11465   2.902   4.050   9.662  0.6121 -0.4733  0.0020
  111OSM    H8T11466   3.081   4.081   9.658  0.1959  2.0036 -0.5373
  111OSM    C9S11467   2.954   4.257   9.623 -0.0628  0.9294  0.3030
  111OSM    H9S11468   3.046   4.319   9.629  1.1011 -0.6989  0.1107
  111OSM    H9T11469   2.878   4.324   9.668 -2.5378 -2.7760  2.1493
  111OSM   C10S11470   2.906   4.227   9.476  0.0176  0.0043 -0.5640
  111OSM   H10S11471   2.881   4.328   9.439 -2.9364 -1.3306 -2.6464
  111OSM   H10T11472   2.809   4.172   9.478 -0.3570  0.6730  0.5522
  111OSM   C11S11473   3.001   4.155   9.384  0.0468  0.8453 -0.2254
  111OSM   H11S11474   3.016   4.049   9.413 -1.4435  0.3232 -1.2592
  111OSM   H11T11475   3.105   4.194   9.376  0.3945 -0.0919 -0.3729
  111OSM   C12S11476   2.943   4.152   9.242  0.2045 -0.3491  0.6903
  111OSM   H12S11477   2.900   4.249   9.207  0.0666 -1.0354 -1.1520
  111OSM   H12T11478   2.855   4.086   9.249  0.8343 -1.2334  0.4251
  111OSM   C13S11479   3.038   4.099   9.142 -0.6040 -0.0869  0.0676
  111OSM   H13S11480   3.072   3.996   9.166 -3.4894 -1.3564 -0.9046
  111OSM   H13T11481   3.124   4.170   9.147 -1.3855  0.8498  0.5265
  111OSM   C14S11482   2.982   4.098   9.000 -0.5388 -0.1582 -0.4117
  111OSM   H14S11483   2.933   4.194   8.975  0.7032  0.2011 -1.5985
  111OSM   H14T11484   2.905   4.018   8.990  0.2077 -0.6406 -2.8540
  111OSM   C15S11485   3.092   4.072   8.906  0.1389 -0.4086  0.6091
  111OSM   H15S11486   3.147   3.979   8.932 -0.8305 -0.5767  2.2097
  111OSM   H15T11487   3.159   4.161   8.908  0.4297 -0.5951  3.1892
  111OSM   C16S11488   3.048   4.044   8.761  0.2760  0.3765  0.1669
  111OSM   H16S11489   2.970   3.966   8.760 -2.0704  2.5786 -0.6301
  111OSM   H16T11490   3.136   4.010   8.702  0.3698 -0.4501  0.7740
  111OSM   C17S11491   3.001   4.171   8.683 -0.0512  0.0043 -0.1345
  111OSM   H17S11492   3.082   4.246   8.694 -0.6101  0.4515  1.1349
  111OSM   H17T11493   2.914   4.210   8.740  1.2032  0.6203  1.4416
  111OSM   C18S11494   2.981   4.141   8.538 -0.2827  0.7605  0.7023
  111OSM   H18S11495   2.917   4.207   8.477 -1.8642 -0.4020  1.0180
  111OSM   H18T11496   2.922   4.050   8.514  1.0609 -0.2974  1.2060
  111OSM   H18U11497   3.079   4.115   8.493 -0.2091 -2.7602  2.4842
  111OSM    C1F11498   3.401   4.313  10.156  0.7180 -0.0544 -0.4843
  111OSM     OF11499   3.484   4.225  10.156  0.3849 -0.2291 -0.1547
  111OSM    C2F11500   3.430   4.444  10.093 -0.2641 -1.0401 -0.5231
  111OSM    H2F11501   3.495   4.500  10.164 -2.7637  2.4309 -0.7521
  111OSM    H2G11502   3.338   4.505  10.086  0.6571  0.7256  1.6706
  111OSM    C3F11503   3.512   4.443   9.961  0.3775  0.5095  0.2291
  111OSM    H3F11504   3.611   4.395   9.981  1.2815  0.0093 -4.4440
  111OSM    H3G11505   3.531   4.552   9.948  0.6124  0.6557  1.6306
  111OSM    C4F11506   3.443   4.369   9.847 -0.0588 -0.1805  0.2380
  111OSM    H4F11507   3.345   4.415   9.821 -0.2573 -2.0576 -2.8760
  111OSM    H4G11508   3.420   4.266   9.880 -0.2266 -0.7106 -1.4287
  111OSM    C5F11509   3.526   4.370   9.718  0.1670 -0.1832  0.2137
  111OSM    H5F11510   3.631   4.335   9.727  0.2096 -0.2930 -0.6498
  111OSM    H5G11511   3.536   4.478   9.696  1.4410 -0.5002 -0.8424
  111OSM    C6F11512   3.441   4.307   9.608  0.1241 -0.5246 -0.3179
  111OSM    H6F11513   3.340   4.353   9.621  0.4948  0.0408  0.6649
  111OSM    H6G11514   3.428   4.201   9.638  2.5281 -0.5394  0.8536
  111OSM    C7F11515   3.505   4.319   9.471  0.4457  0.4588  0.2236
  111OSM    H7F11516   3.604   4.270   9.480  0.6773  0.8251 -0.3062
  111OSM    H7G11517   3.529   4.426   9.453  0.6444  0.2903 -0.5938
  111OSM    C8F11518   3.410   4.268   9.358 -0.7817  0.2197 -0.7635
  111OSM    H8F11519   3.323   4.336   9.348 -0.6832  0.5196  0.2720
  111OSM    H8G11520   3.369   4.171   9.392  1.3549  0.2254  2.2854
  111OSM    C9F11521   3.480   4.242   9.224 -0.0623 -0.5311  0.0094
  111OSM    H9F11522   3.569   4.181   9.246  0.5555  1.2587  3.0938
  111OSM   C10F11523   3.449   4.293   9.105 -0.9031 -0.4726 -0.7640
  111OSM   H10F11524   3.508   4.268   9.016  0.1546 -1.1659  0.0996
  111OSM   C11F11525   3.340   4.393   9.075 -1.0255 -0.2987 -0.0575
  111OSM   H11F11526   3.354   4.482   9.140  0.6101 -0.8603  0.4364
  111OSM   H11G11527   3.247   4.346   9.112 -0.1596 -0.2635  2.3725
  111OSM   C12F11528   3.343   4.432   8.920  0.0414  0.1022 -0.2386
  111OSM   H12F11529   3.324   4.340   8.861  0.2344 -0.2851  0.3014
  111OSM   H12G11530   3.440   4.472   8.886 -0.8162  1.6446 -1.0041
  111OSM   C13F11531   3.226   4.528   8.877  0.7079  0.2815 -0.1591
  111OSM   H13F11532   3.224   4.627   8.927 -1.5193 -0.5672  1.5837
  111OSM   H13G11533   3.131   4.474   8.893  0.6172  0.1990 -0.9191
  111OSM   C14F11534   3.218   4.559   8.728  1.2605 -0.1113  0.3869
  111OSM   H14F11535   3.213   4.459   8.679  3.5116  0.0160 -0.2207
  111OSM   H14G11536   3.313   4.610   8.704  0.8790  0.1752 -0.5547
  111OSM   C15F11537   3.092   4.639   8.684 -0.3385  0.1570 -0.2540
  111OSM   H15F11538   3.086   4.742   8.725  0.4718  0.9776 -2.0972
  111OSM   H15G11539   3.006   4.581   8.725  0.0915 -0.7921 -0.6725
  111OSM   C16F11540   3.085   4.658   8.531  0.4988 -0.6401  0.2531
  111OSM   H16F11541   2.979   4.643   8.500  0.4754 -1.8271  0.8470
  111OSM   H16G11542   3.128   4.562   8.494  1.1676 -0.0593 -0.4945
  111OSM   C17F11543   3.146   4.781   8.466 -0.1292 -0.0872 -0.0573
  111OSM   H17F11544   3.235   4.777   8.532 -2.0068 -1.7769  2.5997
  111OSM   H17G11545   3.085   4.871   8.489 -1.2861 -0.7104 -0.5781
  111OSM   C18F11546   3.174   4.756   8.319  0.8537  0.8780  0.1387
  111OSM   H18F11547   3.228   4.846   8.283  0.2497  1.0685 -0.3125
  111OSM   H18G11548   3.084   4.732   8.258  0.0838  1.5183  0.9997
  111OSM   H18H11549   3.246   4.674   8.298  0.4926  0.9591 -1.5308
  112OSM      N11550   2.857   2.797  10.804  0.7993 -0.5304  0.3770
  112OSM    C1511551   2.899   2.671  10.867  0.2490  0.0073  0.3180
  112OSM   H15A11552   2.972   2.698  10.942 -0.6357  0.2277  1.1164
  112OSM   H15B11553   2.960   2.606  10.805 -0.0189  0.7929 -0.7940
  112OSM   H15C11554   2.815   2.611  10.901 -0.7752  0.3361 -1.4934
  112OSM    C1411555   2.727   2.783  10.729 -0.9940 -1.8648 -0.1830
  112OSM   H14A11556   2.733   2.707  10.653 -2.5480 -1.7733 -0.4317
  112OSM   H14B11557   2.681   2.875  10.697  0.5236 -1.4290 -1.1654
  112OSM   H14C11558   2.661   2.746  10.807  2.8519 -1.2728  3.7326
  112OSM    C1311559   2.833   2.894  10.922  0.3538 -0.1032 -0.2209
  112OSM   H13A11560   2.782   2.980  10.881  2.1803  1.3827  0.4617
  112OSM   H13B11561   2.923   2.930  10.969  0.0490  0.7954 -0.3041
  112OSM   H13C11562   2.776   2.854  11.004 -0.1537  2.5016  0.8072
  112OSM    C1211563   2.964   2.850  10.713 -0.1455 -0.0623  0.6195
  112OSM   H12A11564   3.047   2.881  10.775  1.7713 -0.2074 -1.7130
  112OSM   H12B11565   2.916   2.936  10.668 -0.1865  0.2757  1.3015
  112OSM    C1111566   3.030   2.762  10.602 -0.2932  0.0922 -0.2689
  112OSM   H11A11567   3.094   2.832  10.544 -1.7657  1.2719 -0.5195
  112OSM   H11B11568   2.945   2.721  10.543 -0.6464  1.9005 -1.0764
  112OSM      P11569   3.251   2.698  10.729 -0.1464 -0.5543 -0.0722
  112OSM    O1311570   3.231   2.826  10.808  0.1023 -0.0655 -0.2399
  112OSM    O1411571   3.307   2.592  10.812  0.3045  0.3982  0.4570
  112OSM    O1111572   3.350   2.735  10.611  0.0326 -0.2456  0.3341
  112OSM    O1211573   3.108   2.653  10.658 -0.6552 -0.1863 -0.3475
  112OSM    C1S11574   3.376   2.637  10.510 -0.1476 -0.4318 -0.5139
  112OSM    H1S11575   3.294   2.635  10.434 -0.2371 -1.6133 -0.3940
  112OSM    H1T11576   3.370   2.537  10.556 -2.1071  0.2481  0.8407
  112OSM     NF11577   3.524   2.589  10.323 -0.5562  0.1695 -0.7135
  112OSM    HNF11578   3.573   2.506  10.349 -0.0466  0.5867 -0.3166
  112OSM    C2S11579   3.507   2.678  10.439 -0.2756  0.4036  1.0445
  112OSM    H2S11580   3.501   2.783  10.403  2.5959  0.6823  1.1475
  112OSM    C3S11581   3.625   2.665  10.538 -0.6311 -0.3754 -0.1390
  112OSM    H3S11582   3.626   2.563  10.582  0.9623  0.0022  0.7881
  112OSM     O311583   3.611   2.750  10.647 -0.1366 -0.0918 -0.1564
  112OSM    HO311584   3.520   2.780  10.638 -0.5216 -1.4576 -1.1695
  112OSM    C4S11585   3.764   2.693  10.477  1.1191 -0.1258  0.2081
  112OSM    H4S11586   3.810   2.597  10.447  2.1931  0.6713 -0.7633
  112OSM    C5S11587   3.829   2.807  10.435  0.6279  0.5749 -0.5322
  112OSM    H5S11588   3.772   2.899  10.457 -1.4737 -0.4851 -1.2815
  112OSM    C6S11589   3.960   2.821  10.371  0.9430  0.0097 -0.6977
  112OSM    H6S11590   4.007   2.721  10.353 -0.4805 -1.4901  2.8881
  112OSM    H6T11591   4.034   2.878  10.431  0.7186  0.4168 -0.8085
  112OSM    C7S11592   3.944   2.879  10.227  0.0669  0.2422 -0.3639
  112OSM    H7S11593   3.876   2.964  10.204 -1.4183 -0.6618  0.4946
  112OSM    H7T11594   3.909   2.799  10.158 -0.6068 -0.3324  0.6170
  112OSM    C8S11595   4.081   2.918  10.169 -0.5686 -0.3871 -0.2312
  112OSM    H8S11596   4.130   2.982  10.246  0.0076 -0.5058 -0.4906
  112OSM    H8T11597   4.061   2.982  10.080 -3.4513 -2.4094 -1.1691
  112OSM    C9S11598   4.187   2.806  10.143 -0.0718  0.1218 -0.7694
  112OSM    H9S11599   4.196   2.755  10.241 -1.0539  0.9124 -0.2465
  112OSM    H9T11600   4.282   2.859  10.117  0.7550  0.3078  2.2877
  112OSM   C10S11601   4.143   2.719  10.024  0.2703 -0.0134 -0.1016
  112OSM   H10S11602   4.058   2.655  10.056 -0.3023 -0.2671 -2.0151
  112OSM   H10T11603   4.228   2.648  10.009 -1.1977 -1.7531 -0.4491
  112OSM   C11S11604   4.105   2.781   9.888  0.6456 -0.9578 -0.6774
  112OSM   H11S11605   4.187   2.851   9.862  1.6556 -0.9855  2.0817
  112OSM   H11T11606   4.009   2.836   9.897  1.1513  0.2457 -2.1032
  112OSM   C12S11607   4.106   2.670   9.779  0.4609 -0.2034 -0.4971
  112OSM   H12S11608   4.027   2.597   9.806  2.0413 -1.4429  1.0647
  112OSM   H12T11609   4.204   2.618   9.792  0.4461  0.2212  1.9099
  112OSM   C13S11610   4.084   2.723   9.642 -0.3388 -0.0587  0.3224
  112OSM   H13S11611   4.169   2.793   9.629  0.1236 -0.4603  1.1275
  112OSM   H13T11612   3.990   2.782   9.635  0.4832  1.3007  0.3954
  112OSM   C14S11613   4.095   2.624   9.521 -0.2563 -0.0059 -0.2205
  112OSM   H14S11614   4.024   2.542   9.545  0.1378 -0.0922  0.6864
  112OSM   H14T11615   4.192   2.571   9.510  0.6260  1.5341 -0.1729
  112OSM   C15S11616   4.061   2.694   9.389  0.3245  0.3567  0.3235
  112OSM   H15S11617   4.139   2.773   9.382  1.6686 -1.0654 -1.7046
  112OSM   H15T11618   3.961   2.739   9.410 -0.4628 -1.4873  0.7550
  112OSM   C16S11619   4.047   2.610   9.263  0.7878 -0.4833  0.2716
  112OSM   H16S11620   3.967   2.533   9.274 -0.8387  1.3868  2.2726
  112OSM   H16T11621   4.145   2.563   9.241  2.0989  1.8841  0.7245
  112OSM   C17S11622   3.996   2.693   9.136 -0.2498 -0.1749 -0.4985
  112OSM   H17S11623   4.081   2.761   9.112 -0.5517  1.3449  2.2159
  112OSM   H17T11624   3.911   2.754   9.174 -0.1584 -0.8351  0.8369
  112OSM   C18S11625   3.947   2.622   9.008 -0.0316  0.7307  0.4423
  112OSM   H18S11626   3.862   2.672   8.957 -1.7315 -1.1174  1.3034
  112OSM   H18T11627   3.905   2.526   9.045 -2.5333  2.2689  1.9217
  112OSM   H18U11628   4.038   2.600   8.949 -0.6680 -2.1818  0.4094
  112OSM    C1F11629   3.465   2.599  10.213  0.3437  0.1972 -1.0125
  112OSM     OF11630   3.425   2.711  10.186 -0.3905  0.4120 -0.1074
  112OSM    C2F11631   3.444   2.491  10.120 -0.4010  0.5256 -0.4061
  112OSM    H2F11632   3.384   2.414  10.173  0.0454 -2.4487 -3.8458
  112OSM    H2G11633   3.545   2.453  10.093 -0.7649  0.0411 -1.1264
  112OSM    C3F11634   3.369   2.533   9.998 -0.0087  0.7421  0.5922
  112OSM    H3F11635   3.431   2.611   9.949 -1.7555  1.3398 -0.7700
  112OSM    H3G11636   3.278   2.584  10.035 -1.1654 -1.5082  1.0733
  112OSM    C4F11637   3.322   2.428   9.899 -0.4996  0.5115  0.2838
  112OSM    H4F11638   3.230   2.381   9.941 -0.8450 -0.1219 -1.1101
  112OSM    H4G11639   3.393   2.344   9.883  0.4822  0.7211  3.0811
  112OSM    C5F11640   3.293   2.483   9.761 -0.1892 -0.5847  0.5889
  112OSM    H5F11641   3.395   2.512   9.726 -0.5699 -0.9500 -0.9028
  112OSM    H5G11642   3.238   2.578   9.781 -0.4761 -0.8958  1.3198
  112OSM    C6F11643   3.229   2.394   9.661  0.3940 -0.2410 -0.1069
  112OSM    H6F11644   3.135   2.362   9.709  1.4419 -0.4874  1.8867
  112OSM    H6G11645   3.278   2.297   9.635 -1.5141 -0.8362 -1.7000
  112OSM    C7F11646   3.193   2.454   9.524 -0.2113  0.4064  0.7965
  112OSM    H7F11647   3.280   2.503   9.477  0.5599 -1.6543 -0.0614
  112OSM    H7G11648   3.120   2.536   9.541 -1.6872  0.0028 -2.7929
  112OSM    C8F11649   3.132   2.356   9.420  0.4270 -0.3514  0.3077
  112OSM    H8F11650   3.080   2.411   9.337  1.9204 -0.1665 -0.5443
  112OSM    H8G11651   3.050   2.308   9.477  1.2184 -4.3606 -1.5450
  112OSM    C9F11652   3.215   2.248   9.355 -0.1888  0.5913  0.0161
  112OSM    H9F11653   3.303   2.220   9.415 -1.3501  1.5835  2.3164
  112OSM   C10F11654   3.207   2.203   9.229  0.7226 -0.0769  0.6328
  112OSM   H10F11655   3.280   2.124   9.204 -0.0134 -0.4801 -0.2931
  112OSM   C11F11656   3.107   2.240   9.118  0.5946 -0.0706 -0.0627
  112OSM   H11F11657   3.034   2.322   9.135 -1.0251 -1.9711  3.1834
  112OSM   H11G11658   3.036   2.156   9.102 -0.1549  0.4493  0.4372
  112OSM   C12F11659   3.189   2.271   8.992  0.1739  0.8622  0.1021
  112OSM   H12F11660   3.252   2.183   8.968 -0.1830 -0.3729  3.1599
  112OSM   H12G11661   3.261   2.354   9.009 -1.4789  2.5733 -0.9374
  112OSM   C13F11662   3.099   2.311   8.879  0.3003 -0.1985  0.2238
  112OSM   H13F11663   3.059   2.411   8.908  0.4660  0.5969 -2.0846
  112OSM   H13G11664   3.006   2.251   8.891 -0.8361  1.6980  1.6145
  112OSM   C14F11665   3.159   2.296   8.744  0.3506  0.1220  0.4596
  112OSM   H14F11666   3.202   2.195   8.731 -0.0004 -0.0016  0.2303
  112OSM   H14G11667   3.238   2.374   8.742  0.3354  0.1363  0.3953
  112OSM   C15F11668   3.059   2.316   8.628  0.4339 -0.3296  0.2093
  112OSM   H15F11669   3.024   2.421   8.615 -1.9117 -1.1335 -0.4147
  112OSM   H15G11670   2.971   2.257   8.661  0.9380 -0.3724  1.5450
  112OSM   C16F11671   3.102   2.266   8.489 -0.7826 -0.0659 -0.8496
  112OSM   H16F11672   3.162   2.173   8.495 -2.2670 -1.0005  0.3319
  112OSM   H16G11673   3.161   2.345   8.437 -1.0660  1.5264  1.1317
  112OSM   C17F11674   2.976   2.239   8.408 -0.5366  0.0279 -0.0431
  112OSM   H17F11675   2.914   2.327   8.381 -1.4008 -1.4189 -3.2838
  112OSM   H17G11676   2.909   2.185   8.479  0.1865 -1.4095 -0.4142
  112OSM   C18F11677   3.002   2.144   8.295 -0.2094  0.2044 -0.1417
  112OSM   H18F11678   3.072   2.205   8.234 -1.1252  0.2411 -1.1758
  112OSM   H18G11679   2.911   2.131   8.233  0.3347  0.6376 -1.0478
  112OSM   H18H11680   3.063   2.053   8.316 -0.3314 -0.3882 -2.1669
  113OSM      N11681   4.743   2.351  11.056  0.3586 -0.1301 -0.5196
  113OSM    C1511682   4.594   2.367  11.097  0.5363  0.5704 -0.0410
  113OSM   H15A11683   4.555   2.466  11.080  0.5602  0.3450 -1.5030
  113OSM   H15B11684   4.572   2.345  11.200  1.0147 -2.6555 -0.5252
  113OSM   H15C11685   4.538   2.296  11.037  2.3609 -1.0125  0.0041
  113OSM    C1411686   4.770   2.415  10.923  0.7444  0.4926 -0.6004
  113OSM   H14A11687   4.729   2.352  10.846  1.9524 -1.8252  0.5495
  113OSM   H14B11688   4.876   2.428  10.906  0.9613 -0.8672 -0.3646
  113OSM   H14C11689   4.726   2.513  10.911  0.2401  0.2807 -0.4751
  113OSM    C1311690   4.827   2.415  11.157  0.4172 -0.2038 -0.2915
  113OSM   H13A11691   4.801   2.520  11.155 -0.2988 -0.3596  0.1177
  113OSM   H13B11692   4.931   2.404  11.134  0.8230 -2.9017  2.2759
  113OSM   H13C11693   4.803   2.382  11.258 -0.5553 -0.1865 -0.5033
  113OSM    C1211694   4.782   2.205  11.047 -0.1527  0.3757 -0.8059
  113OSM   H12A11695   4.775   2.168  11.149  2.1687  0.4686 -0.5596
  113OSM   H12B11696   4.885   2.186  11.023  0.2607  0.0117  1.0601
  113OSM    C1111697   4.700   2.117  10.949 -0.6290  0.2919  0.0422
  113OSM   H11A11698   4.700   2.159  10.846 -0.7380 -2.4189 -1.1565
  113OSM   H11B11699   4.594   2.104  10.979 -0.2574 -0.2220  1.2202
  113OSM      P11700   4.703   1.855  10.947  0.3016 -0.2469  0.1708
  113OSM    O1311701   4.810   1.758  10.936 -0.3030  0.1778  0.1432
  113OSM    O1411702   4.619   1.845  11.062  0.3792  0.1954  0.4250
  113OSM    O1111703   4.620   1.848  10.815  0.2017 -0.3227  0.4074
  113OSM    O1211704   4.769   1.998  10.942  0.2150  0.2478 -0.3834
  113OSM    C1S11705   4.660   1.906  10.690  0.6260  0.3873 -0.1917
  113OSM    H1S11706   4.770   1.891  10.679  0.6666  0.0045  0.6506
  113OSM    H1T11707   4.643   2.016  10.691  0.6541  0.3961  0.8609
  113OSM     NF11708   4.632   1.910  10.454  0.4752  0.3557  0.4319
  113OSM    HNF11709   4.558   1.965  10.417 -0.4172 -0.9597  0.1888
  113OSM    C2S11710   4.588   1.839  10.569  0.1845  0.9867  0.2018
  113OSM    H2S11711   4.626   1.734  10.571  0.7888  1.1440  3.2963
  113OSM    C3S11712   4.432   1.835  10.597  0.2908  0.5249  0.6789
  113OSM    H3S11713   4.389   1.936  10.615 -1.4174 -0.4054  2.1252
  113OSM     O311714   4.396   1.776  10.717 -0.0026  0.2548 -0.2033
  113OSM    HO311715   4.478   1.782  10.767  0.3662 -1.4093 -0.5587
  113OSM    C4S11716   4.364   1.769  10.486  0.2824 -0.6128  0.3544
  113OSM    H4S11717   4.420   1.692  10.431 -0.3451  0.7448 -2.3592
  113OSM    C5S11718   4.249   1.813  10.431  0.4864  0.0508 -0.2066
  113OSM    H5S11719   4.202   1.910  10.453 -3.0764 -1.2124 -1.4744
  113OSM    C6S11720   4.181   1.747  10.316  0.5465  0.0544  0.7903
  113OSM    H6S11721   4.074   1.728  10.341  0.2823  3.1324  2.5551
  113OSM    H6T11722   4.226   1.651  10.283  0.6500  1.1134 -2.5326
  113OSM    C7S11723   4.184   1.819  10.174  0.9862  0.2652  0.5665
  113OSM    H7S11724   4.288   1.818  10.135  0.2326  1.4887 -1.6598
  113OSM    H7T11725   4.148   1.924  10.174  1.6270  0.4988  1.5642
  113OSM    C8S11726   4.104   1.749  10.062 -0.0870  0.2447  0.3864
  113OSM    H8S11727   4.147   1.649  10.042 -0.4569  0.6864 -3.4527
  113OSM    H8T11728   4.138   1.809   9.975  0.8285 -1.6954 -0.6624
  113OSM    C9S11729   3.953   1.727  10.082  0.0352  0.8482  0.2050
  113OSM    H9S11730   3.907   1.824  10.109  2.0617  2.2285 -0.9977
  113OSM    H9T11731   3.935   1.651  10.161 -0.2574 -0.8185 -1.4001
  113OSM   C10S11732   3.893   1.648   9.971 -0.8247 -0.2802 -0.1407
  113OSM   H10S11733   3.923   1.542   9.988 -0.2257 -0.1267 -0.2428
  113OSM   H10T11734   3.922   1.683   9.870  1.8255  0.2717  0.7292
  113OSM   C11S11735   3.741   1.632   9.984 -0.6152 -0.8326  0.5219
  113OSM   H11S11736   3.695   1.733   9.985  0.3979 -0.3582  0.6240
  113OSM   H11T11737   3.713   1.586  10.081 -0.1935  1.4925  1.8373
  113OSM   C12S11738   3.687   1.538   9.874  0.4886 -0.4364  0.3078
  113OSM   H12S11739   3.681   1.435   9.916 -0.7272 -0.8190 -0.7343
  113OSM   H12T11740   3.766   1.534   9.796  1.4345  0.0396  1.2165
  113OSM   C13S11741   3.559   1.588   9.814 -0.4986  0.3497 -0.1187
  113OSM   H13S11742   3.562   1.697   9.794 -4.1477  0.1667 -2.4265
  113OSM   H13T11743   3.475   1.564   9.882  0.4701 -0.9310  0.6786
  113OSM   C14S11744   3.522   1.522   9.679 -0.1114  0.3179 -0.0210
  113OSM   H14S11745   3.499   1.414   9.695  4.0934 -0.8315 -0.3432
  113OSM   H14T11746   3.619   1.524   9.623 -1.0975 -2.9792 -2.1486
  113OSM   C15S11747   3.413   1.590   9.599 -0.6522 -0.5318 -0.3196
  113OSM   H15S11748   3.450   1.675   9.538 -0.9766 -0.1941 -0.0531
  113OSM   H15T11749   3.335   1.640   9.661  0.7255  2.3104 -0.7013
  113OSM   C16S11750   3.347   1.491   9.497 -0.7419  0.9862 -0.1349
  113OSM   H16S11751   3.258   1.549   9.463 -2.8884 -1.7299  0.5660
  113OSM   H16T11752   3.303   1.402   9.547 -1.0792 -0.7275 -3.2425
  113OSM   C17S11753   3.450   1.438   9.389  0.1589 -0.1801 -0.2660
  113OSM   H17S11754   3.536   1.392   9.443  2.2627  0.8827 -2.5066
  113OSM   H17T11755   3.476   1.525   9.325  1.6880 -0.4106 -0.0065
  113OSM   C18S11756   3.384   1.325   9.304 -0.0461 -0.0755  0.2256
  113OSM   H18S11757   3.445   1.282   9.221 -0.6856 -1.2698  0.3462
  113OSM   H18T11758   3.284   1.357   9.267 -0.1327  0.8069  1.1920
  113OSM   H18U11759   3.382   1.231   9.363 -0.4034 -0.9297 -1.0909
  113OSM    C1F11760   4.761   1.931  10.422  0.1565 -0.7555  0.0008
  113OSM     OF11761   4.839   1.834  10.448  0.5636 -0.1551 -0.5184
  113OSM    C2F11762   4.803   2.059  10.352 -0.0925 -0.5302 -0.0133
  113OSM    H2F11763   4.856   2.121  10.428 -2.1195  2.1498 -0.6192
  113OSM    H2G11764   4.719   2.129  10.330 -0.6481 -1.1837 -0.0100
  113OSM    C3F11765   4.895   2.031  10.234  0.5607  0.3918 -0.0289
  113OSM    H3F11766   4.844   1.972  10.155  0.8696  1.2037 -0.8421
  113OSM    H3G11767   4.984   1.971  10.264  0.0869 -0.3877 -0.1515
  113OSM    C4F11768   4.926   2.167  10.169 -0.6080  0.4073 -0.6337
  113OSM    H4F11769   4.962   2.231  10.253  1.2307  0.4267 -1.3914
  113OSM    H4G11770   4.831   2.209  10.128  0.4318  1.8509 -1.6771
  113OSM    C5F11771   5.024   2.149  10.050 -0.2048 -0.0339 -0.4456
  113OSM    H5F11772   4.975   2.081   9.977 -0.3876 -0.1126 -0.2512
  113OSM    H5G11773   5.125   2.120  10.088  0.5530  1.1779 -1.4774
  113OSM    C6F11774   5.063   2.282   9.979  0.1296  0.1754 -0.3603
  113OSM    H6F11775   5.095   2.355  10.057 -1.4696  1.2699 -0.6842
  113OSM    H6G11776   4.972   2.320   9.929  1.7818  2.0957 -2.1148
  113OSM    C7F11777   5.171   2.258   9.866  0.4934  0.6365  0.0201
  113OSM    H7F11778   5.145   2.185   9.787 -1.4008  0.1775  1.0309
  113OSM    H7G11779   5.264   2.220   9.914 -0.2281 -1.4182 -0.1571
  113OSM    C8F11780   5.215   2.392   9.799 -0.4897  0.0327 -0.1926
  113OSM    H8F11781   5.308   2.383   9.738 -0.3757  0.6408 -0.1193
  113OSM    H8G11782   5.249   2.456   9.883 -2.5642 -0.2534  0.9156
  113OSM    C9F11783   5.114   2.466   9.710  0.0884 -0.7419  0.3438
  113OSM    H9F11784   5.019   2.479   9.763  0.2512 -1.0150  0.7061
  113OSM   C10F11785   5.137   2.511   9.583  0.4625  0.3615  0.1372
  113OSM   H10F11786   5.058   2.574   9.539 -0.2228 -1.2441 -1.0010
  113OSM   C11F11787   5.262   2.499   9.501  0.1210  0.5203  0.2112
  113OSM   H11F11788   5.352   2.501   9.566  0.8203 -2.4742 -0.5028
  113OSM   H11G11789   5.262   2.581   9.426 -1.3722 -0.2068 -0.6314
  113OSM   C12F11790   5.276   2.368   9.428 -0.4569  0.3161 -0.0457
  113OSM   H12F11791   5.195   2.345   9.355  0.7373  0.7678 -1.5657
  113OSM   H12G11792   5.278   2.290   9.507  1.1210  0.1245 -0.2503
  113OSM   C13F11793   5.404   2.371   9.347 -0.7325  0.1714  0.5635
  113OSM   H13F11794   5.498   2.403   9.396  1.0396 -2.1340 -1.0894
  113OSM   H13G11795   5.402   2.450   9.269 -1.2430  1.3013  1.6930
  113OSM   C14F11796   5.428   2.240   9.280 -0.3838 -0.2192 -0.3440
  113OSM   H14F11797   5.341   2.209   9.219  0.9122  1.6258 -3.3305
  113OSM   H14G11798   5.418   2.165   9.362 -1.9572  1.3553  0.9860
  113OSM   C15F11799   5.567   2.227   9.218  0.3726  0.1859 -0.2935
  113OSM   H15F11800   5.590   2.125   9.181  1.4118 -0.8416  2.8463
  113OSM   H15G11801   5.648   2.260   9.287 -0.3135 -0.7340  0.9847
  113OSM   C16F11802   5.573   2.326   9.102 -0.4149 -0.0491 -0.3617
  113OSM   H16F11803   5.585   2.426   9.150  3.4410  0.1027 -1.3641
  113OSM   H16G11804   5.478   2.330   9.044 -0.1872  1.8385 -0.6718
  113OSM   C17F11805   5.699   2.297   9.015 -0.1076  0.2848 -0.0289
  113OSM   H17F11806   5.709   2.384   8.947  1.7028  0.2065  0.0881
  113OSM   H17G11807   5.687   2.199   8.963  0.8787  0.2126 -0.1465
  113OSM   C18F11808   5.833   2.286   9.089  0.4233  0.1185 -0.0751
  113OSM   H18F11809   5.919   2.275   9.019  1.5753 -0.6913  1.4046
  113OSM   H18G11810   5.839   2.191   9.146 -0.7332 -1.3270 -2.2413
  113OSM   H18H11811   5.862   2.373   9.152  0.9439  1.6561 -2.3092
  114OSM      N11812   3.763   1.686  11.472  0.4949 -0.0637 -0.4914
  114OSM    C1511813   3.885   1.700  11.561  0.5732 -0.3542 -0.2670
  114OSM   H15A11814   3.966   1.744  11.504  1.4642  1.6711  2.3358
  114OSM   H15B11815   3.922   1.603  11.590 -2.0623 -2.7029 -3.9525
  114OSM   H15C11816   3.863   1.758  11.650 -0.8087  1.1800 -1.5533
  114OSM    C1411817   3.648   1.655  11.558  0.1694 -0.0668 -0.1953
  114OSM   H14A11818   3.562   1.649  11.493 -1.6125  3.3609  1.5781
  114OSM   H14B11819   3.625   1.739  11.622 -1.0795 -0.6868  0.1976
  114OSM   H14C11820   3.659   1.568  11.621 -1.9580 -0.7519 -0.6920
  114OSM    C1311821   3.738   1.817  11.405 -0.1199  0.2971 -0.5573
  114OSM   H13A11822   3.703   1.892  11.474 -1.2439  0.1624 -0.9441
  114OSM   H13B11823   3.665   1.804  11.326 -1.2121 -1.0314  0.6227
  114OSM   H13C11824   3.835   1.849  11.370  1.2431 -1.9033  0.9611
  114OSM    C1211825   3.777   1.577  11.379  0.0510 -0.3815  0.2707
  114OSM   H12A11826   3.683   1.571  11.327 -1.6992  0.2225  3.1374
  114OSM   H12B11827   3.778   1.483  11.433 -0.0453  0.0658  1.0606
  114OSM    C1111828   3.897   1.579  11.280  0.2754 -0.9128  0.1058
  114OSM   H11A11829   3.883   1.678  11.232 -2.9542 -0.8162  0.9926
  114OSM   H11B11830   3.887   1.500  11.202 -0.0656  0.7359 -1.5710
  114OSM      P11831   4.103   1.441  11.364  0.2956  0.1772  0.2939
  114OSM    O1311832   4.239   1.472  11.417  0.7248 -0.5054 -0.6073
  114OSM    O1411833   4.024   1.338  11.438  0.0055 -0.4038 -0.3372
  114OSM    O1111834   4.116   1.390  11.223 -0.8708 -0.1770  0.2884
  114OSM    O1211835   4.020   1.578  11.350 -0.0558  0.3949  0.1759
  114OSM    C1S11836   4.187   1.455  11.113  0.2932 -0.0436  0.5079
  114OSM    H1S11837   4.272   1.518  11.146 -0.1094 -0.6946  2.9807
  114OSM    H1T11838   4.111   1.513  11.056  0.5469 -0.6279 -0.4434
  114OSM     NF11839   4.327   1.390  10.915 -0.5052 -0.0419  0.1860
  114OSM    HNF11840   4.323   1.346  10.825  0.4711  1.7511 -0.8064
  114OSM    C2S11841   4.229   1.348  11.011  0.2663  0.1563  0.2269
  114OSM    H2S11842   4.287   1.282  11.079 -1.9770  0.9981  3.1420
  114OSM    C3S11843   4.101   1.283  10.952  0.5758  0.3489 -0.6713
  114OSM    H3S11844   4.030   1.352  10.901  0.2240  0.1491 -0.4562
  114OSM     O311845   4.029   1.213  11.051 -0.0659 -0.2023  0.3171
  114OSM    HO311846   4.050   1.263  11.130 -0.4227  1.1473 -0.4148
  114OSM    C4S11847   4.143   1.188  10.843 -0.1110 -0.4184 -0.5873
  114OSM    H4S11848   4.214   1.112  10.878  0.8462  1.1515  1.0615
  114OSM    C5S11849   4.104   1.193  10.719  0.1825 -0.1393  0.0240
  114OSM    H5S11850   4.042   1.273  10.675  0.3716 -0.3238 -0.5769
  114OSM    C6S11851   4.153   1.096  10.609 -0.1849 -0.7929  0.1527
  114OSM    H6S11852   4.093   1.002  10.605  0.0940 -0.9860  0.4986
  114OSM    H6T11853   4.253   1.055  10.635 -0.2277 -0.4505  0.9024
  114OSM    C7S11854   4.176   1.159  10.463 -0.4985 -0.5567  0.1699
  114OSM    H7S11855   4.248   1.243  10.468 -2.2659  0.9953  0.9614
  114OSM    H7T11856   4.075   1.174  10.420  0.0957 -1.5249 -1.6454
  114OSM    C8S11857   4.236   1.043  10.375  0.1219  0.1852 -0.1356
  114OSM    H8S11858   4.187   0.950  10.410 -0.5114  0.6628  0.2743
  114OSM    H8T11859   4.345   1.030  10.392  0.0160 -0.5929 -0.0115
  114OSM    C9S11860   4.192   1.053  10.232 -0.5001  0.3013 -0.5978
  114OSM    H9S11861   4.082   1.053  10.223 -0.3979 -1.5795 -2.4531
  114OSM    H9T11862   4.236   0.977  10.164 -1.2305  0.1138 -0.8664
  114OSM   C10S11863   4.232   1.193  10.157 -0.2870 -0.2774 -0.5596
  114OSM   H10S11864   4.343   1.198  10.156 -0.3054  0.1823 -0.5561
  114OSM   H10T11865   4.192   1.274  10.221  1.4857  0.5737 -0.4410
  114OSM   C11S11866   4.169   1.219  10.016 -0.2988 -0.0263  0.1312
  114OSM   H11S11867   4.061   1.192  10.021 -0.1860 -0.7107 -0.7871
  114OSM   H11T11868   4.221   1.150   9.947  0.7875  1.2464 -0.3589
  114OSM   C12S11869   4.203   1.356   9.953 -0.2733  0.8160 -0.8301
  114OSM   H12S11870   4.313   1.369   9.960 -0.3872  1.2114  0.7031
  114OSM   H12T11871   4.167   1.439  10.017  0.7581 -0.4544  1.5391
  114OSM   C13S11872   4.148   1.348   9.815  0.5109  0.4314  0.4380
  114OSM   H13S11873   4.041   1.379   9.811  0.0014 -1.3059 -0.3494
  114OSM   H13T11874   4.163   1.249   9.766  0.5410  0.3700  0.5708
  114OSM   C14S11875   4.233   1.438   9.717 -0.0906 -0.1136 -0.3593
  114OSM   H14S11876   4.198   1.403   9.617  1.2783  0.1681 -0.9603
  114OSM   H14T11877   4.340   1.420   9.737 -0.3254 -1.2473 -0.0581
  114OSM   C15S11878   4.197   1.588   9.733 -0.4967 -0.1959  0.1708
  114OSM   H15S11879   4.233   1.614   9.835 -2.6425  3.0300  0.2434
  114OSM   H15T11880   4.087   1.598   9.744 -0.6424  0.3587 -1.4867
  114OSM   C16S11881   4.256   1.671   9.617 -0.2699  0.7880  0.5493
  114OSM   H16S11882   4.356   1.632   9.589 -0.6999  1.9383 -3.0805
  114OSM   H16T11883   4.275   1.774   9.654  1.1560  0.9764 -0.6022
  114OSM   C17S11884   4.177   1.674   9.486  0.1981  0.0897 -0.0123
  114OSM   H17S11885   4.085   1.725   9.521  1.8713  1.5809  2.5472
  114OSM   H17T11886   4.157   1.567   9.463 -0.8023 -0.5300  3.2854
  114OSM   C18S11887   4.242   1.749   9.373 -0.6612  0.6085 -0.2234
  114OSM   H18S11888   4.174   1.813   9.313 -0.0023 -0.0508 -1.7161
  114OSM   H18T11889   4.297   1.683   9.304 -2.2050 -1.3838  0.3465
  114OSM   H18U11890   4.317   1.814   9.424 -0.1255  0.9174 -1.3760
  114OSM    C1F11891   4.448   1.445  10.942 -0.3269  0.9278  0.4947
  114OSM     OF11892   4.480   1.484  11.053 -0.2160  0.0389  0.4521
  114OSM    C2F11893   4.542   1.444  10.830  0.8865 -0.3872  0.4216
  114OSM    H2F11894   4.638   1.403  10.870  0.4299 -0.8924  1.0196
  114OSM    H2G11895   4.564   1.546  10.792 -0.4782 -0.5811 -0.9599
  114OSM    C3F11896   4.479   1.372  10.699  0.4346  0.4598 -0.4417
  114OSM    H3F11897   4.384   1.415  10.661  0.6070  1.6609  0.4541
  114OSM    H3G11898   4.451   1.267  10.724 -0.6825  0.0561 -2.9541
  114OSM    C4F11899   4.583   1.367  10.586 -0.1379  0.2686 -0.2105
  114OSM    H4F11900   4.662   1.298  10.623  1.3599  2.3738  0.7207
  114OSM    H4G11901   4.631   1.464  10.564  0.1345  0.4478  1.0848
  114OSM    C5F11902   4.521   1.313  10.458 -0.1611  0.1435  0.2264
  114OSM    H5F11903   4.446   1.384  10.418  1.1944  0.8022 -1.2259
  114OSM    H5G11904   4.470   1.215  10.474  1.0524 -0.8330 -1.5414
  114OSM    C6F11905   4.634   1.283  10.350  0.2296  0.0547  0.5740
  114OSM    H6F11906   4.593   1.240  10.256  3.0798 -0.9766 -0.2803
  114OSM    H6G11907   4.711   1.210  10.383  1.2909  0.2606 -1.3343
  114OSM    C7F11908   4.721   1.410  10.310  0.1004  0.9542 -0.0882
  114OSM    H7F11909   4.802   1.385  10.239 -0.0407  1.1579 -0.3219
  114OSM    H7G11910   4.763   1.436  10.409 -3.4995 -2.1868  2.5890
  114OSM    C8F11911   4.642   1.526  10.257 -0.2678 -0.0159 -0.0774
  114OSM    H8F11912   4.709   1.615  10.259  2.1598 -1.7046 -1.1264
  114OSM    H8G11913   4.560   1.555  10.324 -1.6078 -0.7825 -1.3201
  114OSM    C9F11914   4.589   1.497  10.116  0.0034 -0.1452  0.6231
  114OSM    H9F11915   4.579   1.393  10.081  1.2979 -0.7908  2.0449
  114OSM   C10F11916   4.555   1.598  10.030  0.5183  0.1917 -0.2005
  114OSM   H10F11917   4.499   1.575   9.938 -0.9136 -1.2880  1.0046
  114OSM   C11F11918   4.566   1.750  10.071 -0.3836  0.5334 -0.1383
  114OSM   H11F11919   4.670   1.782  10.093  0.6449 -1.3024 -1.9052
  114OSM   H11G11920   4.500   1.775  10.156 -0.3678  1.6229 -0.4341
  114OSM   C12F11921   4.519   1.846   9.968  1.8332  0.0986  0.6951
  114OSM   H12F11922   4.474   1.935  10.017 -2.2246 -1.5659  0.4488
  114OSM   H12G11923   4.441   1.807   9.899  3.2813  0.4359 -1.2061
  114OSM   C13F11924   4.631   1.908   9.878 -0.2848  0.1051  0.8305
  114OSM   H13F11925   4.678   1.820   9.830 -2.2330 -0.0304 -0.9882
  114OSM   H13G11926   4.707   1.946   9.949  1.0096 -1.3424  0.2784
  114OSM   C14F11927   4.594   2.013   9.772  0.7954  0.1049 -0.5961
  114OSM   H14F11928   4.534   2.091   9.824  0.9485 -1.8763  2.8876
  114OSM   H14G11929   4.528   1.957   9.703 -2.7343 -0.2932  2.7978
  114OSM   C15F11930   4.723   2.074   9.714  0.3130  0.0201 -0.3013
  114OSM   H15F11931   4.772   1.996   9.651 -1.6736 -1.0075 -0.6587
  114OSM   H15G11932   4.793   2.115   9.790  0.2198  0.8084 -0.6310
  114OSM   C16F11933   4.693   2.191   9.613  0.5957  1.0080 -0.3520
  114OSM   H16F11934   4.627   2.263   9.666  1.7381  1.7457  0.1007
  114OSM   H16G11935   4.634   2.138   9.534  0.1679  0.2594  0.4519
  114OSM   C17F11936   4.822   2.256   9.569 -0.1343 -0.0153  1.0268
  114OSM   H17F11937   4.902   2.180   9.575  0.2198  0.2582 -0.0487
  114OSM   H17G11938   4.842   2.340   9.639  1.1044 -0.5158  1.2899
  114OSM   C18F11939   4.807   2.292   9.420  0.2514 -0.4156  0.0804
  114OSM   H18F11940   4.725   2.366   9.419 -0.6669 -1.4046 -0.9057
  114OSM   H18G11941   4.781   2.205   9.356 -2.0032 -0.4946  1.0105
  114OSM   H18H11942   4.902   2.346   9.400  0.2388 -0.4841 -0.1679
  115OSM      N11943   0.520   3.627   5.817 -0.1788  0.2892 -0.2651
  115OSM    C1511944   0.617   3.736   5.785 -0.3305  0.0652  0.2475
  115OSM   H15A11945   0.611   3.765   5.681 -0.1166 -0.8248 -0.0254
  115OSM   H15B11946   0.720   3.714   5.808  0.0247 -0.4875 -1.7230
  115OSM   H15C11947   0.582   3.818   5.845 -1.5405 -0.1878 -0.0803
  115OSM    C1411948   0.383   3.684   5.785  0.0221  0.0439 -0.2685
  115OSM   H14A11949   0.316   3.600   5.790  1.5485 -1.1641  1.8313
  115OSM   H14B11950   0.393   3.726   5.687 -0.8691  1.0235  0.0428
  115OSM   H14C11951   0.354   3.755   5.861  1.8905  0.7185 -0.1307
  115OSM    C1311952   0.539   3.507   5.730 -0.7307  0.2166 -0.1008
  115OSM   H13A11953   0.469   3.428   5.751  0.4256 -0.8020  0.0807
  115OSM   H13B11954   0.631   3.450   5.737 -0.0330  1.4106  0.8520
  115OSM   H13C11955   0.527   3.532   5.625  0.6206 -1.5124 -0.7223
  115OSM    C1211956   0.520   3.578   5.962  0.7411 -0.9267 -0.3653
  115OSM   H12A11957   0.612   3.529   5.989 -0.0922 -1.2382  2.0823
  115OSM   H12B11958   0.449   3.497   5.969 -0.4423  0.2636  2.8934
  115OSM    C1111959   0.487   3.688   6.068 -0.7895 -0.2957  0.3596
  115OSM   H11A11960   0.448   3.648   6.164  0.3623 -0.2968  0.8517
  115OSM   H11B11961   0.400   3.746   6.029 -1.2563 -0.4274  1.1807
  115OSM      P11962   0.699   3.744   6.193 -0.6292  0.0239 -0.3849
  115OSM    O1311963   0.827   3.778   6.142  0.1929  0.6543  0.6648
  115OSM    O1411964   0.644   3.802   6.317 -1.0555 -0.0451  0.5787
  115OSM    O1111965   0.690   3.582   6.207  0.4177  0.0231  0.4727
  115OSM    O1211966   0.597   3.778   6.077 -0.3967 -0.5790  0.4702
  115OSM    C1S11967   0.790   3.514   6.290  0.2009 -0.2361  0.1459
  115OSM    H1S11968   0.881   3.574   6.310  0.2788 -0.6153  0.9535
  115OSM    H1T11969   0.816   3.423   6.232  0.0084 -0.6812  0.7463
  115OSM     NF11970   0.822   3.408   6.518 -0.8596 -0.5511 -0.1881
  115OSM    HNF11971   0.816   3.314   6.549  0.4014 -0.6649 -0.2053
  115OSM    C2S11972   0.723   3.459   6.417 -0.1310 -1.1260 -0.5924
  115OSM    H2S11973   0.664   3.542   6.461  1.8376 -0.4649  0.9624
  115OSM    C3S11974   0.624   3.341   6.377  0.3776 -0.1939  0.0913
  115OSM    H3S11975   0.683   3.260   6.330  0.7358 -0.2906  0.6874
  115OSM     O311976   0.521   3.384   6.290  0.1836 -0.2050 -0.2316
  115OSM    HO311977   0.559   3.465   6.255  0.3707  1.9256  4.1654
  115OSM    C4S11978   0.565   3.271   6.505 -0.3603 -0.3281  0.5734
  115OSM    H4S11979   0.607   3.169   6.506  0.1990 -0.0951  0.9819
  115OSM    C5S11980   0.488   3.312   6.604 -0.1447  0.3531 -1.1817
  115OSM    H5S11981   0.444   3.413   6.608  0.6146  0.6679  1.2670
  115OSM    C6S11982   0.457   3.222   6.724 -0.0704  0.6434 -0.1922
  115OSM    H6S11983   0.422   3.122   6.691  1.8753  0.4409 -1.7660
  115OSM    H6T11984   0.366   3.257   6.778  0.5818  0.4862  1.0530
  115OSM    C7S11985   0.569   3.208   6.828 -0.3606 -0.1945 -0.0515
  115OSM    H7S11986   0.608   3.305   6.866 -0.6869 -0.9192  2.2816
  115OSM    H7T11987   0.657   3.171   6.771 -0.0761  1.1589 -0.5208
  115OSM    C8S11988   0.544   3.121   6.947 -0.2789  0.1685 -0.2984
  115OSM    H8S11989   0.607   3.030   6.945 -0.6548 -0.1279  0.9474
  115OSM    H8T11990   0.440   3.082   6.940  0.1678 -1.2922  0.8316
  115OSM    C9S11991   0.557   3.184   7.080  0.4235  0.7519  0.2487
  115OSM    H9S11992   0.490   3.272   7.077  1.5213  1.6817  1.4833
  115OSM    H9T11993   0.666   3.209   7.079  0.6019  0.0291 -1.0584
  115OSM   C10S11994   0.532   3.081   7.199  0.4493 -0.3029  0.0947
  115OSM   H10S11995   0.575   2.980   7.184  0.2382 -0.6033  1.3911
  115OSM   H10T11996   0.425   3.066   7.225  0.6677 -0.5997  0.8331
  115OSM   C11S11997   0.601   3.135   7.322  0.4065  0.3019  0.4213
  115OSM   H11S11998   0.712   3.135   7.311  0.4234  0.2909  0.5854
  115OSM   H11T11999   0.582   3.067   7.408  1.7203 -0.1287  0.4056
  115OSM   C12S12000   0.549   3.274   7.360  0.2413  0.3041  0.1681
  115OSM   H12S12001   0.443   3.289   7.332  1.2375  2.4295 -3.1072
  115OSM   H12T12002   0.605   3.349   7.300  0.1935  1.6244  1.7014
  115OSM   C13S12003   0.580   3.292   7.510  0.3149  0.5351  0.4581
  115OSM   H13S12004   0.684   3.319   7.536  0.6577 -1.0517  0.8456
  115OSM   H13T12005   0.556   3.205   7.575 -3.1074  0.3168 -0.8747
  115OSM   C14S12006   0.477   3.398   7.575 -0.0266 -0.6591  0.2238
  115OSM   H14S12007   0.372   3.371   7.553 -0.7166  1.1143  1.1267
  115OSM   H14T12008   0.496   3.502   7.540  0.4463 -0.3667  1.3302
  115OSM   C15S12009   0.486   3.407   7.725  0.0048  0.3493  0.3671
  115OSM   H15S12010   0.583   3.453   7.755 -0.3993  0.9148  0.8473
  115OSM   H15T12011   0.481   3.305   7.769  1.7726 -0.5264 -1.3080
  115OSM   C16S12012   0.373   3.486   7.794  0.0736  0.0873  0.7608
  115OSM   H16S12013   0.280   3.447   7.750  1.7647 -0.3394 -2.7725
  115OSM   H16T12014   0.397   3.589   7.758 -0.1684  0.4193  1.5086
  115OSM   C17S12015   0.381   3.485   7.946  0.3633 -0.8092  0.3729
  115OSM   H17S12016   0.323   3.571   7.985 -0.0154 -0.3502 -1.1088
  115OSM   H17T12017   0.491   3.493   7.960  0.9860 -1.9896 -2.8579
  115OSM   C18S12018   0.334   3.362   8.017 -0.4137  0.8582 -0.2703
  115OSM   H18S12019   0.225   3.342   8.005 -0.1766 -0.6788 -0.0369
  115OSM   H18T12020   0.366   3.371   8.123  0.1808  0.8888 -0.4494
  115OSM   H18U12021   0.379   3.265   7.987 -0.1444 -0.1018  2.8980
  115OSM    C1F12022   0.913   3.482   6.583  0.3273 -0.2640  0.5370
  115OSM     OF12023   0.931   3.598   6.549  1.3580 -0.3810 -0.1595
  115OSM    C2F12024   0.984   3.424   6.697 -0.1474  0.6743 -0.0798
  115OSM    H2F12025   1.059   3.352   6.657  1.6222  3.0773 -1.3057
  115OSM    H2G12026   0.907   3.378   6.763  2.8741 -1.7752  2.0548
  115OSM    C3F12027   1.059   3.540   6.768  0.3389  0.4590  0.7343
  115OSM    H3F12028   0.979   3.604   6.810 -1.3042 -1.2266  0.3271
  115OSM    H3G12029   1.127   3.602   6.705 -0.5690  1.4721  0.7185
  115OSM    C4F12030   1.140   3.475   6.888 -0.1308 -0.1617  0.5276
  115OSM    H4F12031   1.210   3.547   6.935  0.6360 -0.6853  0.2067
  115OSM    H4G12032   1.215   3.398   6.860  0.0920  0.8565 -1.8898
  115OSM    C5F12033   1.047   3.419   6.991  0.1170 -0.1615  0.0273
  115OSM    H5F12034   1.030   3.310   6.973  1.5766 -1.1313  3.5958
  115OSM    H5G12035   0.950   3.472   6.990 -1.1046 -2.1183  2.6583
  115OSM    C6F12036   1.104   3.433   7.130 -0.6476  0.2191  0.8635
  115OSM    H6F12037   1.111   3.542   7.150 -0.0372 -0.2406  3.5974
  115OSM    H6G12038   1.205   3.387   7.134  0.0442  1.5696 -0.3216
  115OSM    C7F12039   1.020   3.371   7.235  0.0744  1.0323 -0.4026
  115OSM    H7F12040   1.025   3.260   7.223  0.5509  1.2155 -2.2203
  115OSM    H7G12041   0.923   3.419   7.210  1.2980  2.9796 -1.6490
  115OSM    C8F12042   1.078   3.397   7.375 -0.8072  0.2611 -0.0833
  115OSM    H8F12043   1.096   3.507   7.382 -0.3505  0.0976  2.7187
  115OSM    H8G12044   1.178   3.349   7.385 -2.2588 -3.2002 -0.8595
  115OSM    C9F12045   0.978   3.354   7.484  0.5606 -0.5202  0.0173
  115OSM    H9F12046   0.895   3.423   7.505  0.5186 -0.7317  0.5769
  115OSM   C10F12047   0.989   3.251   7.572 -0.3076 -0.2649  0.5647
  115OSM   H10F12048   0.902   3.232   7.636 -0.2175  2.3632  1.5837
  115OSM   C11F12049   1.093   3.146   7.574 -0.2224  0.0205 -0.1603
  115OSM   H11F12050   1.158   3.149   7.664 -1.0017  2.7792  0.4160
  115OSM   H11G12051   1.164   3.169   7.492  1.9349 -1.1226  1.2978
  115OSM   C12F12052   1.029   3.010   7.534 -0.2724 -0.2316 -0.0792
  115OSM   H12F12053   0.934   2.989   7.587 -0.8108  0.1923 -0.8598
  115OSM   H12G12054   1.101   2.930   7.562  1.4208  1.5002  0.7223
  115OSM   C13F12055   0.989   2.998   7.380 -0.7134 -0.1728 -0.1268
  115OSM   H13F12056   1.079   3.009   7.316  2.4716 -0.6594  3.8434
  115OSM   H13G12057   0.910   3.072   7.354 -1.5275 -0.9589  0.0450
  115OSM   C14F12058   0.935   2.861   7.341 -0.9633  0.5136  0.7786
  115OSM   H14F12059   0.845   2.828   7.398 -1.1081  0.9463  0.8001
  115OSM   H14G12060   1.018   2.793   7.370 -0.4082  1.2780  1.0129
  115OSM   C15F12061   0.907   2.853   7.191 -0.0802  0.2983 -0.4001
  115OSM   H15F12062   1.005   2.856   7.138 -0.0161  1.8497 -0.2515
  115OSM   H15G12063   0.845   2.941   7.163 -1.2621 -0.4218 -0.1051
  115OSM   C16F12064   0.823   2.729   7.149  0.1038 -0.2879 -0.3811
  115OSM   H16F12065   0.732   2.726   7.212  0.0556  0.0579 -0.4336
  115OSM   H16G12066   0.895   2.646   7.164 -0.4031 -0.4245  1.5113
  115OSM   C17F12067   0.778   2.722   7.003 -0.5237  0.1523 -0.5459
  115OSM   H17F12068   0.736   2.814   6.958  0.8259  0.6119 -0.8876
  115OSM   H17G12069   0.715   2.631   6.990 -0.5865  0.2337 -0.8198
  115OSM   C18F12070   0.910   2.690   6.915  1.0463 -0.1289  0.0676
  115OSM   H18F12071   0.940   2.591   6.954 -0.2297  0.5901  3.1972
  115OSM   H18G12072   0.989   2.766   6.932  1.0837 -0.6078  2.2560
  115OSM   H18H12073   0.890   2.677   6.806 -1.7116 -0.5160  0.5361
  116OSM      N12074   6.037   1.148   6.100 -0.2646 -0.3753 -0.4161
  116OSM    C1512075   6.169   1.218   6.123 -0.0581 -0.0806 -0.1871
  116OSM   H15A12076   6.235   1.146   6.170 -1.1829 -1.2749 -0.3870
  116OSM   H15B12077   6.161   1.298   6.196  0.3607  0.8632 -1.1379
  116OSM   H15C12078   6.217   1.244   6.030  0.1421  0.4203  0.0473
  116OSM    C1412079   6.063   1.033   6.006  0.4345  0.0534 -0.0399
  116OSM   H14A12080   5.978   0.967   5.999  1.6773 -1.5200 -1.1001
  116OSM   H14B12081   6.151   0.983   6.043  2.1396  2.7398 -0.1190
  116OSM   H14C12082   6.086   1.062   5.904  1.0487  0.0040  0.0829
  116OSM    C1312083   5.992   1.112   6.240 -0.0793 -0.1236  0.3088
  116OSM   H13A12084   5.993   1.197   6.307 -0.0287  0.4735 -0.4420
  116OSM   H13B12085   6.067   1.047   6.284 -0.1908  0.9991  2.2949
  116OSM   H13C12086   5.894   1.068   6.243 -0.1425  0.0445  1.0358
  116OSM    C1212087   5.942   1.240   6.033  0.1819 -0.9602 -0.5393
  116OSM   H12A12088   5.844   1.204   6.058  0.3502 -1.0997 -0.0666
  116OSM   H12B12089   5.952   1.244   5.925  2.7510  0.5583 -0.3445
  116OSM    C1112090   5.940   1.394   6.077  0.1514  0.8163 -0.6841
  116OSM   H11A12091   5.869   1.447   6.010 -0.9640  2.7970  1.8690
  116OSM   H11B12092   6.039   1.439   6.057  0.1494  0.3247 -1.8822
  116OSM      P12093   5.760   1.404   6.269  0.1565  0.0417  0.1823
  116OSM    O1312094   5.733   1.519   6.350 -0.1127 -0.1887 -0.4351
  116OSM    O1412095   5.662   1.376   6.165  0.2852  0.6629  0.1145
  116OSM    O1112096   5.750   1.284   6.366 -0.6961  0.0690  0.5194
  116OSM    O1212097   5.905   1.408   6.214  0.5012 -0.2277 -0.1829
  116OSM    C1S12098   5.788   1.278   6.505  0.4598 -0.0612  0.5750
  116OSM    H1S12099   5.836   1.372   6.537  1.2993 -0.1491 -0.3746
  116OSM    H1T12100   5.861   1.196   6.518  0.0059 -0.5459  0.1334
  116OSM     NF12101   5.704   1.237   6.734  0.5580 -0.0921 -0.5763
  116OSM    HNF12102   5.697   1.144   6.770 -0.0836 -0.7875 -2.4205
  116OSM    C2S12103   5.658   1.253   6.600 -0.7740  0.8712  0.6729
  116OSM    H2S12104   5.597   1.345   6.587 -3.1884 -0.8897 -1.3526
  116OSM    C3S12105   5.577   1.132   6.538  0.2579 -0.2074 -0.2545
  116OSM    H3S12106   5.625   1.042   6.583 -0.4404 -0.8320 -0.7543
  116OSM     O312107   5.581   1.102   6.398 -0.2520  0.5980 -0.2248
  116OSM    HO312108   5.650   1.160   6.365 -1.0584  0.1115 -3.0232
  116OSM    C4S12109   5.435   1.132   6.583 -0.7290  0.0404  0.1899
  116OSM    H4S12110   5.380   1.219   6.543 -1.8416 -0.9289 -0.4481
  116OSM    C5S12111   5.374   1.031   6.652 -0.3085 -0.1344 -0.2852
  116OSM    H5S12112   5.429   0.943   6.688  0.5830  0.1019 -1.0307
  116OSM    C6S12113   5.237   1.029   6.710 -0.1655  0.1247  0.4740
  116OSM    H6S12114   5.170   0.967   6.647 -0.2639 -0.3211  1.0099
  116OSM    H6T12115   5.191   1.130   6.712 -1.4288 -0.2828 -2.5469
  116OSM    C7S12116   5.246   0.969   6.854  1.0596  0.1518  1.0686
  116OSM    H7S12117   5.281   0.864   6.849  0.8631  0.0515  1.7167
  116OSM    H7T12118   5.138   0.960   6.881  1.4399  1.3608  3.2376
  116OSM    C8S12119   5.338   1.048   6.946 -0.4173  0.3890  1.5744
  116OSM    H8S12120   5.292   1.147   6.966  1.5863  2.3588 -2.3261
  116OSM    H8T12121   5.434   1.068   6.893 -1.0526 -0.1705  0.1812
  116OSM    C9S12122   5.381   0.977   7.075  0.4462 -0.0586  1.0659
  116OSM    H9S12123   5.418   0.875   7.050 -0.2458  0.0641 -0.6401
  116OSM    H9T12124   5.294   0.978   7.144 -0.4132  1.8547  0.0349
  116OSM   C10S12125   5.506   1.040   7.130 -0.1440  0.4286 -0.2236
  116OSM   H10S12126   5.477   1.146   7.151  2.2369  0.7858  1.8035
  116OSM   H10T12127   5.593   1.034   7.062  1.6257 -0.2044  1.9896
  116OSM   C11S12128   5.551   0.975   7.266 -0.3070 -0.4688  0.3525
  116OSM   H11S12129   5.571   0.870   7.236 -1.7483  0.1652 -3.2688
  116OSM   H11T12130   5.475   0.981   7.347 -0.2328 -1.4964  0.5094
  116OSM   C12S12131   5.689   1.035   7.300  0.2714 -0.6002 -0.2055
  116OSM   H12S12132   5.667   1.143   7.320  3.2991  0.3418 -1.4272
  116OSM   H12T12133   5.750   1.024   7.209 -1.4842  1.7323 -1.7963
  116OSM   C13S12134   5.753   0.969   7.421  0.0412 -0.4885  0.4981
  116OSM   H13S12135   5.861   0.998   7.422  0.3233 -1.4976  0.8307
  116OSM   H13T12136   5.752   0.858   7.412  0.9215 -0.3970 -1.3493
  116OSM   C14S12137   5.676   1.021   7.545  0.1203  0.5605  0.0220
  116OSM   H14S12138   5.600   0.954   7.590 -3.7874  3.8432 -1.1827
  116OSM   H14T12139   5.616   1.111   7.522 -0.3962  0.4294  0.8121
  116OSM   C15S12140   5.774   1.078   7.648 -0.6734  1.5416 -0.1149
  116OSM   H15S12141   5.845   1.150   7.600  1.9149  0.4171  1.7866
  116OSM   H15T12142   5.841   0.994   7.676 -0.8178  1.9488  1.5780
  116OSM   C16S12143   5.721   1.140   7.781  0.6423 -0.1924  0.4344
  116OSM   H16S12144   5.633   1.080   7.814  0.6369 -0.6732 -0.4286
  116OSM   H16T12145   5.683   1.242   7.762  1.6601 -0.3112 -2.6207
  116OSM   C17S12146   5.821   1.158   7.894  0.1274  0.0057  0.7594
  116OSM   H17S12147   5.888   1.241   7.861 -0.9035  0.3721 -0.4790
  116OSM   H17T12148   5.875   1.061   7.893 -0.5249 -0.3573 -0.0972
  116OSM   C18S12149   5.760   1.206   8.022 -0.2204  0.3155 -0.1648
  116OSM   H18S12150   5.840   1.247   8.087 -1.1496  2.1756 -0.1408
  116OSM   H18T12151   5.698   1.132   8.078  1.4558  0.2522  1.7201
  116OSM   H18U12152   5.702   1.300   8.009 -0.4160  0.1362 -0.5824
  116OSM    C1F12153   5.739   1.336   6.808 -0.2338  0.3744 -0.2401
  116OSM     OF12154   5.744   1.444   6.753 -0.3729  0.8510  0.1288
  116OSM    C2F12155   5.764   1.304   6.955  1.0875 -0.1478 -0.2691
  116OSM    H2F12156   5.844   1.228   6.961  0.3538 -1.0129 -1.1412
  116OSM    H2G12157   5.668   1.257   6.987  1.3622  0.2262  1.1870
  116OSM    C3F12158   5.797   1.430   7.027 -0.7818  0.6701  0.0817
  116OSM    H3F12159   5.712   1.501   7.031 -0.4487  1.1711 -1.2873
  116OSM    H3G12160   5.880   1.474   6.967 -0.5004 -0.1947 -0.1675
  116OSM    C4F12161   5.843   1.401   7.175  1.0432  0.1753  0.9312
  116OSM    H4F12162   5.916   1.318   7.163  0.4274 -0.0746 -1.5721
  116OSM    H4G12163   5.748   1.364   7.217  1.4009 -0.7581  0.9320
  116OSM    C5F12164   5.895   1.528   7.245 -0.3902 -0.5580 -0.1884
  116OSM    H5F12165   5.823   1.611   7.228  0.1701 -0.0164  0.0705
  116OSM    H5G12166   5.996   1.548   7.203 -0.1210 -1.8086 -0.1847
  116OSM    C6F12167   5.920   1.501   7.394 -0.1070 -0.4305  0.4666
  116OSM    H6F12168   5.971   1.589   7.439 -1.0820  0.4342 -0.0773
  116OSM    H6G12169   5.994   1.419   7.411  1.2754  0.1010 -2.2950
  116OSM    C7F12170   5.799   1.472   7.486  0.0271 -0.1644  0.4037
  116OSM    H7F12171   5.761   1.371   7.459  0.1913  0.3591 -2.0331
  116OSM    H7G12172   5.725   1.549   7.459  0.0436 -0.2479  0.1166
  116OSM    C8F12173   5.839   1.473   7.631  0.2700  0.7477 -0.4374
  116OSM    H8F12174   5.909   1.389   7.650 -1.2743 -1.1122 -2.3750
  116OSM    H8G12175   5.749   1.435   7.685 -0.4358 -1.0632 -2.7103
  116OSM    C9F12176   5.879   1.600   7.692  0.2347  0.3171 -0.2686
  116OSM    H9F12177   5.853   1.687   7.629  3.2917  0.4637 -1.4711
  116OSM   C10F12178   5.956   1.624   7.802 -0.0681  0.3560 -0.0574
  116OSM   H10F12179   5.965   1.727   7.842  0.1673  0.5861 -0.6841
  116OSM   C11F12180   6.018   1.524   7.887 -0.0514  0.5530 -0.4676
  116OSM   H11F12181   6.124   1.535   7.918 -0.7717 -0.7317  2.8451
  116OSM   H11G12182   6.011   1.418   7.856  1.7973  0.7443 -1.7123
  116OSM   C12F12183   5.957   1.538   8.032 -1.4346  0.1539 -0.2485
  116OSM   H12F12184   5.964   1.436   8.075 -2.1127  0.0363 -0.4058
  116OSM   H12G12185   5.847   1.546   8.019 -1.7054  0.5589  1.9124
  116OSM   C13F12186   6.009   1.645   8.125  0.5656 -0.0164 -0.2094
  116OSM   H13F12187   6.031   1.743   8.076 -0.1623  0.7504  0.9311
  116OSM   H13G12188   6.110   1.599   8.136  0.5140 -0.6005 -2.0049
  116OSM   C14F12189   5.935   1.649   8.260 -0.4335 -0.4534  1.1410
  116OSM   H14F12190   5.913   1.546   8.296  1.0772 -1.1470  0.2225
  116OSM   H14G12191   5.834   1.687   8.234  1.0602  3.5737  0.5040
  116OSM   C15F12192   5.998   1.739   8.370  0.2191  0.1841  0.4583
  116OSM   H15F12193   5.996   1.844   8.335  1.8731 -0.4383 -1.6864
  116OSM   H15G12194   6.102   1.708   8.396  0.2362 -0.0058  0.1708
  116OSM   C16F12195   5.923   1.733   8.505  0.7248 -0.5309  0.2718
  116OSM   H16F12196   5.962   1.805   8.580  0.3744 -0.3151  0.2492
  116OSM   H16G12197   5.929   1.634   8.555  0.2912 -1.2206 -1.0079
  116OSM   C17F12198   5.773   1.750   8.494 -0.2430  0.7648  0.3790
  116OSM   H17F12199   5.735   1.689   8.409  2.4150  0.9554 -1.0439
  116OSM   H17G12200   5.763   1.857   8.466 -0.2808  1.2390  2.0680
  116OSM   C18F12201   5.699   1.717   8.627 -0.1326 -0.1724 -0.1024
  116OSM   H18F12202   5.590   1.733   8.610  0.2130 -0.2103 -2.7218
  116OSM   H18G12203   5.735   1.794   8.698  0.6736 -0.8169  0.2032
  116OSM   H18H12204   5.711   1.612   8.661 -1.0078  0.0649  1.0012
  117OSM      N12205   3.512   3.516   5.997  0.7760 -0.2777 -0.1249
  117OSM    C1512206   3.607   3.599   6.080 -0.0621  0.4823 -0.9395
  117OSM   H15A12207   3.693   3.626   6.020 -0.6002  1.2314 -1.3980
  117OSM   H15B12208   3.643   3.552   6.170  0.3514  1.2858 -0.6711
  117OSM   H15C12209   3.551   3.684   6.116 -0.6710  0.5487 -1.9985
  117OSM    C1412210   3.491   3.593   5.870  0.7072  0.3911 -0.7302
  117OSM   H14A12211   3.494   3.697   5.901  1.5676 -0.7068  3.3792
  117OSM   H14B12212   3.394   3.564   5.834 -0.1836  2.1340  0.1181
  117OSM   H14C12213   3.570   3.583   5.797  1.0111  0.0644 -0.3554
  117OSM    C1312214   3.567   3.385   5.952  0.0618 -0.1038 -0.3226
  117OSM   H13A12215   3.567   3.302   6.023 -1.4900  1.4131  1.5578
  117OSM   H13B12216   3.672   3.397   5.929  0.5847 -1.5139  1.1164
  117OSM   H13C12217   3.513   3.342   5.869 -1.2494  0.1744  0.3585
  117OSM    C1212218   3.373   3.507   6.069 -0.2729  0.3043  0.5127
  117OSM   H12A12219   3.314   3.440   6.009  0.2431 -0.4928  0.8842
  117OSM   H12B12220   3.322   3.602   6.060 -2.9773 -1.0504  0.4700
  117OSM    C1112221   3.374   3.442   6.213 -0.3029 -0.4442  0.3293
  117OSM   H11A12222   3.271   3.404   6.232 -0.8953  1.3469  0.8621
  117OSM   H11B12223   3.394   3.515   6.294 -0.2769  0.4153 -0.4451
  117OSM      P12224   3.556   3.310   6.353 -0.2787  0.1249  0.2393
  117OSM    O1312225   3.601   3.171   6.355  0.0888  0.2745 -0.1110
  117OSM    O1412226   3.663   3.412   6.355 -0.3863  0.0569 -1.0626
  117OSM    O1112227   3.447   3.321   6.471  0.0164 -0.5587  0.3410
  117OSM    O1212228   3.462   3.328   6.227 -0.0539  0.3910  1.0195
  117OSM    C1S12229   3.503   3.296   6.601  0.2973  0.4200  0.4530
  117OSM    H1S12230   3.584   3.367   6.629  0.5735 -0.0002  0.7217
  117OSM    H1T12231   3.546   3.194   6.604 -0.2880  0.0523 -1.9681
  117OSM     NF12232   3.447   3.305   6.845 -0.2657  0.7500 -0.3765
  117OSM    HNF12233   3.457   3.213   6.882  0.9921  0.7048 -0.7809
  117OSM    C2S12234   3.391   3.296   6.707  0.3242  0.6065 -0.4538
  117OSM    H2S12235   3.322   3.381   6.689 -2.1554 -0.7540  1.8786
  117OSM    C3S12236   3.300   3.170   6.683 -0.1700 -0.1474 -0.0395
  117OSM    H3S12237   3.362   3.080   6.703  0.6076 -0.3611 -2.9022
  117OSM     O312238   3.269   3.150   6.545 -0.0119  0.3476 -0.5279
  117OSM    HO312239   3.322   3.218   6.501  1.5021  0.7638  1.7656
  117OSM    C4S12240   3.182   3.170   6.782  0.0487 -0.2662  1.1134
  117OSM    H4S12241   3.198   3.106   6.870  0.5292  0.5027  1.5890
  117OSM    C5S12242   3.069   3.245   6.754  0.3049 -0.2942 -0.1957
  117OSM    H5S12243   3.074   3.303   6.662 -1.5977  0.4018  0.0811
  117OSM    C6S12244   2.943   3.249   6.838  0.5915 -0.2124 -0.1664
  117OSM    H6S12245   2.856   3.188   6.808 -0.6556  0.3761  2.0334
  117OSM    H6T12246   2.901   3.352   6.840  1.0709  0.0789 -2.2319
  117OSM    C7S12247   2.950   3.210   6.988 -0.3450 -0.4335  0.1685
  117OSM    H7S12248   2.982   3.105   6.975 -2.2819 -1.0399  0.0153
  117OSM    H7T12249   2.848   3.212   7.033  0.0965 -3.7440  1.5470
  117OSM    C8S12250   3.051   3.291   7.073 -0.2032 -0.3474 -0.1066
  117OSM    H8S12251   3.011   3.393   7.092 -1.6415 -0.9314  0.1808
  117OSM    H8T12252   3.157   3.293   7.040 -0.2646 -0.4636 -0.3139
  117OSM    C9S12253   3.061   3.220   7.213  0.2277  0.0451 -0.6136
  117OSM    H9S12254   3.095   3.118   7.188 -2.7943 -1.0664 -0.6200
  117OSM    H9T12255   2.963   3.209   7.264  0.8814  2.0236  1.2179
  117OSM   C10S12256   3.172   3.282   7.302  0.4080  0.3930  0.7318
  117OSM   H10S12257   3.140   3.373   7.359 -0.9199 -0.7823  1.9565
  117OSM   H10T12258   3.248   3.329   7.236 -1.4304  3.1953  0.3930
  117OSM   C11S12259   3.237   3.190   7.407  0.3931 -0.5151 -0.6885
  117OSM   H11S12260   3.185   3.214   7.502  0.2031 -2.0167 -0.3821
  117OSM   H11T12261   3.343   3.219   7.423 -0.8403  4.1540  0.4579
  117OSM   C12S12262   3.240   3.039   7.379  0.1408 -0.2046  0.3983
  117OSM   H12S12263   3.288   3.038   7.279 -0.6732  1.1041 -0.0256
  117OSM   H12T12264   3.136   3.000   7.387 -0.2363  0.6445 -0.2045
  117OSM   C13S12265   3.331   2.959   7.478 -0.2981  0.3016  0.6222
  117OSM   H13S12266   3.433   2.996   7.458  0.4260 -1.8113  0.1333
  117OSM   H13T12267   3.323   2.853   7.446  2.1307 -0.8378  3.3745
  117OSM   C14S12268   3.288   2.973   7.624  0.3867 -0.1959 -0.0137
  117OSM   H14S12269   3.180   2.948   7.636  0.4164 -0.5241 -0.4070
  117OSM   H14T12270   3.278   3.077   7.660 -2.5472 -0.3086 -0.2268
  117OSM   C15S12271   3.375   2.895   7.722  0.2593  0.3371  0.0142
  117OSM   H15S12272   3.382   2.788   7.693  0.3094 -0.4903  2.7512
  117OSM   H15T12273   3.318   2.883   7.817  0.2734 -1.6841 -0.1922
  117OSM   C16S12274   3.522   2.949   7.734 -0.4448  0.4385 -1.2217
  117OSM   H16S12275   3.528   3.028   7.812  0.6292 -0.7052 -0.0958
  117OSM   H16T12276   3.556   2.994   7.639  1.8600  0.3693 -0.4789
  117OSM   C17S12277   3.622   2.836   7.757 -0.2385  0.0398 -0.3526
  117OSM   H17S12278   3.721   2.882   7.739 -1.5589  2.6605 -1.5232
  117OSM   H17T12279   3.614   2.743   7.695  0.4657 -1.4098  1.6233
  117OSM   C18S12280   3.595   2.799   7.897  0.2337 -0.0054 -0.1407
  117OSM   H18S12281   3.493   2.759   7.912  0.3668 -0.3986 -0.2622
  117OSM   H18T12282   3.602   2.882   7.971  0.6590 -2.5857  2.9085
  117OSM   H18U12283   3.666   2.717   7.923  0.4078  0.5031  1.0659
  117OSM    C1F12284   3.510   3.414   6.884 -0.0186  0.0031  0.0692
  117OSM     OF12285   3.501   3.519   6.821 -0.0707  0.3435  0.1735
  117OSM    C2F12286   3.583   3.417   7.015  0.0016 -0.3343 -0.7453
  117OSM    H2F12287   3.678   3.362   6.995 -0.2685 -0.3699 -1.9550
  117OSM    H2G12288   3.528   3.370   7.100  1.5730  2.0549  1.7599
  117OSM    C3F12289   3.629   3.556   7.059 -0.0016 -0.4984 -0.4897
  117OSM    H3F12290   3.544   3.625   7.039  0.7564 -0.0017 -2.2539
  117OSM    H3G12291   3.713   3.580   6.991  0.2487  0.8243  0.2500
  117OSM    C4F12292   3.673   3.553   7.208  0.0863 -0.3783 -0.3498
  117OSM    H4F12293   3.761   3.490   7.228  0.6902  0.4490 -0.3487
  117OSM    H4G12294   3.595   3.530   7.284  0.5448 -0.0079  0.2354
  117OSM    C5F12295   3.731   3.690   7.250  0.1009 -0.8281  0.3218
  117OSM    H5F12296   3.647   3.763   7.255  0.1340 -0.3072 -3.6486
  117OSM    H5G12297   3.786   3.733   7.164 -0.5969 -0.8838 -0.1637
  117OSM    C6F12298   3.820   3.685   7.376  0.4615 -0.3425  0.6037
  117OSM    H6F12299   3.913   3.629   7.351  2.1171  2.0982  0.9480
  117OSM    H6G12300   3.762   3.641   7.460  0.0110  3.2794  2.3959
  117OSM    C7F12301   3.851   3.827   7.422  0.4473  0.0026 -0.2743
  117OSM    H7F12302   3.760   3.875   7.461  1.0698 -0.7784  2.3481
  117OSM    H7G12303   3.883   3.893   7.338  1.7118  0.9914  0.9398
  117OSM    C8F12304   3.948   3.825   7.537 -0.0637 -0.0423 -0.3380
  117OSM    H8F12305   4.054   3.810   7.505 -0.1417  0.2900 -0.7508
  117OSM    H8G12306   3.930   3.733   7.597  0.2100 -0.8603 -1.4667
  117OSM    C9F12307   3.944   3.955   7.612  0.2184  0.1385  0.5232
  117OSM    H9F12308   3.976   4.041   7.552  0.2300  0.4363  0.9558
  117OSM   C10F12309   3.895   3.972   7.738 -0.3299  0.3369 -0.0661
  117OSM   H10F12310   3.907   4.073   7.779  1.3520 -0.8634  2.7209
  117OSM   C11F12311   3.835   3.870   7.832 -0.9368 -0.0125  0.0322
  117OSM   H11F12312   3.810   3.777   7.778  0.1782  0.0335 -0.5886
  117OSM   H11G12313   3.736   3.907   7.866 -0.9653  0.2524 -0.3353
  117OSM   C12F12314   3.920   3.838   7.953 -0.2295 -0.6724 -0.3611
  117OSM   H12F12315   3.861   3.842   8.047 -0.4619  2.9811 -0.5453
  117OSM   H12G12316   3.988   3.925   7.962  0.4111 -1.0716 -1.2000
  117OSM   C13F12317   4.003   3.707   7.933 -1.0988  1.1868 -0.3012
  117OSM   H13F12318   4.089   3.732   7.867  0.6620  0.9200  1.7696
  117OSM   H13G12319   3.951   3.614   7.901 -0.7038  0.5642  0.8202
  117OSM   C14F12320   4.072   3.645   8.067  0.8245 -0.1349 -0.2454
  117OSM   H14F12321   4.125   3.550   8.046  1.1198 -0.3072  1.1949
  117OSM   H14G12322   3.989   3.636   8.141  0.8770  2.0607  0.1422
  117OSM   C15F12323   4.165   3.752   8.127  0.0522  0.0655  0.0189
  117OSM   H15F12324   4.107   3.843   8.154 -1.4701 -0.7760 -0.2749
  117OSM   H15G12325   4.234   3.776   8.044 -1.3515  0.1456 -1.1692
  117OSM   C16F12326   4.241   3.699   8.253 -0.4540 -0.0080 -0.0391
  117OSM   H16F12327   4.301   3.608   8.235  1.5006  1.1846  0.1546
  117OSM   H16G12328   4.175   3.675   8.339  0.1274 -2.3279 -0.1742
  117OSM   C17F12329   4.323   3.814   8.312 -0.4818  0.2019  0.6053
  117OSM   H17F12330   4.399   3.850   8.240 -0.2182  0.8611  1.2035
  117OSM   H17G12331   4.257   3.899   8.339  0.3943  1.2107 -0.3241
  117OSM   C18F12332   4.392   3.773   8.446  0.1991 -0.0005  0.3499
  117OSM   H18F12333   4.436   3.863   8.494  0.7965  0.2282 -0.6178
  117OSM   H18G12334   4.478   3.708   8.421 -0.2465 -1.1720  1.6961
  117OSM   H18H12335   4.320   3.709   8.501  1.6321  0.2276  2.6112
  118OSM      N12336   0.841   4.562   6.120 -0.1755 -0.3336 -0.1197
  118OSM    C1512337   0.811   4.468   6.010 -0.3791  1.0196  0.1111
  118OSM   H15A12338   0.842   4.371   6.045 -2.1011 -0.0615 -1.1552
  118OSM   H15B12339   0.865   4.497   5.921 -1.7000 -0.2078 -1.1508
  118OSM   H15C12340   0.704   4.460   5.996 -0.2104 -1.7651 -0.0929
  118OSM    C1412341   0.994   4.585   6.138 -0.3189  0.1629  0.2585
  118OSM   H14A12342   1.025   4.660   6.210  2.8705  0.4467 -1.2255
  118OSM   H14B12343   1.031   4.616   6.041  0.1072 -1.3841 -0.0910
  118OSM   H14C12344   1.038   4.489   6.160 -0.6446  0.0363  0.3724
  118OSM    C1312345   0.777   4.694   6.081 -0.2603 -0.2660  0.3906
  118OSM   H13A12346   0.834   4.739   6.001  1.2323 -0.8763  1.0617
  118OSM   H13B12347   0.793   4.756   6.168  1.2654 -0.2809  0.1556
  118OSM   H13C12348   0.672   4.681   6.061 -0.2493 -0.2012  0.2881
  118OSM    C1212349   0.785   4.515   6.249 -0.1572 -0.0058  0.0626
  118OSM   H12A12350   0.816   4.588   6.323  0.3711 -0.9002  0.7401
  118OSM   H12B12351   0.838   4.424   6.271 -3.3619 -1.9432  0.3561
  118OSM    C1112352   0.626   4.477   6.265 -0.4708  0.1682 -0.4971
  118OSM   H11A12353   0.564   4.565   6.239  0.2400  1.2632  1.3322
  118OSM   H11B12354   0.604   4.461   6.373 -0.8733  0.1264 -0.5858
  118OSM      P12355   0.617   4.224   6.224  0.5603  0.0187 -0.0000
  118OSM    O1312356   0.499   4.139   6.197 -0.2057  0.0983  0.1534
  118OSM    O1412357   0.745   4.177   6.167  0.3098  0.1408 -0.2767
  118OSM    O1112358   0.648   4.233   6.381  0.6765  0.0580  0.1606
  118OSM    O1212359   0.581   4.369   6.190  0.7831 -0.0051  0.0623
  118OSM    C1S12360   0.742   4.142   6.440  0.0228 -0.9054  0.0164
  118OSM    H1S12361   0.842   4.155   6.393 -1.0639 -0.6753 -2.3414
  118OSM    H1T12362   0.702   4.038   6.444  0.3754 -1.0115  1.0669
  118OSM     NF12363   0.848   4.043   6.634 -0.5618  0.3326 -0.3373
  118OSM    HNF12364   0.800   3.965   6.676 -2.3912  1.8218  0.4895
  118OSM    C2S12365   0.762   4.151   6.596  0.0831  0.4835  0.7138
  118OSM    H2S12366   0.810   4.247   6.623  0.6801 -0.5066  3.5604
  118OSM    C3S12367   0.625   4.158   6.670  0.7168 -0.4911  0.9175
  118OSM    H3S12368   0.567   4.064   6.661 -1.2394  0.8470 -2.1342
  118OSM     O312369   0.530   4.250   6.611  0.3656 -0.1106 -0.5750
  118OSM    HO312370   0.564   4.272   6.524 -2.9422  0.3679 -1.9020
  118OSM    C4S12371   0.651   4.184   6.818  0.4505  0.8416  0.2788
  118OSM    H4S12372   0.621   4.105   6.888 -0.9940  1.2616  0.1731
  118OSM    C5S12373   0.696   4.297   6.866 -0.7607 -0.6549 -0.4713
  118OSM    H5S12374   0.725   4.377   6.797 -2.2076  2.1469  1.9383
  118OSM    C6S12375   0.726   4.327   7.013 -0.5140 -0.2188 -0.1680
  118OSM    H6S12376   0.648   4.402   7.041 -1.0597 -0.1221 -1.8619
  118OSM    H6T12377   0.826   4.373   7.019 -0.0179 -1.1990 -0.6857
  118OSM    C7S12378   0.713   4.218   7.119 -0.0203 -0.0738  0.6235
  118OSM    H7S12379   0.774   4.126   7.102 -0.1104  0.3440 -2.5805
  118OSM    H7T12380   0.610   4.179   7.108 -0.1479  0.4719 -0.1774
  118OSM    C8S12381   0.725   4.264   7.267 -0.1918 -0.0211  0.2839
  118OSM    H8S12382   0.687   4.186   7.336 -0.0915 -1.9609 -1.7234
  118OSM    H8T12383   0.659   4.353   7.279 -2.5576 -1.4695 -1.1279
  118OSM    C9S12384   0.864   4.306   7.322  0.3800  0.0763  0.0599
  118OSM    H9S12385   0.883   4.403   7.270 -2.3166 -0.0093 -1.2224
  118OSM    H9T12386   0.932   4.226   7.283 -4.0152 -2.9215 -2.3060
  118OSM   C10S12387   0.874   4.325   7.472  0.5565  0.2141  0.0587
  118OSM   H10S12388   0.834   4.232   7.518  0.3712  1.1068  1.8127
  118OSM   H10T12389   0.804   4.406   7.502 -0.2399 -0.1326 -0.8213
  118OSM   C11S12390   1.010   4.353   7.524 -0.1070  0.1015  0.9560
  118OSM   H11S12391   1.040   4.451   7.481 -1.2550 -0.1290 -0.4551
  118OSM   H11T12392   1.073   4.265   7.500 -2.8091 -2.3845  2.3281
  118OSM   C12S12393   1.010   4.350   7.678  0.5289 -0.3764  0.6111
  118OSM   H12S12394   0.915   4.385   7.723 -0.5087  0.7217 -2.2240
  118OSM   H12T12395   1.094   4.410   7.719  0.8235 -0.1425 -0.3075
  118OSM   C13S12396   1.039   4.204   7.724 -0.1111 -0.2460 -0.4760
  118OSM   H13S12397   1.138   4.183   7.678  2.0987  2.0833  2.8274
  118OSM   H13T12398   0.956   4.143   7.681 -1.5568  0.7810  0.7709
  118OSM   C14S12399   1.048   4.190   7.874  0.8402  0.4580  0.0063
  118OSM   H14S12400   1.145   4.236   7.904  1.9923 -1.2458 -0.9099
  118OSM   H14T12401   1.036   4.081   7.893 -2.1235  0.2808 -2.2707
  118OSM   C15S12402   0.928   4.250   7.943 -0.3306  0.5844  0.2433
  118OSM   H15S12403   0.837   4.212   7.892 -0.5592 -0.0940  1.1356
  118OSM   H15T12404   0.929   4.361   7.935  1.3021  0.6179  0.5459
  118OSM   C16S12405   0.903   4.206   8.092 -0.4690 -0.6697  0.6996
  118OSM   H16S12406   0.867   4.101   8.091  0.7255 -1.0994 -0.9613
  118OSM   H16T12407   0.820   4.271   8.129 -0.7163 -1.2152  1.1086
  118OSM   C17S12408   1.028   4.219   8.185  0.3513 -0.7823  0.4393
  118OSM   H17S12409   1.115   4.163   8.143  1.2390  1.1283 -0.3697
  118OSM   H17T12410   1.002   4.163   8.278 -1.9238  0.4329  0.6016
  118OSM   C18S12411   1.056   4.365   8.212 -0.3508 -0.4858  0.1933
  118OSM   H18S12412   1.045   4.421   8.116 -1.1087  2.1771  1.7534
  118OSM   H18T12413   1.160   4.378   8.247  0.2320 -3.1899 -0.3466
  118OSM   H18U12414   0.990   4.415   8.285 -0.5680 -0.0166 -0.3132
  118OSM    C1F12415   0.980   4.039   6.604 -0.2799 -0.5785 -0.1949
  118OSM     OF12416   1.029   4.137   6.559 -0.1420 -0.2244  0.2655
  118OSM    C2F12417   1.046   3.911   6.598 -0.0979  0.6404 -0.0075
  118OSM    H2F12418   1.061   3.884   6.491 -0.5344  0.8243 -0.1172
  118OSM    H2G12419   0.985   3.834   6.650  0.1641 -0.8265 -1.7760
  118OSM    C3F12420   1.184   3.900   6.681 -0.0325 -0.0525  0.8809
  118OSM    H3F12421   1.263   3.950   6.622 -0.8437 -1.6256 -1.7304
  118OSM    H3G12422   1.218   3.795   6.690  1.8674  0.6538  2.7256
  118OSM    C4F12423   1.174   3.948   6.825  0.0826 -0.4517 -0.1750
  118OSM    H4F12424   1.143   4.055   6.826 -0.5323 -0.6096  1.9412
  118OSM    H4G12425   1.281   3.945   6.856  0.3459  1.2736 -0.7728
  118OSM    C5F12426   1.089   3.853   6.918 -0.2204  0.4456 -0.3212
  118OSM    H5F12427   1.135   3.751   6.918  0.7957  0.8622 -2.0483
  118OSM    H5G12428   0.993   3.842   6.864 -0.2328 -2.2383  0.1054
  118OSM    C6F12429   1.085   3.913   7.061 -1.3419  0.1591 -0.1859
  118OSM    H6F12430   1.029   3.841   7.124  1.5503 -1.5074  0.7029
  118OSM    H6G12431   1.061   4.021   7.061  5.1019  2.0615 -1.8583
  118OSM    C7F12432   1.230   3.921   7.117 -0.1353  0.7554  0.3396
  118OSM    H7F12433   1.298   3.977   7.050  1.7381 -1.0052  0.6613
  118OSM    H7G12434   1.275   3.820   7.122  0.2724  0.9684  1.4196
  118OSM    C8F12435   1.240   3.987   7.263  1.0108 -0.2971 -0.1887
  118OSM    H8F12436   1.204   3.915   7.340 -0.0600  0.7116  0.2813
  118OSM    H8G12437   1.161   4.064   7.269  0.0402 -1.3509  1.2418
  118OSM    C9F12438   1.374   4.039   7.306 -0.0028  0.2361 -0.3820
  118OSM    H9F12439   1.446   4.052   7.224  0.0127  0.1839 -0.3767
  118OSM   C10F12440   1.412   4.051   7.435  0.4238 -0.7735  0.1741
  118OSM   H10F12441   1.516   4.082   7.454  1.0365 -2.2440 -0.6043
  118OSM   C11F12442   1.318   4.030   7.552  0.5623  0.9515  0.0334
  118OSM   H11F12443   1.211   4.025   7.524  0.2982 -3.2080  1.1369
  118OSM   H11G12444   1.336   4.117   7.619  2.8829  0.6500 -0.1077
  118OSM   C12F12445   1.348   3.900   7.634  0.0487  0.3141 -0.2530
  118OSM   H12F12446   1.319   3.811   7.573 -0.5635 -0.7501  1.5121
  118OSM   H12G12447   1.286   3.896   7.726  0.3877  1.0756  0.0160
  118OSM   C13F12448   1.498   3.898   7.680  0.1439  0.3964  0.6125
  118OSM   H13F12449   1.556   3.908   7.586  0.0854 -1.7985  0.2902
  118OSM   H13G12450   1.516   3.803   7.735 -0.5102  0.1989  0.4991
  118OSM   C14F12451   1.527   4.024   7.764  0.1770 -1.2168  0.4143
  118OSM   H14F12452   1.436   4.062   7.815 -0.4327 -3.3240  1.0043
  118OSM   H14G12453   1.568   4.099   7.693 -0.0030 -2.1077 -0.6653
  118OSM   C15F12454   1.630   3.984   7.876  0.0193  0.4936 -0.2256
  118OSM   H15F12455   1.681   4.079   7.899  0.5262 -0.3916  2.6655
  118OSM   H15G12456   1.701   3.908   7.837 -2.0264 -1.6021 -0.1346
  118OSM   C16F12457   1.556   3.937   7.995 -0.4950  0.5192  0.1831
  118OSM   H16F12458   1.516   3.833   7.987 -1.1772  0.8675 -1.0583
  118OSM   H16G12459   1.471   4.007   8.010 -2.2776 -1.5009  0.1104
  118OSM   C17F12460   1.653   3.949   8.111 -0.1652 -0.4842  0.0759
  118OSM   H17F12461   1.662   4.060   8.122 -0.5680 -0.4883  0.5035
  118OSM   H17G12462   1.755   3.910   8.096  0.3466 -0.7450  3.3622
  118OSM   C18F12463   1.591   3.881   8.230 -0.6955 -0.1542 -0.3521
  118OSM   H18F12464   1.584   3.772   8.209 -0.8920 -0.5815  1.7399
  118OSM   H18G12465   1.495   3.932   8.253 -0.3283  1.0945 -1.4707
  118OSM   H18H12466   1.668   3.888   8.309 -0.2054  1.4706 -0.9349
  119OSM      N12467   1.785   4.522   5.651  0.2996 -0.2449  0.6036
  119OSM    C1512468   1.701   4.455   5.547 -0.5615 -0.5012 -0.1217
  119OSM   H15A12469   1.702   4.509   5.453 -0.5254  1.0334  0.7273
  119OSM   H15B12470   1.602   4.469   5.585 -0.4563 -3.3561  1.4875
  119OSM   H15C12471   1.724   4.349   5.542 -1.6058 -1.1895  4.7449
  119OSM    C1412472   1.914   4.565   5.586  0.1133  0.6551 -0.7915
  119OSM   H14A12473   1.897   4.577   5.480 -1.9277 -1.6768 -0.8105
  119OSM   H14B12474   1.984   4.482   5.582 -0.2832  0.2928 -0.1636
  119OSM   H14C12475   1.956   4.652   5.635 -0.1186  0.5105 -0.3321
  119OSM    C1312476   1.704   4.648   5.685 -0.0282 -0.1927  0.7090
  119OSM   H13A12477   1.609   4.610   5.720 -0.7669  0.9982  0.0582
  119OSM   H13B12478   1.688   4.708   5.596  0.4813 -0.1550  0.6418
  119OSM   H13C12479   1.741   4.716   5.760  0.8031  0.0408  0.1003
  119OSM    C1212480   1.806   4.444   5.778  0.3912  0.1343 -0.0855
  119OSM   H12A12481   1.856   4.350   5.760 -0.4084 -0.1744 -0.7825
  119OSM   H12B12482   1.708   4.421   5.814  0.6416  0.0820  0.5646
  119OSM    C1112483   1.862   4.532   5.895  0.0119  0.8353 -0.1902
  119OSM   H11A12484   1.866   4.451   5.971  0.0479  1.1695  0.1643
  119OSM   H11B12485   1.791   4.606   5.938 -0.6043 -0.1122  0.4753
  119OSM      P12486   2.064   4.685   5.977  0.1338 -0.0086  0.2314
  119OSM    O1312487   2.211   4.647   5.982 -0.7247  1.0434  0.3212
  119OSM    O1412488   2.037   4.819   5.927 -0.1998  0.0996 -0.0076
  119OSM    O1112489   1.987   4.668   6.115 -0.0283  0.5975  0.0085
  119OSM    O1212490   1.994   4.580   5.881  0.4344 -0.3684 -0.0555
  119OSM    C1S12491   2.022   4.553   6.197  0.3336  0.0238  0.1519
  119OSM    H1S12492   2.091   4.482   6.146  0.4607  0.1700  0.1205
  119OSM    H1T12493   1.927   4.497   6.217  0.3927 -0.3937 -0.6727
  119OSM     NF12494   2.102   4.483   6.424  0.1713  0.3919  0.2384
  119OSM    HNF12495   2.038   4.457   6.496  2.3990 -0.0474  2.2133
  119OSM    C2S12496   2.072   4.596   6.342 -0.1184  1.0041  0.0169
  119OSM    H2S12497   2.164   4.657   6.326  1.4242 -1.4707 -1.1141
  119OSM    C3S12498   1.969   4.690   6.411 -0.4172  0.7917 -0.6558
  119OSM    H3S12499   1.871   4.639   6.422 -0.5692  1.1838 -0.1861
  119OSM     O312500   1.943   4.806   6.335  0.2814  0.1238  0.0379
  119OSM    HO312501   1.956   4.763   6.250 -3.3430 -0.8838 -0.1590
  119OSM    C4S12502   2.012   4.744   6.541 -0.4788  0.3450  0.7716
  119OSM    H4S12503   2.087   4.825   6.548 -0.1855  0.0327  1.3096
  119OSM    C5S12504   1.949   4.704   6.655  0.4542  0.2896 -0.3977
  119OSM    H5S12505   1.861   4.639   6.647  0.2502  0.5401 -0.2254
  119OSM    C6S12506   1.986   4.765   6.795 -0.3079  0.6817  0.2515
  119OSM    H6S12507   1.993   4.876   6.790  0.1286  0.6453  0.0622
  119OSM    H6T12508   2.071   4.722   6.852 -1.1132 -0.3151  0.7321
  119OSM    C7S12509   1.865   4.742   6.893 -0.6294 -0.2847 -0.0190
  119OSM    H7S12510   1.862   4.634   6.918 -3.1066 -0.6968 -1.7613
  119OSM    H7T12511   1.771   4.760   6.837  0.2780 -1.6434 -2.1228
  119OSM    C8S12512   1.875   4.831   7.025  0.0621  0.6423 -0.3287
  119OSM    H8S12513   1.812   4.785   7.104  2.9860 -1.8864  0.7453
  119OSM    H8T12514   1.831   4.931   7.006 -2.3340 -0.0206  1.1941
  119OSM    C9S12515   2.013   4.837   7.095  0.2153  0.3436  0.5477
  119OSM    H9S12516   2.075   4.905   7.032 -0.7913  2.6467  1.8908
  119OSM    H9T12517   2.059   4.737   7.080 -1.0863 -0.2345  0.2645
  119OSM   C10S12518   2.015   4.873   7.242 -0.9331 -0.1720 -0.5157
  119OSM   H10S12519   1.971   4.975   7.248 -0.5124  0.1474 -2.2795
  119OSM   H10T12520   2.121   4.889   7.269 -0.7178 -1.5479 -0.4789
  119OSM   C11S12521   1.944   4.776   7.345  0.5539 -0.5053  0.1734
  119OSM   H11S12522   2.000   4.680   7.349 -1.7988 -1.9239  1.1728
  119OSM   H11T12523   1.837   4.758   7.322  0.9665 -0.7780 -1.6859
  119OSM   C12S12524   1.940   4.849   7.484 -0.4634  0.1798 -0.0110
  119OSM   H12S12525   1.915   4.957   7.475  1.2689  0.7695  1.5003
  119OSM   H12T12526   2.043   4.843   7.526 -0.7712  0.8826  0.8829
  119OSM   C13S12527   1.837   4.787   7.572 -0.4084 -0.2328  0.2010
  119OSM   H13S12528   1.835   4.676   7.560  1.6545 -0.5546  2.2181
  119OSM   H13T12529   1.733   4.823   7.555 -1.6798 -2.9977  1.4530
  119OSM   C14S12530   1.874   4.811   7.721  0.3500  0.3033 -0.3569
  119OSM   H14S12531   1.980   4.784   7.738  0.7127  1.0322 -1.3780
  119OSM   H14T12532   1.815   4.734   7.777  1.9833 -0.2615  0.6645
  119OSM   C15S12533   1.847   4.951   7.769 -0.2190  0.0916 -0.3367
  119OSM   H15S12534   1.796   4.997   7.682  1.1765 -2.7794 -2.8027
  119OSM   H15T12535   1.939   5.012   7.787  0.1591  0.6998 -3.7764
  119OSM   C16S12536   1.757   4.962   7.893 -0.0979 -0.4177 -0.0704
  119OSM   H16S12537   1.743   5.071   7.913 -0.0367 -0.1410 -1.4387
  119OSM   H16T12538   1.806   4.918   7.982 -0.1247  0.6941  0.5148
  119OSM   C17S12539   1.617   4.914   7.869  0.7406  0.2226 -0.2780
  119OSM   H17S12540   1.622   4.808   7.837 -2.0472 -0.3632  0.9637
  119OSM   H17T12541   1.564   4.973   7.792 -1.2100 -1.4020 -0.2522
  119OSM   C18S12542   1.528   4.907   7.991  0.3603 -0.2757 -0.3065
  119OSM   H18S12543   1.426   4.867   7.972  0.8725 -1.6411 -0.2541
  119OSM   H18T12544   1.522   5.008   8.036  2.1772 -0.9774  1.6612
  119OSM   H18U12545   1.582   4.842   8.062 -1.6937  1.0027  2.6128
  119OSM    C1F12546   2.213   4.412   6.413  0.5791  0.1704  0.4234
  119OSM     OF12547   2.299   4.440   6.334  0.2587  0.1134 -0.0550
  119OSM    C2F12548   2.226   4.294   6.506 -0.3095  0.2632 -0.2830
  119OSM    H2F12549   2.251   4.208   6.440  1.6197  0.7602 -0.2332
  119OSM    H2G12550   2.131   4.269   6.559  0.6998 -0.2019  1.3533
  119OSM    C3F12551   2.341   4.306   6.613  0.2151  0.7144  0.5267
  119OSM    H3F12552   2.313   4.373   6.697  1.4717  0.9050  0.8180
  119OSM    H3G12553   2.427   4.358   6.564 -0.1564  1.5747  0.7734
  119OSM    C4F12554   2.384   4.167   6.656 -0.1266  0.6807 -0.0614
  119OSM    H4F12555   2.422   4.110   6.569 -2.1368 -1.3805  0.2924
  119OSM    H4G12556   2.286   4.114   6.664 -0.3668  0.8873 -1.3913
  119OSM    C5F12557   2.494   4.157   6.765  0.1396  0.1867  0.4105
  119OSM    H5F12558   2.571   4.230   6.731  0.4140 -0.0326  0.5484
  119OSM    H5G12559   2.536   4.054   6.758 -1.4719 -0.4728  0.0557
  119OSM    C6F12560   2.454   4.181   6.911 -0.2403  0.6588  0.0957
  119OSM    H6F12561   2.545   4.168   6.973  1.4509  0.2691 -2.3410
  119OSM    H6G12562   2.382   4.101   6.941  0.1871 -0.5746 -1.9768
  119OSM    C7F12563   2.374   4.305   6.935  0.7056  0.0778 -0.4846
  119OSM    H7F12564   2.282   4.307   6.873 -0.2210 -0.7041  0.8213
  119OSM    H7G12565   2.445   4.389   6.918  0.5987  0.2114 -0.2676
  119OSM    C8F12566   2.341   4.325   7.086  0.5307  0.8802 -0.1836
  119OSM    H8F12567   2.289   4.423   7.097 -0.0540  0.5235  0.3158
  119OSM    H8G12568   2.435   4.346   7.142  0.6307  0.0758 -0.0484
  119OSM    C9F12569   2.251   4.209   7.132 -0.0062 -0.0413 -0.5153
  119OSM    H9F12570   2.193   4.147   7.062  0.1350 -0.2497 -0.4493
  119OSM   C10F12571   2.251   4.176   7.266  0.3221  0.1711  0.7417
  119OSM   H10F12572   2.186   4.093   7.299 -0.5878  0.3046 -0.6056
  119OSM   C11F12573   2.316   4.239   7.384 -0.0586 -1.1890  0.2819
  119OSM   H11F12574   2.230   4.263   7.449 -1.4673  0.5022 -2.0638
  119OSM   H11G12575   2.352   4.341   7.361 -0.5917 -1.6131 -2.8830
  119OSM   C12F12576   2.409   4.146   7.457 -0.2032 -0.0582  0.0867
  119OSM   H12F12577   2.499   4.138   7.393  0.8981  3.7654  0.8843
  119OSM   H12G12578   2.358   4.051   7.483 -3.3348  1.8375  1.3749
  119OSM   C13F12579   2.468   4.201   7.589 -0.0548 -0.6155  0.6303
  119OSM   H13F12580   2.509   4.294   7.545  2.5851 -2.5374 -1.3328
  119OSM   H13G12581   2.553   4.140   7.625 -0.6103 -1.0713  1.1922
  119OSM   C14F12582   2.370   4.212   7.705  0.2234  0.3020 -0.3830
  119OSM   H14F12583   2.280   4.269   7.671  0.7300  0.9856 -0.5980
  119OSM   H14G12584   2.426   4.263   7.786  0.7181  1.3531 -1.3445
  119OSM   C15F12585   2.328   4.076   7.764  0.9144  0.4294  0.0228
  119OSM   H15F12586   2.413   4.004   7.773 -0.1370 -1.1049 -1.6121
  119OSM   H15G12587   2.259   4.029   7.690  2.0802  1.6359 -1.9041
  119OSM   C16F12588   2.265   4.080   7.909 -0.6602 -0.3981  0.2009
  119OSM   H16F12589   2.184   4.155   7.903 -1.2577 -0.9353  1.1415
  119OSM   H16G12590   2.350   4.112   7.973  0.4948 -1.3545 -0.8086
  119OSM   C17F12591   2.198   3.961   7.959 -0.1284 -0.3222  0.2538
  119OSM   H17F12592   2.281   3.888   7.954  0.6133  0.3824  1.7202
  119OSM   H17G12593   2.118   3.921   7.892 -0.1227  0.4930 -0.2534
  119OSM   C18F12594   2.160   3.973   8.110 -0.0843 -0.1497  0.3034
  119OSM   H18F12595   2.135   3.871   8.147  1.5851 -0.2132  1.3363
  119OSM   H18G12596   2.070   4.038   8.114  0.7019  1.0502 -0.6705
  119OSM   H18H12597   2.245   4.006   8.173  0.1317 -0.3147  0.1006
  120OSM      N12598   5.940   2.697   6.480  0.1634 -0.4166 -0.0260
  120OSM    C1512599   5.850   2.750   6.580 -0.2716 -0.2459 -0.2212
  120OSM   H15A12600   5.876   2.717   6.680 -1.5910  0.7058  0.4663
  120OSM   H15B12601   5.748   2.726   6.553 -0.6829  2.2357 -1.2176
  120OSM   H15C12602   5.849   2.858   6.587 -0.7790 -0.3321  2.1495
  120OSM    C1412603   5.890   2.746   6.348 -0.7599  0.5850 -0.2034
  120OSM   H14A12604   5.896   2.853   6.343  1.9816  0.5087 -0.2843
  120OSM   H14B12605   5.798   2.691   6.334  1.0353 -2.9455  0.5797
  120OSM   H14C12606   5.975   2.718   6.286 -0.3799 -0.4555  0.7421
  120OSM    C1312607   6.084   2.746   6.511  0.0090  0.0311 -0.1840
  120OSM   H13A12608   6.103   2.725   6.616 -0.6795  0.5021  0.0394
  120OSM   H13B12609   6.074   2.852   6.494  1.3499  0.4487  1.3503
  120OSM   H13C12610   6.160   2.686   6.462 -0.4127  0.1129 -0.9456
  120OSM    C1212611   5.944   2.540   6.485 -0.5008 -0.3254 -0.4118
  120OSM   H12A12612   5.846   2.496   6.471 -0.4334 -0.3169 -0.9248
  120OSM   H12B12613   5.975   2.523   6.587  0.5176  0.0791 -0.6399
  120OSM    C1112614   6.038   2.464   6.391  0.1382  0.0650  1.1340
  120OSM   H11A12615   6.022   2.504   6.289 -1.3769 -2.6940  0.2040
  120OSM   H11B12616   6.016   2.355   6.397  3.2817 -0.7346  0.0318
  120OSM      P12617   6.290   2.463   6.333 -0.3532 -0.1451 -0.2425
  120OSM    O1312618   6.242   2.371   6.226 -0.5140 -0.6890  0.6603
  120OSM    O1412619   6.336   2.592   6.286 -0.0664 -0.3798  0.0791
  120OSM    O1112620   6.398   2.387   6.426  0.3279 -0.0575 -0.1977
  120OSM    O1212621   6.168   2.489   6.434 -0.0713  0.0166 -0.6886
  120OSM    C1S12622   6.476   2.453   6.528 -0.1538 -0.5401 -0.5016
  120OSM    H1S12623   6.464   2.563   6.518 -2.4202 -0.7349 -0.4733
  120OSM    H1T12624   6.583   2.425   6.529 -0.1564 -0.6609 -1.9661
  120OSM     NF12625   6.477   2.513   6.765 -0.0860 -0.4616 -0.3384
  120OSM    HNF12626   6.550   2.476   6.822  1.1043  1.7257 -0.3680
  120OSM    C2S12627   6.417   2.431   6.670  0.2322  0.5296  0.4568
  120OSM    H2S12628   6.309   2.456   6.662  0.1392 -0.4044 -2.3759
  120OSM    C3S12629   6.430   2.274   6.697  0.5930 -0.7242 -0.3894
  120OSM    H3S12630   6.538   2.251   6.701  1.0951  1.5588  1.5908
  120OSM     O312631   6.374   2.196   6.592  0.1723  0.1773  0.0965
  120OSM    HO312632   6.385   2.253   6.516  0.9306  0.3110  0.2938
  120OSM    C4S12633   6.356   2.227   6.819  0.4315  0.2592 -0.5389
  120OSM    H4S12634   6.248   2.221   6.801  0.8085 -1.6424 -2.6365
  120OSM    C5S12635   6.423   2.193   6.936  0.7725  0.2703  0.5528
  120OSM    H5S12636   6.531   2.209   6.945  1.0321 -0.0320 -1.5233
  120OSM    C6S12637   6.376   2.125   7.057  0.9382 -0.7651 -0.0473
  120OSM    H6S12638   6.420   2.174   7.146  1.8211 -1.7949  0.1043
  120OSM    H6T12639   6.416   2.021   7.050 -1.3627 -1.6469 -1.5458
  120OSM    C7S12640   6.221   2.107   7.057 -0.5094 -0.0122 -0.3201
  120OSM    H7S12641   6.185   2.060   6.964 -2.4999  2.3999 -0.8801
  120OSM    H7T12642   6.182   2.211   7.061  1.1654  0.6744 -0.8754
  120OSM    C8S12643   6.172   2.025   7.176  0.0595 -0.8218 -0.4063
  120OSM    H8S12644   6.226   1.928   7.179 -1.9684 -1.9910  0.0681
  120OSM    H8T12645   6.064   2.003   7.181  0.1088 -0.7817  1.5340
  120OSM    C9S12646   6.199   2.105   7.306 -0.3646  0.6985  0.3019
  120OSM    H9S12647   6.139   2.199   7.311 -2.8944 -0.8177 -0.1712
  120OSM    H9T12648   6.307   2.129   7.309  0.0938 -1.2259  0.0685
  120OSM   C10S12649   6.188   2.023   7.436  0.1667 -0.4379  0.2666
  120OSM   H10S12650   6.249   1.930   7.443  0.4930 -0.5654 -3.0505
  120OSM   H10T12651   6.080   1.995   7.441 -0.2906  0.9869 -0.9079
  120OSM   C11S12652   6.196   2.105   7.565 -0.7318  0.2088 -0.1198
  120OSM   H11S12653   6.131   2.195   7.559  0.9851  1.4084 -2.3323
  120OSM   H11T12654   6.303   2.136   7.567  0.2696 -2.9441  0.9493
  120OSM   C12S12655   6.149   2.024   7.679  0.4423 -1.0460  0.2475
  120OSM   H12S12656   6.205   1.928   7.688  1.8803 -0.1716  1.0227
  120OSM   H12T12657   6.045   1.989   7.662 -1.2001  4.0685 -2.2322
  120OSM   C13S12658   6.151   2.092   7.822  0.5649 -0.2347 -0.2453
  120OSM   H13S12659   6.089   2.184   7.819  3.0513  1.5698  0.1067
  120OSM   H13T12660   6.252   2.120   7.860  0.1407  1.2983 -0.1908
  120OSM   C14S12661   6.095   2.000   7.932  0.0663  0.4335 -0.3496
  120OSM   H14S12662   6.178   1.930   7.957 -2.1298 -2.1256  0.3061
  120OSM   H14T12663   6.006   1.948   7.891 -0.7740  1.9739 -0.5565
  120OSM   C15S12664   6.058   2.091   8.054  0.0760 -0.1853  0.4015
  120OSM   H15S12665   5.986   2.027   8.110  1.0213 -1.6111  0.0358
  120OSM   H15T12666   6.001   2.177   8.012 -0.7306 -1.7582 -1.9352
  120OSM   C16S12667   6.166   2.139   8.146  0.1927 -0.0830 -0.2853
  120OSM   H16S12668   6.235   2.210   8.096  0.2015 -0.4147 -0.7520
  120OSM   H16T12669   6.227   2.051   8.177  0.2090 -0.5189 -1.4948
  120OSM   C17S12670   6.101   2.196   8.267  0.4634 -0.3291 -0.4799
  120OSM   H17S12671   6.067   2.113   8.333  0.6198 -1.1516 -1.3933
  120OSM   H17T12672   6.020   2.270   8.255  2.2939  1.9526  0.5693
  120OSM   C18S12673   6.210   2.266   8.341  0.0787  0.4521 -0.2504
  120OSM   H18S12674   6.288   2.191   8.366  1.0126  0.0665 -3.8380
  120OSM   H18T12675   6.175   2.314   8.436 -1.9661  1.1390 -1.2843
  120OSM   H18U12676   6.249   2.346   8.274  0.7595 -0.6086 -1.1430
  120OSM    C1F12677   6.440   2.637   6.782 -0.3810 -0.1454 -0.2032
  120OSM     OF12678   6.344   2.692   6.729 -0.3097  0.3057 -0.0502
  120OSM    C2F12679   6.528   2.715   6.873  0.0685  0.3763  0.2951
  120OSM    H2F12680   6.632   2.713   6.835  0.9228 -0.9635  2.4972
  120OSM    H2G12681   6.541   2.657   6.967  0.9541  1.6780  1.0204
  120OSM    C3F12682   6.484   2.854   6.913 -0.5283 -0.2920 -0.8248
  120OSM    H3F12683   6.375   2.852   6.933 -0.2683  1.1449  1.0689
  120OSM    H3G12684   6.516   2.923   6.832 -0.4703  1.3879  0.5538
  120OSM    C4F12685   6.556   2.900   7.045 -0.7800  0.1561  0.0465
  120OSM    H4F12686   6.664   2.881   7.027 -0.7901 -0.0734  0.2191
  120OSM    H4G12687   6.513   2.837   7.126 -0.1781 -1.9347 -1.1728
  120OSM    C5F12688   6.531   3.045   7.067 -0.4797 -0.6892 -0.4108
  120OSM    H5F12689   6.421   3.062   7.056 -0.3628  0.4720  0.0682
  120OSM    H5G12690   6.592   3.097   6.990  1.5132 -1.0497  0.8748
  120OSM    C6F12691   6.562   3.113   7.204 -0.3837 -0.1734 -0.2362
  120OSM    H6F12692   6.545   3.222   7.190 -0.8306 -0.1735  0.2876
  120OSM    H6G12693   6.668   3.086   7.225 -0.6064 -0.6668  0.2671
  120OSM    C7F12694   6.464   3.075   7.314 -1.0759  0.0968 -1.2683
  120OSM    H7F12695   6.470   2.966   7.335  0.4222  0.5177  0.7749
  120OSM    H7G12696   6.358   3.092   7.287 -2.2040 -0.1202  2.5209
  120OSM    C8F12697   6.484   3.162   7.439  0.0401  0.6153 -0.1988
  120OSM    H8F12698   6.483   3.269   7.411 -0.9746  0.9103  0.8852
  120OSM    H8G12699   6.583   3.138   7.484 -0.2273  0.2412  0.2043
  120OSM    C9F12700   6.382   3.140   7.549 -0.6230  0.3950  0.4285
  120OSM    H9F12701   6.281   3.181   7.532 -1.1711 -0.9008  0.4281
  120OSM   C10F12702   6.406   3.070   7.665 -0.7248 -0.0608  0.6698
  120OSM   H10F12703   6.325   3.062   7.739  0.1660  1.7444  1.9072
  120OSM   C11F12704   6.532   3.001   7.696  0.4391  0.8851  0.3608
  120OSM   H11F12705   6.577   2.963   7.602 -1.7296 -2.2617  0.4450
  120OSM   H11G12706   6.496   2.907   7.743  0.0261  0.5120 -0.6900
  120OSM   C12F12707   6.621   3.072   7.790  0.1072  0.3135 -0.0272
  120OSM   H12F12708   6.565   3.133   7.864 -1.0386 -1.2258  0.4270
  120OSM   H12G12709   6.698   3.132   7.736 -0.5971  2.6248  1.3836
  120OSM   C13F12710   6.707   2.971   7.874 -0.1941 -0.0604 -0.0284
  120OSM   H13F12711   6.766   2.905   7.808 -1.2551 -1.5144  0.4308
  120OSM   H13G12712   6.644   2.907   7.939  1.6620 -1.6364  0.3012
  120OSM   C14F12713   6.795   3.058   7.967 -0.3853  0.2327 -0.5052
  120OSM   H14F12714   6.727   3.129   8.020 -0.0963 -0.5417  0.9409
  120OSM   H14G12715   6.857   3.122   7.901  0.9930 -0.1842  0.3508
  120OSM   C15F12716   6.892   2.971   8.049  0.3078  0.8007  0.3569
  120OSM   H15F12717   6.955   2.914   7.977  2.0717  1.9451  0.9516
  120OSM   H15G12718   6.836   2.902   8.115 -1.9181  2.7822  0.6888
  120OSM   C16F12719   6.971   3.058   8.150 -0.0783 -0.4038 -0.3337
  120OSM   H16F12720   6.912   3.126   8.216  0.9525  0.1827 -0.0001
  120OSM   H16G12721   7.046   3.119   8.095  0.9508 -1.0691  0.2863
  120OSM   C17F12722   7.065   2.962   8.234 -0.3346 -0.5670  0.0666
  120OSM   H17F12723   7.131   3.014   8.306 -1.6175  1.2378  0.0125
  120OSM   H17G12724   7.137   2.914   8.164 -0.8187 -1.1698 -0.0267
  120OSM   C18F12725   6.991   2.868   8.330  0.0893  0.0421 -0.3984
  120OSM   H18F12726   7.067   2.834   8.404 -1.3602 -0.5491  0.8516
  120OSM   H18G12727   6.945   2.778   8.285  1.9048 -1.4566  0.6392
  120OSM   H18H12728   6.916   2.931   8.383 -0.6296 -1.0321 -0.1245
  121OSM      N12729   2.005   3.326   5.809 -0.5602 -0.0271 -0.5512
  121OSM    C1512730   1.981   3.472   5.818  0.6519  0.1500 -0.6933
  121OSM   H15A12731   1.979   3.527   5.725 -0.3511 -0.8994 -1.3137
  121OSM   H15B12732   2.059   3.511   5.881 -0.1550 -0.3658  0.6602
  121OSM   H15C12733   1.892   3.497   5.873  0.4694 -0.5124 -0.6795
  121OSM    C1412734   1.888   3.262   5.741  0.3831 -0.7777 -0.0721
  121OSM   H14A12735   1.912   3.158   5.725  1.8729 -0.4069 -0.4358
  121OSM   H14B12736   1.879   3.297   5.639 -4.0433 -0.9186  0.0861
  121OSM   H14C12737   1.789   3.266   5.782  0.2238  0.3967 -0.5227
  121OSM    C1312738   2.135   3.301   5.743  0.6236  0.3161 -0.2317
  121OSM   H13A12739   2.148   3.350   5.648 -1.0615 -0.7900 -1.0792
  121OSM   H13B12740   2.160   3.196   5.745  0.7721  0.3429 -0.6492
  121OSM   H13C12741   2.211   3.341   5.809  0.2901  0.8468 -0.1645
  121OSM    C1212742   1.991   3.261   5.950 -0.1377 -0.4572 -0.1249
  121OSM   H12A12743   1.990   3.155   5.933 -4.0744 -0.5596 -0.1805
  121OSM   H12B12744   1.899   3.287   6.001  0.4222 -2.3449  1.9999
  121OSM    C1112745   2.099   3.279   6.057 -0.1512 -0.8669  0.1171
  121OSM   H11A12746   2.198   3.268   6.009 -0.3984 -2.0039 -0.1509
  121OSM   H11B12747   2.090   3.196   6.131 -0.0698 -0.0022  1.1249
  121OSM      P12748   2.202   3.508   6.149  0.3315 -0.2844  0.1452
  121OSM    O1312749   2.331   3.437   6.149 -0.4115  0.3013  0.0994
  121OSM    O1412750   2.176   3.620   6.057  0.2541  0.0291 -0.0134
  121OSM    O1112751   2.168   3.566   6.296  0.4447 -0.2536 -0.2909
  121OSM    O1212752   2.082   3.406   6.121  0.1930 -0.0764 -0.3366
  121OSM    C1S12753   2.045   3.526   6.365 -0.2409  0.1306  0.0713
  121OSM    H1S12754   2.046   3.415   6.366  1.5732  0.1238  1.1021
  121OSM    H1T12755   1.958   3.559   6.304 -0.7698 -1.4255 -0.0560
  121OSM     NF12756   1.965   3.474   6.599  0.6247 -0.9984 -0.0182
  121OSM    HNF12757   1.879   3.513   6.632  1.7171  1.2598  0.3453
  121OSM    C2S12758   2.039   3.566   6.516 -0.3358 -0.7574  0.5578
  121OSM    H2S12759   2.144   3.562   6.551 -0.1692 -1.1701  0.0102
  121OSM    C3S12760   1.990   3.713   6.527 -0.6737  0.7106  0.0801
  121OSM    H3S12761   1.889   3.721   6.482 -0.6055  0.8681 -0.0464
  121OSM     O312762   2.077   3.801   6.456  0.2391 -0.3302  0.0703
  121OSM    HO312763   2.120   3.746   6.391  1.0511  0.3332  0.0238
  121OSM    C4S12764   1.982   3.758   6.670  0.7102 -0.1840  0.5879
  121OSM    H4S12765   1.883   3.733   6.710  0.2741 -2.1507 -1.5512
  121OSM    C5S12766   2.089   3.810   6.738  0.0641 -0.3578 -0.2389
  121OSM    H5S12767   2.189   3.819   6.692  0.0521  1.3992  0.0300
  121OSM    C6S12768   2.083   3.858   6.880  0.0469 -0.3574  0.3232
  121OSM    H6S12769   1.986   3.873   6.932 -0.1115  3.6422 -0.7664
  121OSM    H6T12770   2.124   3.960   6.896  0.7395 -0.4816 -0.5762
  121OSM    C7S12771   2.173   3.774   6.969 -0.6589  0.7470 -0.2863
  121OSM    H7S12772   2.278   3.779   6.932 -0.9125  3.6123 -0.8690
  121OSM    H7T12773   2.139   3.668   6.969 -1.1130  0.8557  1.4660
  121OSM    C8S12774   2.184   3.831   7.108  0.1782 -0.1101 -0.3744
  121OSM    H8S12775   2.083   3.863   7.140  0.6554  0.7232  0.3176
  121OSM    H8T12776   2.251   3.918   7.118 -0.2593  0.0215  1.8870
  121OSM    C9S12777   2.237   3.730   7.207 -0.0294  0.1166  0.3049
  121OSM    H9S12778   2.322   3.677   7.161 -0.6066 -1.9373  1.4554
  121OSM    H9T12779   2.154   3.656   7.213  0.1099 -0.0776 -0.1596
  121OSM   C10S12780   2.274   3.792   7.344 -0.8018  0.2095  0.7661
  121OSM   H10S12781   2.182   3.815   7.402 -1.9323 -1.5168 -0.2254
  121OSM   H10T12782   2.333   3.884   7.326 -0.2491 -0.3193 -0.2318
  121OSM   C11S12783   2.350   3.683   7.424 -0.1864  0.3020  0.1581
  121OSM   H11S12784   2.396   3.735   7.511  0.3120 -0.7524  0.5461
  121OSM   H11T12785   2.432   3.642   7.361  0.2877  0.3128  0.7634
  121OSM   C12S12786   2.267   3.560   7.457 -0.4749  0.0061  0.3505
  121OSM   H12S12787   2.251   3.498   7.366  0.1254  0.2340  0.0849
  121OSM   H12T12788   2.167   3.588   7.498  0.5330  1.8879  1.6251
  121OSM   C13S12789   2.343   3.475   7.567  0.2706 -0.1874  0.0610
  121OSM   H13S12790   2.435   3.521   7.608 -0.4496 -0.8231  2.5421
  121OSM   H13T12791   2.364   3.372   7.531 -3.0354 -1.9539  2.6140
  121OSM   C14S12792   2.259   3.455   7.697 -0.7229 -0.1804  0.6981
  121OSM   H14S12793   2.166   3.399   7.674 -0.8975  1.3079 -2.9497
  121OSM   H14T12794   2.228   3.555   7.735 -0.1840 -0.1254  0.9958
  121OSM   C15S12795   2.335   3.386   7.817 -0.1485 -0.3906  0.7276
  121OSM   H15S12796   2.370   3.283   7.796  2.5079  1.0173 -2.9298
  121OSM   H15T12797   2.260   3.387   7.899 -0.9864  1.4603  0.0067
  121OSM   C16S12798   2.468   3.456   7.863  0.2333  0.0100  0.4421
  121OSM   H16S12799   2.536   3.460   7.775  0.6074 -0.9029  0.6746
  121OSM   H16T12800   2.506   3.376   7.930 -0.6969 -0.4308  0.4626
  121OSM   C17S12801   2.440   3.591   7.928  0.1663  0.0493 -0.5410
  121OSM   H17S12802   2.361   3.574   8.004  0.3001  0.4560 -0.3084
  121OSM   H17T12803   2.410   3.663   7.850 -0.7518  1.2039  0.8173
  121OSM   C18S12804   2.563   3.641   7.999  0.1927 -0.5774 -0.2827
  121OSM   H18S12805   2.604   3.556   8.059 -0.0089  0.4422  1.3515
  121OSM   H18T12806   2.537   3.717   8.075 -1.4607 -1.7592  0.3980
  121OSM   H18U12807   2.647   3.687   7.944  0.4839 -0.7643  0.0018
  121OSM    C1F12808   1.982   3.350   6.629 -0.0618  0.7915 -0.2403
  121OSM     OF12809   2.094   3.307   6.622 -0.3840 -0.4586  0.2724
  121OSM    C2F12810   1.868   3.269   6.672 -0.2436 -0.5524  0.1342
  121OSM    H2F12811   1.869   3.180   6.605  0.3354  0.4390 -1.2298
  121OSM    H2G12812   1.776   3.322   6.637 -0.4052 -0.4048  0.7812
  121OSM    C3F12813   1.884   3.221   6.815 -0.4526 -0.6924 -0.2390
  121OSM    H3F12814   1.979   3.164   6.823  0.2655  0.3686 -1.0271
  121OSM    H3G12815   1.791   3.164   6.835  0.0294 -1.4038  0.0250
  121OSM    C4F12816   1.898   3.345   6.907 -0.7293 -0.0272  0.0435
  121OSM    H4F12817   1.804   3.404   6.909 -1.7528 -1.6111  2.1722
  121OSM    H4G12818   1.984   3.410   6.881 -0.7344  1.5346  3.3776
  121OSM    C5F12819   1.941   3.305   7.053  1.0424  0.3873  0.1918
  121OSM    H5F12820   2.044   3.264   7.063  1.1133  0.1867 -1.2184
  121OSM    H5G12821   1.880   3.216   7.079  1.2828  0.9435  3.0767
  121OSM    C6F12822   1.912   3.423   7.144  0.4320 -0.0666 -0.3032
  121OSM    H6F12823   1.811   3.468   7.147  0.1562 -0.7080  0.3209
  121OSM    H6G12824   1.977   3.508   7.115 -0.7695  1.4891  1.3854
  121OSM    C7F12825   1.956   3.395   7.293 -0.6669 -0.3193 -0.6880
  121OSM    H7F12826   1.975   3.488   7.351 -0.9210 -0.3334 -0.5836
  121OSM    H7G12827   2.055   3.345   7.295  0.8060  2.4049  2.0622
  121OSM    C8F12828   1.859   3.313   7.369  0.0759  0.2639  1.1684
  121OSM    H8F12829   1.860   3.206   7.340  0.0652  0.2645  1.1655
  121OSM    H8G12830   1.759   3.354   7.342 -0.5869 -0.1319  2.8940
  121OSM    C9F12831   1.862   3.327   7.520  0.4370  0.1674  0.1122
  121OSM    H9F12832   1.791   3.399   7.562 -2.1713 -2.2629  0.1347
  121OSM   C10F12833   1.931   3.256   7.606 -0.4854  0.3884 -0.3968
  121OSM   H10F12834   1.918   3.278   7.712  0.3301  1.1678 -0.4481
  121OSM   C11F12835   2.031   3.154   7.559 -0.2228 -0.5253  0.4276
  121OSM   H11F12836   2.136   3.188   7.574  0.1766 -2.0769  1.4452
  121OSM   H11G12837   2.019   3.130   7.451  1.1431 -0.9913  0.3621
  121OSM   C12F12838   2.028   3.018   7.626  0.6333  0.6307  0.1665
  121OSM   H12F12839   2.075   2.937   7.567 -0.4215  0.5971 -0.6704
  121OSM   H12G12840   1.922   2.989   7.640  0.1166  2.1967 -0.1928
  121OSM   C13F12841   2.084   3.031   7.772 -0.4566  0.5093  0.0585
  121OSM   H13F12842   2.011   3.072   7.846 -0.1002  1.2701  0.0003
  121OSM   H13G12843   2.180   3.087   7.780 -0.0511 -0.2289  0.4542
  121OSM   C14F12844   2.126   2.897   7.823  0.0545 -0.2691  0.3585
  121OSM   H14F12845   2.230   2.868   7.797 -0.0224  0.7448 -1.1965
  121OSM   H14G12846   2.054   2.825   7.777  1.1741 -2.4325  1.8355
  121OSM   C15F12847   2.093   2.876   7.974  0.3263 -0.2883  0.1005
  121OSM   H15F12848   1.990   2.913   7.994  0.0630 -0.9642  0.0211
  121OSM   H15G12849   2.151   2.916   8.060  0.4100 -1.6874  0.7109
  121OSM   C16F12850   2.091   2.723   7.999 -0.7652  0.1962  0.1572
  121OSM   H16F12851   2.198   2.693   8.005 -1.3392 -2.5368 -1.4978
  121OSM   H16G12852   2.029   2.676   7.919 -0.0339  0.8736 -0.8324
  121OSM   C17F12853   2.026   2.701   8.133 -0.3183  0.5925 -0.6888
  121OSM   H17F12854   1.918   2.729   8.133 -1.1222 -1.8987  2.0204
  121OSM   H17G12855   2.078   2.761   8.210 -3.0570  0.5701  1.3595
  121OSM   C18F12856   2.033   2.554   8.178 -0.4184 -0.4707  0.8230
  121OSM   H18F12857   1.974   2.481   8.118 -0.4329 -0.3155  0.6502
  121OSM   H18G12858   1.994   2.555   8.282  0.5035  2.9784  1.2493
  121OSM   H18H12859   2.140   2.528   8.162  0.6489  3.9673 -0.7834
  122OSM      N12860   0.106   4.987   6.352 -0.2328  0.7721 -0.2579
  122OSM    C1512861   0.005   5.035   6.246 -0.3269  0.1226 -0.2237
  122OSM   H15A12862  -0.089   5.011   6.293 -0.0263  0.3842  0.5122
  122OSM   H15B12863   0.028   4.978   6.157  0.3592 -2.8888  1.7141
  122OSM   H15C12864   0.013   5.141   6.232 -0.1177 -0.2069 -3.4372
  122OSM    C1412865   0.242   5.018   6.308 -0.0091 -0.2188 -0.5856
  122OSM   H14A12866   0.273   4.963   6.220  0.2065  2.7248 -2.4820
  122OSM   H14B12867   0.311   5.006   6.391 -2.3175  0.6944  1.6130
  122OSM   H14C12868   0.248   5.122   6.283  1.7673 -0.0196  0.5117
  122OSM    C1312869   0.080   5.056   6.481 -0.6362 -0.2960  0.0342
  122OSM   H13A12870   0.140   5.021   6.563 -3.1446 -0.9281  1.7131
  122OSM   H13B12871  -0.023   5.042   6.509 -1.1793  0.5757 -1.3812
  122OSM   H13C12872   0.093   5.161   6.457 -0.0231 -0.7570 -1.8267
  122OSM    C1212873   0.085   4.837   6.374 -0.1410  0.0321 -0.2740
  122OSM   H12A12874   0.004   4.831   6.445 -1.7567 -0.5166 -2.0778
  122OSM   H12B12875   0.167   4.791   6.427  1.8889  0.4795 -2.8272
  122OSM    C1112876   0.045   4.744   6.255  0.2293 -0.4741 -0.4637
  122OSM   H11A12877  -0.048   4.790   6.215 -1.4175 -1.5908  1.7949
  122OSM   H11B12878   0.009   4.649   6.300 -2.1374  0.6787  0.2382
  122OSM      P12879   0.202   4.598   6.109  0.1043  0.2214  0.1221
  122OSM    O1312880   0.116   4.560   5.998 -0.4277 -0.0238 -0.0328
  122OSM    O1412881   0.346   4.614   6.079 -0.6152  0.1645 -0.2727
  122OSM    O1112882   0.176   4.493   6.224  0.4759 -0.6432  0.9459
  122OSM    O1212883   0.151   4.737   6.160 -0.2830  0.4180 -0.5073
  122OSM    C1S12884   0.267   4.490   6.339 -0.7097 -0.1316  0.0905
  122OSM    H1S12885   0.272   4.594   6.377  0.9998 -1.2803  3.3948
  122OSM    H1T12886   0.367   4.441   6.330  0.3659  2.1694 -1.2232
  122OSM     NF12887   0.296   4.425   6.577 -0.8778 -0.4734 -0.6725
  122OSM    HNF12888   0.357   4.349   6.600 -0.4551 -0.2341 -0.9951
  122OSM    C2S12889   0.204   4.416   6.464  0.2651  0.1895  0.8645
  122OSM    H2S12890   0.106   4.461   6.488 -0.1502 -0.4696  0.4349
  122OSM    C3S12891   0.159   4.269   6.428  0.2956  0.3644 -0.1759
  122OSM    H3S12892   0.252   4.216   6.397  1.0281  1.3884  0.2219
  122OSM     O312893   0.063   4.263   6.321 -0.3694 -0.1088 -0.7504
  122OSM    HO312894   0.059   4.350   6.279  0.0366 -1.1585 -3.1330
  122OSM    C4S12895   0.100   4.197   6.548  0.4003  0.0427 -0.1189
  122OSM    H4S12896  -0.007   4.223   6.555  0.8936  2.0546  0.9117
  122OSM    C5S12897   0.152   4.100   6.622 -0.2420  1.2817 -0.7487
  122OSM    H5S12898   0.250   4.054   6.599 -1.3185 -1.4260 -0.3782
  122OSM    C6S12899   0.097   4.026   6.735  0.7558  0.5570 -0.1633
  122OSM    H6S12900   0.110   3.918   6.710 -0.0542  0.6614 -1.1146
  122OSM    H6T12901  -0.010   4.041   6.760  0.9749  0.7314  0.6870
  122OSM    C7S12902   0.169   4.075   6.863  0.3432  0.3256  0.2303
  122OSM    H7S12903   0.278   4.057   6.868  0.1827 -0.3106  2.4136
  122OSM    H7T12904   0.125   4.020   6.949 -1.4753  0.7326 -0.3972
  122OSM    C8S12905   0.149   4.224   6.890  0.2705  0.4067 -0.5384
  122OSM    H8S12906   0.047   4.257   6.861  0.9309  2.0800 -1.0450
  122OSM    H8T12907   0.207   4.288   6.820  2.2224 -1.4225 -0.7051
  122OSM    C9S12908   0.193   4.270   7.025 -0.0969  0.0519  0.1600
  122OSM    H9S12909   0.160   4.376   7.035 -0.2767  0.3723 -2.7946
  122OSM    H9T12910   0.304   4.268   7.031 -0.1396  0.8870  1.6441
  122OSM   C10S12911   0.139   4.192   7.146 -0.5273 -0.3045  0.0863
  122OSM   H10S12912   0.174   4.087   7.148  0.0567 -0.1038  1.7140
  122OSM   H10T12913   0.028   4.193   7.138 -0.7285 -0.7234  2.3620
  122OSM   C11S12914   0.180   4.252   7.283 -0.3620 -0.0516 -0.7778
  122OSM   H11S12915   0.160   4.360   7.302  0.0128  0.0132 -0.7379
  122OSM   H11T12916   0.290   4.240   7.296 -0.6250 -0.3070  1.9410
  122OSM   C12S12917   0.105   4.173   7.400  0.2282 -0.3856  0.2344
  122OSM   H12S12918   0.128   4.064   7.395  1.3894 -0.1449  0.0247
  122OSM   H12T12919  -0.004   4.189   7.384  0.8154  2.2677 -1.8065
  122OSM   C13S12920   0.146   4.223   7.537 -0.5612 -0.0095  0.3640
  122OSM   H13S12921   0.100   4.321   7.559 -2.2873 -1.0088  1.4935
  122OSM   H13T12922   0.255   4.225   7.558 -0.4606 -1.4827  0.1383
  122OSM   C14S12923   0.109   4.121   7.648  0.3206 -0.6629  0.5056
  122OSM   H14S12924   0.162   4.027   7.623  0.7848  0.0422 -1.3428
  122OSM   H14T12925  -0.001   4.109   7.648  0.1473  0.6500 -0.0219
  122OSM   C15S12926   0.146   4.177   7.783 -0.2286 -0.0090  0.0291
  122OSM   H15S12927   0.099   4.277   7.791 -0.7304 -0.1570 -1.0100
  122OSM   H15T12928   0.254   4.191   7.807 -0.1374  0.0520 -0.4138
  122OSM   C16S12929   0.100   4.082   7.892  0.1518 -0.3093  0.5170
  122OSM   H16S12930   0.156   3.985   7.890 -3.1398 -2.3883  1.5038
  122OSM   H16T12931  -0.007   4.061   7.874 -0.4089  1.0376  2.0597
  122OSM   C17S12932   0.118   4.137   8.034  0.3239 -0.6474 -0.0477
  122OSM   H17S12933   0.073   4.236   8.056 -0.3089 -1.4525  2.5397
  122OSM   H17T12934   0.223   4.133   8.071  0.0207 -0.9972  0.7945
  122OSM   C18S12935   0.034   4.065   8.140 -0.0156 -0.1765  0.5806
  122OSM   H18S12936  -0.072   4.073   8.105 -0.1201 -0.1534  0.9014
  122OSM   H18T12937   0.048   4.118   8.236  0.3589 -1.4770  1.2746
  122OSM   H18U12938   0.060   3.957   8.150 -3.7120 -1.2730  0.0275
  122OSM    C1F12939   0.326   4.545   6.628  0.3649  0.4753  0.1425
  122OSM     OF12940   0.271   4.653   6.596  0.1812  0.8353 -0.2544
  122OSM    C2F12941   0.425   4.550   6.737 -0.2396  0.4267  0.0423
  122OSM    H2F12942   0.514   4.608   6.705 -0.8467  0.4191 -1.7831
  122OSM    H2G12943   0.462   4.445   6.741 -2.2787 -0.5287 -2.7825
  122OSM    C3F12944   0.347   4.590   6.865  0.1682  0.3838 -0.3339
  122OSM    H3F12945   0.248   4.541   6.878  0.0785  1.1228  2.3650
  122OSM    H3G12946   0.317   4.696   6.861 -0.2667  0.2788  0.1468
  122OSM    C4F12947   0.427   4.571   6.991 -0.5294  0.0290  0.3270
  122OSM    H4F12948   0.520   4.628   6.972 -0.0215 -0.1944  2.0354
  122OSM    H4G12949   0.441   4.461   6.998  1.2805  0.2828  1.1356
  122OSM    C5F12950   0.358   4.620   7.117 -0.3219  0.4879  0.3371
  122OSM    H5F12951   0.259   4.574   7.140 -0.2860  2.0629  4.5883
  122OSM    H5G12952   0.342   4.730   7.104 -0.1644  0.4828  0.0995
  122OSM    C6F12953   0.453   4.607   7.236 -0.3194  0.4341 -0.0872
  122OSM    H6F12954   0.541   4.669   7.207  1.2752 -0.9062  1.6409
  122OSM    H6G12955   0.505   4.509   7.236  0.1602  0.6133 -2.5490
  122OSM    C7F12956   0.399   4.637   7.370  0.0796  0.2581 -0.0447
  122OSM    H7F12957   0.331   4.560   7.412  0.4182  0.5376  1.0471
  122OSM    H7G12958   0.344   4.733   7.375  2.4545  1.7564 -0.7458
  122OSM    C8F12959   0.512   4.635   7.465 -0.7512 -0.0350 -0.0807
  122OSM    H8F12960   0.597   4.690   7.420  0.4301 -1.0868  0.8121
  122OSM    H8G12961   0.560   4.535   7.471  0.0315  0.3828  0.8553
  122OSM    C9F12962   0.483   4.680   7.606  0.1847  0.2702  0.8042
  122OSM    H9F12963   0.514   4.785   7.621  1.3564  0.2849 -1.2823
  122OSM   C10F12964   0.426   4.600   7.702  0.0964  0.3887 -0.5116
  122OSM   H10F12965   0.424   4.644   7.802  2.5848 -1.0291  0.2610
  122OSM   C11F12966   0.378   4.458   7.675  0.2660  0.2006  0.4329
  122OSM   H11F12967   0.348   4.437   7.570 -0.4350 -1.0122  0.8550
  122OSM   H11G12968   0.298   4.424   7.745 -1.3978  0.6700 -1.1570
  122OSM   C12F12969   0.497   4.364   7.697 -0.2064  0.0325  0.5685
  122OSM   H12F12970   0.567   4.376   7.612 -1.2000  1.5032 -0.0923
  122OSM   H12G12971   0.451   4.263   7.697  1.0564 -0.5691 -0.4379
  122OSM   C13F12972   0.569   4.375   7.826  0.1027  0.3732 -0.2783
  122OSM   H13F12973   0.619   4.474   7.835 -2.1464  1.6717 -1.2204
  122OSM   H13G12974   0.646   4.295   7.825  1.8237  1.9919 -0.9064
  122OSM   C14F12975   0.473   4.343   7.941 -0.1254 -0.2791 -0.4897
  122OSM   H14F12976   0.413   4.252   7.921  1.4983 -0.9444 -2.6508
  122OSM   H14G12977   0.407   4.432   7.955  1.9130  0.9264  2.6171
  122OSM   C15F12978   0.533   4.323   8.088 -0.4113  0.5103 -0.3769
  122OSM   H15F12979   0.612   4.245   8.082  0.2188  1.2153 -1.5862
  122OSM   H15G12980   0.460   4.278   8.159  0.4570  0.8899  0.7998
  122OSM   C16F12981   0.566   4.453   8.155 -0.3836  0.0296  0.7164
  122OSM   H16F12982   0.474   4.514   8.169 -1.6927 -2.0970  1.7611
  122OSM   H16G12983   0.640   4.505   8.089 -0.2565 -1.5135 -0.3994
  122OSM   C17F12984   0.633   4.428   8.289 -0.5615 -0.2388  0.1075
  122OSM   H17F12985   0.721   4.361   8.274 -1.3703 -1.6006  1.2168
  122OSM   H17G12986   0.567   4.376   8.362  0.7628  0.2390  1.6983
  122OSM   C18F12987   0.681   4.558   8.349  0.4229  0.7174 -0.3792
  122OSM   H18F12988   0.651   4.647   8.291 -0.9117  0.6502  0.1709
  122OSM   H18G12989   0.792   4.568   8.350  0.4690  0.2340 -0.3874
  122OSM   H18H12990   0.653   4.569   8.456  1.1059 -1.7240  0.1316
  123OSM      N12991   5.122   1.089   6.136  1.0371  0.1896 -0.0270
  123OSM    C1512992   5.228   1.138   6.047  0.2922  0.1970  0.3589
  123OSM   H15A12993   5.265   1.237   6.070 -0.2948  0.4936  0.0533
  123OSM   H15B12994   5.192   1.133   5.945  1.1252 -1.1857  0.1160
  123OSM   H15C12995   5.312   1.071   6.051  0.1543 -0.0341 -0.4471
  123OSM    C1412996   4.995   1.162   6.099 -0.3764  0.0592 -0.0769
  123OSM   H14A12997   4.999   1.172   5.991  0.7958  0.5433 -0.0034
  123OSM   H14B12998   4.988   1.259   6.145  0.4777  1.3728 -2.5018
  123OSM   H14C12999   4.904   1.106   6.117  0.1812 -1.0242 -0.5377
  123OSM    C1313000   5.101   0.942   6.120  0.1038 -0.5507  0.3322
  123OSM   H13A13001   5.043   0.937   6.029  0.5520  1.4188 -0.1229
  123OSM   H13B13002   5.037   0.901   6.197 -0.4681  2.3392  1.5536
  123OSM   H13C13003   5.187   0.881   6.100 -0.2922 -1.5023  1.4377
  123OSM    C1213004   5.163   1.115   6.275  0.1074 -0.6959 -0.3270
  123OSM   H12A13005   5.201   1.216   6.280 -2.2626  0.2247  2.3669
  123OSM   H12B13006   5.248   1.053   6.299  0.7900  0.0657 -0.7246
  123OSM    C1113007   5.053   1.098   6.389 -0.0713 -0.3802 -0.2927
  123OSM   H11A13008   4.956   1.136   6.350 -1.1132 -1.4970  1.1344
  123OSM   H11B13009   5.085   1.163   6.474 -0.8962  0.7733 -0.8427
  123OSM      P13010   4.906   0.893   6.447  0.4808 -0.2408 -0.4094
  123OSM    O1313011   4.829   0.899   6.324  0.4082 -0.3818 -0.4618
  123OSM    O1413012   4.924   0.765   6.507 -0.7327  0.6499  0.5582
  123OSM    O1113013   4.841   0.977   6.557 -0.1588  0.1111 -0.3210
  123OSM    O1213014   5.047   0.955   6.415  0.2868 -0.2534 -0.2513
  123OSM    C1S13015   4.904   1.023   6.675 -0.2356 -0.3405 -0.3713
  123OSM    H1S13016   4.963   1.108   6.635 -2.2408  0.3799 -1.9838
  123OSM    H1T13017   4.964   0.940   6.719  1.6920 -0.6847 -3.3130
  123OSM     NF13018   4.870   1.134   6.889  0.0147 -0.6291 -0.0178
  123OSM    HNF13019   4.892   1.068   6.961  1.6393  1.2204  1.2709
  123OSM    C2S13020   4.800   1.079   6.778  0.9973  0.3586 -0.7029
  123OSM    H2S13021   4.736   1.153   6.725 -0.4753 -1.2671 -1.2981
  123OSM    C3S13022   4.697   0.965   6.819  0.0482  0.4608  0.4801
  123OSM    H3S13023   4.746   0.885   6.879 -0.2996  0.7646  1.1814
  123OSM     O313024   4.635   0.902   6.705  0.3584 -0.3756  0.2777
  123OSM    HO313025   4.692   0.935   6.636  0.9110  0.1013  0.9506
  123OSM    C4S13026   4.593   1.019   6.909 -0.1646 -0.1192 -0.1650
  123OSM    H4S13027   4.609   0.997   7.015 -2.2452 -1.6002 -0.1051
  123OSM    C5S13028   4.486   1.099   6.889  0.5541  0.2736  0.6052
  123OSM    H5S13029   4.463   1.128   6.785 -1.7415 -0.6758  0.7913
  123OSM    C6S13030   4.393   1.147   6.995 -0.5809  0.4964  0.0194
  123OSM    H6S13031   4.300   1.198   6.961  0.4647  1.7380 -1.1059
  123OSM    H6T13032   4.448   1.231   7.042 -0.1237  0.1674  0.0818
  123OSM    C7S13033   4.355   1.049   7.099  0.0847 -0.0312  0.0937
  123OSM    H7S13034   4.393   0.945   7.095  1.1166  0.2540  1.5860
  123OSM    H7T13035   4.246   1.031   7.089 -0.1642  0.8952  0.9575
  123OSM    C8S13036   4.385   1.105   7.245 -0.7743  0.3134  0.1111
  123OSM    H8S13037   4.334   1.203   7.260 -0.9719  0.3078 -0.4887
  123OSM    H8T13038   4.495   1.120   7.251 -0.8034  0.2402  0.9153
  123OSM    C9S13039   4.327   1.004   7.350  0.4833 -0.3992 -0.1042
  123OSM    H9S13040   4.354   0.896   7.337 -0.8709 -0.9771  1.6437
  123OSM    H9T13041   4.217   1.001   7.338  0.3794 -0.9087  0.8577
  123OSM   C10S13042   4.349   1.056   7.496 -0.1394 -0.2381 -0.0611
  123OSM   H10S13043   4.302   1.156   7.490 -1.6883 -1.0315 -3.0310
  123OSM   H10T13044   4.457   1.078   7.510  0.1043 -0.7249 -1.0654
  123OSM   C11S13045   4.301   0.958   7.602  0.5538 -1.3873  0.5651
  123OSM   H11S13046   4.233   0.881   7.558 -1.4778 -0.1120  1.3316
  123OSM   H11T13047   4.246   1.025   7.672  0.6428  0.1259 -0.7580
  123OSM   C12S13048   4.412   0.888   7.676  0.0433  0.2834  0.4745
  123OSM   H12S13049   4.497   0.959   7.676 -1.7704  2.5884 -0.3437
  123OSM   H12T13050   4.441   0.792   7.629  0.7134 -0.0835  1.6235
  123OSM   C13S13051   4.374   0.877   7.823  0.0437  0.0364 -0.1952
  123OSM   H13S13052   4.282   0.815   7.830 -0.6055  0.6977 -2.3121
  123OSM   H13T13053   4.341   0.975   7.862 -0.2692  0.1110 -0.6387
  123OSM   C14S13054   4.479   0.825   7.914 -0.1986  0.5447 -0.1103
  123OSM   H14S13055   4.569   0.886   7.890 -0.0973 -0.1223 -1.5644
  123OSM   H14T13056   4.513   0.722   7.885  0.1822  0.1512  1.6230
  123OSM   C15S13057   4.446   0.839   8.061 -0.4304 -0.4222 -0.7425
  123OSM   H15S13058   4.429   0.949   8.070 -0.5154 -0.3835 -1.3506
  123OSM   H15T13059   4.533   0.823   8.128 -2.2230  0.1157  1.8884
  123OSM   C16S13060   4.310   0.784   8.109 -0.4820  0.1115  0.3214
  123OSM   H16S13061   4.292   0.680   8.075  0.7778 -0.1825  0.4950
  123OSM   H16T13062   4.228   0.840   8.059 -1.5832 -0.8366  1.0276
  123OSM   C17S13063   4.294   0.793   8.264  0.2671  0.1812 -0.1680
  123OSM   H17S13064   4.189   0.769   8.292  0.7727 -3.2889 -0.7629
  123OSM   H17T13065   4.311   0.897   8.298 -0.0902  0.5256 -1.0118
  123OSM   C18S13066   4.376   0.692   8.350  0.8404 -0.2203  0.2509
  123OSM   H18S13067   4.372   0.723   8.457 -0.3909  0.0102  0.1522
  123OSM   H18T13068   4.483   0.687   8.320  1.5460 -0.6891  2.6224
  123OSM   H18U13069   4.335   0.588   8.349  0.2485 -0.0195  1.4538
  123OSM    C1F13070   4.930   1.252   6.882 -0.2984  0.9015 -0.4146
  123OSM     OF13071   4.921   1.318   6.779  0.5961 -0.0672  0.2454
  123OSM    C2F13072   5.003   1.297   7.002 -0.3779 -0.0813  0.2580
  123OSM    H2F13073   5.076   1.216   7.021 -1.1465 -1.0569 -0.8231
  123OSM    H2G13074   4.926   1.319   7.079 -1.8000  1.0480 -1.4006
  123OSM    C3F13075   5.079   1.434   6.988  0.7788 -0.0797  0.0790
  123OSM    H3F13076   5.006   1.512   6.957  0.7428 -0.0942  0.1273
  123OSM    H3G13077   5.148   1.423   6.902  0.6764  3.7454 -0.6836
  123OSM    C4F13078   5.140   1.470   7.124 -0.2830  0.3697  0.3149
  123OSM    H4F13079   5.063   1.444   7.200 -2.4913  0.3305 -1.8032
  123OSM    H4G13080   5.147   1.580   7.140 -1.3638  0.5752 -0.4911
  123OSM    C5F13081   5.278   1.415   7.131 -0.3394  1.2541 -0.0519
  123OSM    H5F13082   5.323   1.464   7.042  2.0368  0.7627  0.8101
  123OSM    H5G13083   5.274   1.307   7.107 -1.4655  1.2084  0.2982
  123OSM    C6F13084   5.361   1.451   7.254 -0.6454  0.0209 -0.6663
  123OSM    H6F13085   5.340   1.558   7.273 -4.0012 -0.4616 -0.9543
  123OSM    H6G13086   5.469   1.436   7.235 -0.5243  0.6656 -0.4825
  123OSM    C7F13087   5.310   1.374   7.375  0.7171  0.4186 -0.2772
  123OSM    H7F13088   5.350   1.272   7.356  0.5009  0.3313 -0.2637
  123OSM    H7G13089   5.199   1.374   7.385  0.5328 -0.5001 -1.9554
  123OSM    C8F13090   5.378   1.434   7.495  0.4485  0.3439 -0.1717
  123OSM    H8F13091   5.311   1.520   7.513 -1.8335 -0.6248 -3.2271
  123OSM    H8G13092   5.477   1.470   7.458  0.3745 -0.7399 -1.4883
  123OSM    C9F13093   5.408   1.352   7.611 -0.4784  0.6477  0.1303
  123OSM    H9F13094   5.395   1.244   7.592  1.0013  0.5684 -0.5989
  123OSM   C10F13095   5.436   1.394   7.735 -0.3382 -0.3871  0.3588
  123OSM   H10F13096   5.447   1.317   7.813 -0.2177 -0.5565  0.1770
  123OSM   C11F13097   5.439   1.543   7.772  0.1514  0.1116  0.3441
  123OSM   H11F13098   5.362   1.597   7.712  0.0345 -0.5799 -0.1390
  123OSM   H11G13099   5.538   1.589   7.748  0.1111  0.0225 -0.0005
  123OSM   C12F13100   5.405   1.565   7.917 -0.5375  0.2590 -0.4874
  123OSM   H12F13101   5.308   1.521   7.949  0.8364 -1.0658  2.2443
  123OSM   H12G13102   5.404   1.674   7.939  1.4879  0.7862 -2.6462
  123OSM   C13F13103   5.518   1.505   8.010 -0.1119 -0.3900  0.1019
  123OSM   H13F13104   5.619   1.547   7.988  0.5035 -1.8752 -0.0392
  123OSM   H13G13105   5.524   1.395   7.997  0.1356 -0.3328 -0.2934
  123OSM   C14F13106   5.494   1.521   8.161 -0.3202  0.2969  0.5774
  123OSM   H14F13107   5.462   1.626   8.182 -3.2959 -0.0375 -1.7183
  123OSM   H14G13108   5.588   1.511   8.221 -0.7205 -1.1636  0.9878
  123OSM   C15F13109   5.381   1.420   8.208  0.3021  0.1234  0.0468
  123OSM   H15F13110   5.400   1.319   8.165  0.8722  0.3116 -0.1523
  123OSM   H15G13111   5.285   1.449   8.159 -0.8709 -0.3812  1.9320
  123OSM   C16F13112   5.374   1.405   8.360  0.3163 -0.5078 -0.3945
  123OSM   H16F13113   5.277   1.363   8.394 -0.5525  1.2380 -0.6031
  123OSM   H16G13114   5.384   1.505   8.408  0.3339 -0.7944  0.2127
  123OSM   C17F13115   5.481   1.303   8.407 -0.6889  0.5458  0.2371
  123OSM   H17F13116   5.576   1.336   8.361 -0.7389  2.1175  1.1838
  123OSM   H17G13117   5.454   1.203   8.366 -0.5621  1.2190 -1.5310
  123OSM   C18F13118   5.495   1.285   8.567 -0.0452 -0.8597  0.7174
  123OSM   H18F13119   5.391   1.290   8.606 -0.4397  3.7627 -0.3665
  123OSM   H18G13120   5.550   1.372   8.609 -1.0705 -1.0186  2.4731
  123OSM   H18H13121   5.557   1.198   8.597  0.2459 -1.1817 -0.7587
  124OSM      N13122   5.676   3.557   5.849  0.0069 -0.2644 -0.6174
  124OSM    C1513123   5.800   3.504   5.802 -0.2961 -0.5187  0.3660
  124OSM   H15A13124   5.806   3.400   5.774 -0.5046 -0.0744 -1.4568
  124OSM   H15B13125   5.881   3.526   5.870  0.8211  1.2380 -1.4294
  124OSM   H15C13126   5.828   3.552   5.709 -0.3963 -0.2988  0.4484
  124OSM    C1413127   5.698   3.700   5.890 -0.0182  0.1351  0.2790
  124OSM   H14A13128   5.784   3.716   5.953 -0.1426  1.1590  0.2083
  124OSM   H14B13129   5.611   3.733   5.946 -0.2705 -2.8617  1.8750
  124OSM   H14C13130   5.708   3.768   5.807  1.8015  0.2702  0.5728
  124OSM    C1313131   5.575   3.552   5.745 -0.3583  0.0003  0.0084
  124OSM   H13A13132   5.477   3.594   5.763 -2.0876 -4.2251  1.6227
  124OSM   H13B13133   5.554   3.452   5.711 -3.0386  1.1747 -2.1869
  124OSM   H13C13134   5.607   3.604   5.656 -2.1374  0.0032 -0.6681
  124OSM    C1213135   5.635   3.474   5.974 -0.6881 -0.1710 -0.0100
  124OSM   H12A13136   5.640   3.371   5.942  2.1646 -0.3995  0.8944
  124OSM   H12B13137   5.533   3.485   6.006 -0.5454 -1.9744  1.3061
  124OSM    C1113138   5.718   3.494   6.109  0.0490  0.4730  0.0971
  124OSM   H11A13139   5.668   3.434   6.188  1.0294  0.2302  0.5488
  124OSM   H11B13140   5.711   3.599   6.143 -0.5346  0.7126 -0.7198
  124OSM      P13141   5.887   3.293   6.090  0.3126  0.0618 -0.5029
  124OSM    O1313142   5.770   3.221   6.039  0.6908  0.4018 -0.0180
  124OSM    O1413143   6.015   3.267   6.019 -1.0721 -0.2518  0.7507
  124OSM    O1113144   5.918   3.251   6.247  0.2307  0.1784  0.3557
  124OSM    O1213145   5.858   3.449   6.097  0.8376 -0.3465  0.0643
  124OSM    C1S13146   6.003   3.337   6.319 -0.3431 -0.1938  0.1085
  124OSM    H1S13147   5.959   3.439   6.320 -1.4659 -0.6291  2.2579
  124OSM    H1T13148   6.107   3.335   6.280 -0.7373  0.5242 -1.0039
  124OSM     NF13149   6.065   3.396   6.539 -0.3012 -0.3754 -0.2467
  124OSM    HNF13150   6.163   3.381   6.543  0.3883  3.0606 -0.7313
  124OSM    C2S13151   6.000   3.294   6.467  0.1975  0.3620 -0.5123
  124OSM    H2S13152   5.895   3.289   6.502 -0.6934  0.8722 -2.9514
  124OSM    C3S13153   6.062   3.152   6.484 -0.2968  0.1996 -0.5933
  124OSM    H3S13154   6.172   3.159   6.469 -0.4954  1.0237 -1.8830
  124OSM     O313155   6.015   3.048   6.400 -0.4606 -0.3875 -0.3381
  124OSM    HO313156   5.968   3.103   6.337 -0.8091  0.4080  0.5781
  124OSM    C4S13157   6.038   3.104   6.621 -0.6669 -0.0973 -0.3059
  124OSM    H4S13158   5.932   3.108   6.651 -1.1712 -1.4266 -1.7415
  124OSM    C5S13159   6.126   3.044   6.702 -0.6040 -0.2662  0.1295
  124OSM    H5S13160   6.228   3.027   6.664 -0.7754  0.0948 -0.5129
  124OSM    C6S13161   6.094   2.996   6.837 -0.1083 -0.9953 -0.0860
  124OSM    H6S13162   6.188   2.987   6.896 -1.0514 -0.2512  1.6087
  124OSM    H6T13163   6.058   2.892   6.828 -1.6403 -0.6669  1.6660
  124OSM    C7S13164   5.989   3.077   6.910  0.5085  0.2668 -0.0549
  124OSM    H7S13165   5.893   3.038   6.870  1.3606 -1.1472 -0.8374
  124OSM    H7T13166   5.985   3.188   6.904 -1.5303  0.1575 -2.8639
  124OSM    C8S13167   5.991   3.032   7.060  0.2858 -0.1294 -0.0886
  124OSM    H8S13168   6.095   3.041   7.099  0.8585 -0.2569 -1.5352
  124OSM    H8T13169   5.962   2.925   7.064  0.8739 -0.3933 -2.0096
  124OSM    C9S13170   5.887   3.118   7.140  0.6002  0.2156 -0.2234
  124OSM    H9S13171   5.794   3.127   7.080 -0.3782  3.3061  1.5194
  124OSM    H9T13172   5.925   3.223   7.146 -0.2780  0.7278 -2.5687
  124OSM   C10S13173   5.868   3.067   7.283  0.0780 -0.5660  0.2796
  124OSM   H10S13174   5.896   2.960   7.285  0.0078 -0.6051 -0.3824
  124OSM   H10T13175   5.758   3.068   7.298  0.2295 -0.5779  1.4813
  124OSM   C11S13176   5.939   3.142   7.393  0.2872  0.0426  0.3339
  124OSM   H11S13177   5.899   3.245   7.379  0.1693  0.0901  0.9809
  124OSM   H11T13178   6.047   3.144   7.367  0.5306  0.1497  1.3156
  124OSM   C12S13179   5.924   3.105   7.538  0.1930  0.5592  0.5903
  124OSM   H12S13180   5.817   3.090   7.566  0.5472 -2.4557  0.6843
  124OSM   H12T13181   5.969   3.181   7.605 -0.1787 -0.7938  2.5068
  124OSM   C13S13182   5.982   2.964   7.569 -0.6367  0.2931 -0.2381
  124OSM   H13S13183   6.092   2.968   7.558 -0.7520  0.7673 -1.3963
  124OSM   H13T13184   5.952   2.894   7.488  2.2716  0.0814 -1.2502
  124OSM   C14S13185   5.958   2.896   7.708 -0.3469  0.8135 -0.2948
  124OSM   H14S13186   5.973   2.787   7.693 -1.0775  0.8844 -1.7023
  124OSM   H14T13187   5.854   2.906   7.743 -0.6471  1.0890 -1.2175
  124OSM   C15S13188   6.061   2.936   7.817 -0.2361 -0.0974 -0.0320
  124OSM   H15S13189   6.069   3.047   7.817 -1.3464  0.0088  1.5452
  124OSM   H15T13190   6.158   2.894   7.781 -0.9595 -0.7432 -1.2982
  124OSM   C16S13191   6.027   2.889   7.960 -0.1333  0.0778 -0.5383
  124OSM   H16S13192   6.011   2.780   7.951  1.2770 -0.3080  1.0764
  124OSM   H16T13193   5.942   2.947   8.002  0.5013  0.7687 -0.1861
  124OSM   C17S13194   6.145   2.912   8.060  0.1417  0.9841  0.4106
  124OSM   H17S13195   6.221   2.841   8.020 -2.9011 -2.1484 -0.3360
  124OSM   H17T13196   6.120   2.863   8.156  0.5215 -2.4960 -1.1117
  124OSM   C18S13197   6.195   3.055   8.080  1.1217  0.2494 -0.0960
  124OSM   H18S13198   6.213   3.101   7.980  1.0217 -0.9218 -0.6705
  124OSM   H18T13199   6.286   3.059   8.143  0.8182  0.1535  0.3599
  124OSM   H18U13200   6.108   3.118   8.109  0.3865 -1.0767  0.6709
  124OSM    C1F13201   6.000   3.517   6.556 -0.3296  0.0271  0.0927
  124OSM     OF13202   5.897   3.549   6.510 -0.0606  0.5690 -0.3544
  124OSM    C2F13203   6.078   3.628   6.620 -0.9827  0.3789 -0.0036
  124OSM    H2F13204   6.074   3.704   6.539 -0.1339  1.3276  0.8207
  124OSM    H2G13205   6.183   3.592   6.630 -1.1299  0.0156  0.2597
  124OSM    C3F13206   6.015   3.676   6.742  0.8063  0.0959 -0.0694
  124OSM    H3F13207   6.024   3.591   6.814  2.1303  0.0339 -0.2717
  124OSM    H3G13208   5.908   3.697   6.724  0.6000  0.5066  1.4710
  124OSM    C4F13209   6.067   3.805   6.803  0.1810 -0.8310 -0.6659
  124OSM    H4F13210   6.034   3.891   6.742 -0.2615 -0.1817  0.4480
  124OSM    H4G13211   6.177   3.789   6.813  0.3784  0.0236 -1.4179
  124OSM    C5F13212   6.021   3.830   6.948 -0.0215  0.4767 -0.5899
  124OSM    H5F13213   5.912   3.809   6.951 -0.0055  0.3258 -1.0052
  124OSM    H5G13214   6.032   3.937   6.974  2.0076  0.2029 -0.1008
  124OSM    C6F13215   6.095   3.762   7.062 -0.0947  0.6936 -0.4598
  124OSM    H6F13216   6.205   3.770   7.055  0.0638  0.2597  1.1522
  124OSM    H6G13217   6.071   3.653   7.064  0.4172  0.5642 -1.0816
  124OSM    C7F13218   6.054   3.815   7.197 -0.0548 -0.1447 -0.5481
  124OSM    H7F13219   6.066   3.744   7.281  0.3407  1.6257  0.9486
  124OSM    H7G13220   5.947   3.842   7.196  0.0457  0.2650 -0.0679
  124OSM    C8F13221   6.148   3.928   7.241  0.5222 -0.7340  0.9245
  124OSM    H8F13222   6.150   3.998   7.155 -1.1817 -1.5804  0.1404
  124OSM    H8G13223   6.251   3.885   7.247  0.7923 -0.1773  0.3833
  124OSM    C9F13224   6.112   4.001   7.368 -0.2103 -0.2093 -0.9565
  124OSM    H9F13225   6.016   4.055   7.370  0.2682  0.6527  0.4102
  124OSM   C10F13226   6.189   4.006   7.478 -0.1788 -0.1396  0.0942
  124OSM   H10F13227   6.153   4.075   7.556 -2.3634 -0.8073 -0.2577
  124OSM   C11F13228   6.334   3.946   7.500  0.7845 -0.2109  0.5055
  124OSM   H11F13229   6.385   3.944   7.401  1.0721 -1.7522  0.6526
  124OSM   H11G13230   6.332   3.844   7.544  2.6206  1.1095  3.9770
  124OSM   C12F13231   6.438   4.021   7.583 -0.0370  0.7528 -0.9412
  124OSM   H12F13232   6.535   3.968   7.584  0.9695  2.4122  1.6608
  124OSM   H12G13233   6.398   4.023   7.687  0.2226  0.1804 -0.8311
  124OSM   C13F13234   6.456   4.173   7.545 -0.1957  0.6793  0.1644
  124OSM   H13F13235   6.373   4.226   7.596  1.5688  0.6431  3.3133
  124OSM   H13G13236   6.451   4.199   7.437  1.1133 -0.1420 -0.1211
  124OSM   C14F13237   6.584   4.235   7.605  0.1111  0.2135  0.6445
  124OSM   H14F13238   6.580   4.344   7.590  1.0627  0.2505  0.6151
  124OSM   H14G13239   6.677   4.197   7.557  0.3139  0.4539  0.8477
  124OSM   C15F13240   6.587   4.214   7.759  0.0799  0.3130 -0.3396
  124OSM   H15F13241   6.690   4.240   7.792  0.7346 -1.0849 -1.2157
  124OSM   H15G13242   6.564   4.111   7.793 -0.3742  0.8265  0.9557
  124OSM   C16F13243   6.503   4.306   7.850  1.0764  0.3934  0.0993
  124OSM   H16F13244   6.397   4.275   7.858  0.5626  2.1547  0.7057
  124OSM   H16G13245   6.504   4.413   7.819  0.1525 -0.6119 -4.0665
  124OSM   C17F13246   6.555   4.313   7.991  0.8645 -0.3731  0.0346
  124OSM   H17F13247   6.658   4.353   7.994  0.7824 -0.1762  0.3114
  124OSM   H17G13248   6.560   4.216   8.045 -0.4027  0.7965  2.4391
  124OSM   C18F13249   6.468   4.403   8.075  0.1805 -0.8994  0.0901
  124OSM   H18F13250   6.510   4.391   8.177 -0.9185  2.3813  1.0720
  124OSM   H18G13251   6.364   4.364   8.066  0.2110 -0.6247 -2.0633
  124OSM   H18H13252   6.475   4.510   8.046 -1.8068 -0.1446  2.0545
  125OSM      N13253   1.091   1.876   6.063 -0.2632 -0.1805  0.7489
  125OSM    C1513254   1.091   1.740   6.125 -0.2063 -0.1044  0.0768
  125OSM   H15A13255   1.189   1.694   6.116 -0.1853 -0.2003  0.7319
  125OSM   H15B13256   1.037   1.665   6.070  1.5849 -1.2326 -0.2468
  125OSM   H15C13257   1.053   1.733   6.226 -0.6606 -1.6117 -0.1750
  125OSM    C1413258   1.141   1.860   5.930  0.6220 -0.3470 -0.4696
  125OSM   H14A13259   1.244   1.829   5.927  0.9655  0.6549  0.3145
  125OSM   H14B13260   1.128   1.954   5.879  0.8526  0.9423  1.6864
  125OSM   H14C13261   1.080   1.787   5.879 -0.1013 -1.3740  1.7297
  125OSM    C1313262   0.950   1.928   6.067 -0.1859 -1.0280  0.1957
  125OSM   H13A13263   0.897   1.925   6.161 -1.7236 -0.0776 -0.5922
  125OSM   H13B13264   0.882   1.887   5.993 -1.0146 -0.2954  0.5401
  125OSM   H13C13265   0.952   2.029   6.029 -0.6985 -1.0293  0.1558
  125OSM    C1213266   1.193   1.961   6.146  0.2972 -0.3757  0.1230
  125OSM   H12A13267   1.283   1.904   6.161  1.9143  2.0995  0.3295
  125OSM   H12B13268   1.146   1.970   6.243 -0.0177 -4.1035  0.4912
  125OSM    C1113269   1.217   2.101   6.089  0.7026 -0.4837 -0.6462
  125OSM   H11A13270   1.128   2.163   6.115  1.4764 -0.1094  1.2418
  125OSM   H11B13271   1.233   2.108   5.979 -0.9919 -1.2786 -0.9729
  125OSM      P13272   1.356   2.278   6.233 -0.0747 -0.0464  0.4242
  125OSM    O1313273   1.477   2.270   6.310 -0.0143  0.0330 -0.5399
  125OSM    O1413274   1.357   2.382   6.128  0.3994 -0.6065 -0.3900
  125OSM    O1113275   1.226   2.310   6.323 -0.0402  0.3142  0.2189
  125OSM    O1213276   1.331   2.148   6.162 -0.4051  0.7512 -0.5268
  125OSM    C1S13277   1.212   2.211   6.428  0.5608  0.4957 -0.1424
  125OSM    H1S13278   1.257   2.111   6.410  2.7133  1.6294 -1.5371
  125OSM    H1T13279   1.103   2.197   6.444  0.1698  2.9385 -0.2622
  125OSM     NF13280   1.256   2.160   6.662  0.2271  0.2078  0.5506
  125OSM    HNF13281   1.209   2.190   6.745  0.3707 -1.6617  1.3499
  125OSM    C2S13282   1.263   2.266   6.566 -0.2818  0.3694  0.1105
  125OSM    H2S13283   1.373   2.273   6.555  0.3676 -1.7294  3.8184
  125OSM    C3S13284   1.196   2.400   6.607 -0.0421 -0.9331 -0.8600
  125OSM    H3S13285   1.097   2.374   6.648  0.3571 -1.7318 -0.3941
  125OSM     O313286   1.166   2.486   6.500 -0.3522 -0.6168 -0.1761
  125OSM    HO313287   1.199   2.432   6.428  0.7993  0.7760 -0.7413
  125OSM    C4S13288   1.274   2.478   6.714 -0.0399  0.5468 -0.2033
  125OSM    H4S13289   1.370   2.527   6.689 -0.6629  2.2731  0.6835
  125OSM    C5S13290   1.223   2.520   6.826  0.2659 -0.1355 -0.5421
  125OSM    H5S13291   1.114   2.526   6.836  0.1163  0.0162 -1.9760
  125OSM    C6S13292   1.291   2.595   6.934  0.0445  0.5024  0.2233
  125OSM    H6S13293   1.275   2.704   6.923  0.7008  0.5606 -0.1900
  125OSM    H6T13294   1.401   2.595   6.917 -0.1746  3.9243 -1.9825
  125OSM    C7S13295   1.254   2.549   7.080 -0.1017  0.0782 -0.2162
  125OSM    H7S13296   1.274   2.440   7.082  0.8701  0.2599  0.9962
  125OSM    H7T13297   1.148   2.575   7.104  0.0971  0.8430 -0.1642
  125OSM    C8S13298   1.331   2.632   7.181  0.0465 -0.2603 -0.5235
  125OSM    H8S13299   1.313   2.740   7.158  2.7916  0.8927  2.1034
  125OSM    H8T13300   1.440   2.611   7.177  0.1936 -0.3212  2.1020
  125OSM    C9S13301   1.285   2.611   7.330  0.2881 -0.1922 -0.3163
  125OSM    H9S13302   1.174   2.618   7.339  0.1400 -2.4262  0.4001
  125OSM    H9T13303   1.331   2.683   7.401  0.2542 -0.1544 -0.3318
  125OSM   C10S13304   1.319   2.469   7.377 -0.0612 -1.1501 -0.5298
  125OSM   H10S13305   1.429   2.467   7.365 -0.1341  2.1196 -3.1497
  125OSM   H10T13306   1.277   2.391   7.311  1.1247 -0.6517 -1.9157
  125OSM   C11S13307   1.256   2.439   7.514 -0.4077 -0.0786 -0.6141
  125OSM   H11S13308   1.148   2.467   7.506 -0.3291  0.6314  0.6035
  125OSM   H11T13309   1.294   2.504   7.595  0.8981 -2.6562  0.9666
  125OSM   C12S13310   1.278   2.293   7.554 -0.6958  0.0176 -0.2130
  125OSM   H12S13311   1.385   2.286   7.582 -1.1354  2.2918  2.6260
  125OSM   H12T13312   1.265   2.223   7.469 -0.8070  0.6812 -0.7402
  125OSM   C13S13313   1.203   2.251   7.676  0.4782  0.6906 -0.7681
  125OSM   H13S13314   1.093   2.251   7.662  0.2364 -0.2778  0.8644
  125OSM   H13T13315   1.220   2.316   7.764  0.3545 -0.4773  0.1431
  125OSM   C14S13316   1.234   2.105   7.710  0.0502  0.1566 -0.1423
  125OSM   H14S13317   1.332   2.107   7.762  0.3070 -0.9639 -0.5614
  125OSM   H14T13318   1.226   2.049   7.614 -0.6230  1.4511 -0.8776
  125OSM   C15S13319   1.122   2.057   7.807 -0.2920  0.9435 -0.4274
  125OSM   H15S13320   1.141   1.950   7.832 -0.6458  0.3473 -2.4968
  125OSM   H15T13321   1.024   2.035   7.760  0.2310  2.0344 -2.1087
  125OSM   C16S13322   1.107   2.137   7.934  0.1188  0.0932  0.4766
  125OSM   H16S13323   1.070   2.239   7.914 -1.8268 -0.0262  2.9292
  125OSM   H16T13324   1.212   2.156   7.968  0.5151 -1.8297  0.4355
  125OSM   C17S13325   1.019   2.070   8.041  0.3196  0.0155 -0.3773
  125OSM   H17S13326   1.058   1.970   8.069 -1.0247 -1.1672 -2.4171
  125OSM   H17T13327   0.933   2.028   7.983  1.2073 -1.5704 -0.5993
  125OSM   C18S13328   0.976   2.152   8.167  0.4338 -0.1617  0.5872
  125OSM   H18S13329   0.910   2.085   8.226  1.4021  0.4072  2.3711
  125OSM   H18T13330   0.923   2.242   8.130 -0.7289 -0.8958  0.4191
  125OSM   H18U13331   1.066   2.187   8.222  0.7082  0.8533 -0.4694
  125OSM    C1F13332   1.317   2.039   6.655  0.1741  0.1602  0.9983
  125OSM     OF13333   1.412   2.016   6.574 -0.1292  0.2082 -0.1685
  125OSM    C2F13334   1.250   1.935   6.735  0.3272 -0.5418 -0.0429
  125OSM    H2F13335   1.172   1.884   6.675  1.0391 -0.6058 -0.9353
  125OSM    H2G13336   1.194   1.989   6.814 -0.1437  0.6787 -1.1790
  125OSM    C3F13337   1.348   1.834   6.797  0.1720  0.3789 -0.1430
  125OSM    H3F13338   1.407   1.773   6.726 -0.3947  0.0986 -0.3772
  125OSM    H3G13339   1.288   1.754   6.845 -0.5750  0.8503 -0.2587
  125OSM    C4F13340   1.439   1.903   6.907 -0.0241  0.7675 -0.8988
  125OSM    H4F13341   1.532   1.952   6.872  0.6829 -0.1972 -0.3992
  125OSM    H4G13342   1.461   1.830   6.987 -2.4923 -0.4452 -1.2143
  125OSM    C5F13343   1.372   2.012   6.992  0.1524 -0.2752 -0.1344
  125OSM    H5F13344   1.269   1.980   7.017  0.5860 -0.7770  1.0943
  125OSM    H5G13345   1.377   2.107   6.934 -1.8496  0.0965  0.2148
  125OSM    C6F13346   1.445   2.040   7.127 -0.5853  0.4171  0.3468
  125OSM    H6F13347   1.409   2.134   7.175  2.9592  1.3737  1.4275
  125OSM    H6G13348   1.553   2.048   7.102 -0.6611  1.2055  0.2671
  125OSM    C7F13349   1.416   1.926   7.232  0.6984 -0.5692  0.0373
  125OSM    H7F13350   1.467   1.831   7.205 -1.2561 -2.3053  2.0502
  125OSM    H7G13351   1.307   1.906   7.222  0.2145  2.2947 -1.5354
  125OSM    C8F13352   1.453   1.969   7.383 -0.2692  0.3054 -0.7277
  125OSM    H8F13353   1.399   2.064   7.406 -0.9872 -0.2697  0.0528
  125OSM    H8G13354   1.560   1.991   7.401 -0.8948  1.5722  2.0621
  125OSM    C9F13355   1.413   1.864   7.482  0.3320  0.0363 -0.5756
  125OSM    H9F13356   1.341   1.792   7.440  1.8743 -1.8932 -0.0668
  125OSM   C10F13357   1.467   1.836   7.601  0.1269  0.5674 -0.2398
  125OSM   H10F13358   1.425   1.752   7.658 -0.5885  1.4239  0.5162
  125OSM   C11F13359   1.573   1.916   7.682  0.1886  0.1228  0.1907
  125OSM   H11F13360   1.552   1.933   7.790 -0.0390 -0.1639  0.1921
  125OSM   H11G13361   1.590   2.018   7.641  0.2730  0.0993  0.1685
  125OSM   C12F13362   1.707   1.838   7.676 -0.1053 -0.0511  0.0222
  125OSM   H12F13363   1.791   1.884   7.731  1.4192 -0.6788 -1.6935
  125OSM   H12G13364   1.729   1.840   7.567 -1.7313 -1.4147 -0.3897
  125OSM   C13F13365   1.716   1.683   7.716  0.4551  0.0064  1.1205
  125OSM   H13F13366   1.816   1.639   7.697 -1.1061 -3.9422  1.1235
  125OSM   H13G13367   1.654   1.619   7.650  1.8573 -0.4818  0.2438
  125OSM   C14F13368   1.676   1.661   7.863  0.2106  1.2178  0.1563
  125OSM   H14F13369   1.572   1.697   7.879 -0.2880 -0.3006  0.5474
  125OSM   H14G13370   1.740   1.716   7.936 -0.7526  0.6386  1.4781
  125OSM   C15F13371   1.685   1.510   7.896  0.8268  0.3980 -0.4786
  125OSM   H15F13372   1.787   1.472   7.876  0.2355 -0.4047 -2.1731
  125OSM   H15G13373   1.621   1.463   7.818 -0.2385  1.9809 -0.6083
  125OSM   C16F13374   1.637   1.470   8.040  0.0925  0.4096  1.2524
  125OSM   H16F13375   1.534   1.513   8.043 -0.0453  0.4874 -1.7827
  125OSM   H16G13376   1.713   1.502   8.114  1.6339 -1.7634  0.6979
  125OSM   C17F13377   1.621   1.319   8.049  0.2290  0.6806 -0.0770
  125OSM   H17F13378   1.574   1.290   7.953  0.4037 -2.0251  0.5696
  125OSM   H17G13379   1.545   1.303   8.129  1.9962  1.9574  1.9581
  125OSM   C18F13380   1.746   1.243   8.080  0.0420 -0.0655  0.2560
  125OSM   H18F13381   1.722   1.136   8.096  0.3151 -0.1361  0.2035
  125OSM   H18G13382   1.785   1.272   8.181 -0.2249 -0.9993  0.6392
  125OSM   H18H13383   1.820   1.250   7.998  1.5955 -2.0531  1.3978
  126OSM      N13384   5.654   0.219   6.455 -0.7035  0.2433 -0.0265
  126OSM    C1513385   5.704   0.271   6.327  0.1897 -0.1301 -0.3785
  126OSM   H15A13386   5.633   0.329   6.269  3.5576  0.1006 -4.8280
  126OSM   H15B13387   5.737   0.191   6.262  1.9150  0.2103  0.0365
  126OSM   H15C13388   5.785   0.340   6.341  0.4025 -0.6463  1.0030
  126OSM    C1413389   5.750   0.135   6.529 -0.0936  0.0249 -0.1328
  126OSM   H14A13390   5.793   0.057   6.468  1.1415  0.7500 -0.2237
  126OSM   H14B13391   5.701   0.090   6.614 -1.1227  0.2671 -0.5767
  126OSM   H14C13392   5.833   0.200   6.551 -1.1434  1.1179  0.8099
  126OSM    C1313393   5.622   0.347   6.534 -0.3040  0.2719  0.0635
  126OSM   H13A13394   5.536   0.394   6.489 -0.3991 -0.7654 -0.9073
  126OSM   H13B13395   5.701   0.419   6.529  0.9244 -1.1034 -1.3521
  126OSM   H13C13396   5.617   0.320   6.638 -0.0072 -0.5676 -0.1297
  126OSM    C1213397   5.528   0.137   6.423  1.0441  0.5150  0.3580
  126OSM   H12A13398   5.551   0.044   6.373 -0.3789  0.5249 -0.3537
  126OSM   H12B13399   5.460   0.193   6.360 -1.2823 -0.7207  1.6720
  126OSM    C1113400   5.447   0.102   6.545 -0.5390 -0.3515 -0.2839
  126OSM   H11A13401   5.426   0.197   6.599  1.0922 -0.2191  0.1677
  126OSM   H11B13402   5.512   0.042   6.611 -0.7606 -1.2171 -0.8414
  126OSM      P13403   5.205   0.093   6.446 -0.0442  0.1248 -0.3595
  126OSM    O1313404   5.246   0.177   6.337  0.3068 -0.0652 -0.0753
  126OSM    O1413405   5.090   0.001   6.424  0.7690 -0.1462 -0.1880
  126OSM    O1113406   5.168   0.193   6.566  0.8114  0.3091  0.0998
  126OSM    O1213407   5.331   0.023   6.503 -0.1477  0.0169 -0.0369
  126OSM    C1S13408   5.133   0.140   6.692  1.0075  0.4970 -0.7454
  126OSM    H1S13409   5.136   0.029   6.692 -1.4149  0.3495  1.0491
  126OSM    H1T13410   5.025   0.157   6.712  0.5690 -2.1816 -0.4498
  126OSM     NF13411   5.169   0.126   6.932 -0.2274  0.4469 -0.4906
  126OSM    HNF13412   5.098   0.165   6.991  1.8017  1.1993  1.6306
  126OSM    C2S13413   5.215   0.187   6.814 -0.5267 -0.2057  0.1386
  126OSM    H2S13414   5.320   0.153   6.799 -0.6251  0.5281 -3.0462
  126OSM    C3S13415   5.223   0.342   6.811 -0.2111 -0.2074  0.3812
  126OSM    H3S13416   5.121   0.381   6.828  0.1649  0.5695  0.9405
  126OSM     O313417   5.248   0.399   6.685  0.0288  0.1219  0.1111
  126OSM    HO313418   5.227   0.330   6.622  1.9847 -0.5665  0.1594
  126OSM    C4S13419   5.332   0.406   6.901 -0.6008 -0.2776  0.6510
  126OSM    H4S13420   5.437   0.390   6.875 -0.1830  1.9545  0.7864
  126OSM    C5S13421   5.306   0.499   6.999  0.0381  0.3128 -0.4336
  126OSM    H5S13422   5.201   0.528   7.016  0.8651  1.8468  2.6343
  126OSM    C6S13423   5.405   0.565   7.084 -0.2674  0.1828  0.1035
  126OSM    H6S13424   5.417   0.675   7.078  1.3738  0.0543  0.6114
  126OSM    H6T13425   5.503   0.529   7.048  0.4348  0.6612  1.4590
  126OSM    C7S13426   5.385   0.524   7.229 -0.0458 -0.1695  0.1971
  126OSM    H7S13427   5.361   0.417   7.244 -1.1403  0.1006  0.4839
  126OSM    H7T13428   5.297   0.581   7.268  1.0324  1.0940  0.8656
  126OSM    C8S13429   5.505   0.566   7.321  0.2045 -0.4570  0.1108
  126OSM    H8S13430   5.540   0.670   7.305  1.8709 -1.3351 -2.6806
  126OSM    H8T13431   5.591   0.504   7.286  0.2480 -0.8263  0.8635
  126OSM    C9S13432   5.473   0.563   7.470  0.2414 -0.3922 -0.0431
  126OSM    H9S13433   5.448   0.465   7.515 -1.3548  1.1002  2.5640
  126OSM    H9T13434   5.386   0.626   7.498 -1.3451 -2.4591 -0.0976
  126OSM   C10S13435   5.596   0.617   7.552  0.2629 -0.1228 -0.1954
  126OSM   H10S13436   5.614   0.724   7.526 -0.5278  0.1370  0.2699
  126OSM   H10T13437   5.685   0.558   7.523  0.1751 -1.7239  2.4195
  126OSM   C11S13438   5.584   0.608   7.701 -0.3172 -0.2174  0.4073
  126OSM   H11S13439   5.591   0.504   7.738 -0.6814 -0.2931  0.2647
  126OSM   H11T13440   5.479   0.640   7.718 -1.0042 -1.0776 -1.8698
  126OSM   C12S13441   5.663   0.699   7.785 -0.4194  0.4240 -0.2148
  126OSM   H12S13442   5.645   0.808   7.767  1.1964  1.0679  1.7177
  126OSM   H12T13443   5.768   0.681   7.753 -0.3736 -1.2872  0.7870
  126OSM   C13S13444   5.644   0.676   7.935 -0.2032  0.3841 -0.1913
  126OSM   H13S13445   5.688   0.574   7.944  1.7833  1.3534  2.1904
  126OSM   H13T13446   5.536   0.679   7.961  0.0322  1.8557  0.7013
  126OSM   C14S13447   5.723   0.769   8.022 -0.1915 -0.0408  0.1453
  126OSM   H14S13448   5.717   0.875   7.988  1.0374  0.1762  0.5153
  126OSM   H14T13449   5.833   0.751   8.024  0.0615  1.0830 -1.5164
  126OSM   C15S13450   5.694   0.749   8.172  0.6007  0.8671  0.1208
  126OSM   H15S13451   5.757   0.664   8.205  1.6087  1.7967  0.6944
  126OSM   H15T13452   5.585   0.731   8.178  0.5587  0.6857 -0.9802
  126OSM   C16S13453   5.746   0.868   8.251  0.5601  0.0999  0.2215
  126OSM   H16S13454   5.682   0.955   8.225  2.5949  1.2775 -1.0830
  126OSM   H16T13455   5.849   0.897   8.223  0.5778 -1.1799 -1.1301
  126OSM   C17S13456   5.734   0.846   8.400 -0.1426  0.4113  0.4359
  126OSM   H17S13457   5.800   0.766   8.440  1.8417  2.1529  0.7757
  126OSM   H17T13458   5.629   0.813   8.416 -0.0387 -2.1390 -2.8910
  126OSM   C18S13459   5.759   0.976   8.469  0.2686  0.6638  0.6805
  126OSM   H18S13460   5.700   1.055   8.417 -1.0682 -0.1054  0.9603
  126OSM   H18T13461   5.868   0.997   8.472  0.7126 -1.4661  3.3987
  126OSM   H18U13462   5.724   0.971   8.575  3.5866  1.3614  1.9307
  126OSM    C1F13463   5.195   0.001   6.960  0.7567 -0.3816  0.0872
  126OSM     OF13464   5.255  -0.077   6.887 -0.4309  0.9261 -0.0308
  126OSM    C2F13465   5.131  -0.047   7.079 -0.9364 -0.1098  0.3063
  126OSM    H2F13466   5.083  -0.145   7.057  0.6581 -0.6169 -1.1564
  126OSM    H2G13467   5.057   0.027   7.116 -0.7579 -0.0132  0.4725
  126OSM    C3F13468   5.235  -0.064   7.188 -0.1125  0.4962  0.1565
  126OSM    H3F13469   5.291   0.031   7.200  0.7789  0.0532 -0.4073
  126OSM    H3G13470   5.313  -0.138   7.158  0.4296  0.6553  1.1221
  126OSM    C4F13471   5.170  -0.123   7.319 -0.3294 -0.0599  0.3239
  126OSM    H4F13472   5.160  -0.233   7.311 -0.9992  0.0945 -1.3400
  126OSM    H4G13473   5.069  -0.079   7.333  0.8299  2.7843  0.4542
  126OSM    C5F13474   5.252  -0.066   7.441 -0.2571 -0.2693  0.9316
  126OSM    H5F13475   5.241   0.044   7.434 -1.4144 -0.4162  0.1147
  126OSM    H5G13476   5.361  -0.086   7.435 -0.1974  0.5014 -1.7427
  126OSM    C6F13477   5.196  -0.108   7.578 -0.0975 -1.0752  0.3908
  126OSM    H6F13478   5.196  -0.219   7.582  0.4380 -1.1362 -0.8352
  126OSM    H6G13479   5.091  -0.072   7.582  0.4649  1.0719 -1.7970
  126OSM    C7F13480   5.279  -0.042   7.687 -0.2102  0.0580 -0.5510
  126OSM    H7F13481   5.308   0.060   7.655  0.4621  0.4860  1.2712
  126OSM    H7G13482   5.377  -0.095   7.695 -0.8896 -1.1920 -0.2452
  126OSM    C8F13483   5.209  -0.022   7.822  0.5092 -0.0093  0.4540
  126OSM    H8F13484   5.102   0.006   7.812  0.4200 -0.2172  0.8119
  126OSM    H8G13485   5.260   0.055   7.884 -0.7718 -0.6796  2.4166
  126OSM    C9F13486   5.227  -0.155   7.889  0.4134 -0.8188 -0.2475
  126OSM    H9F13487   5.201  -0.238   7.823  0.8696 -0.8556 -0.3829
  126OSM   C10F13488   5.281  -0.176   8.012 -0.5343 -0.2655 -0.3888
  126OSM   H10F13489   5.272  -0.279   8.051 -1.6273 -0.2562 -0.6071
  126OSM   C11F13490   5.340  -0.081   8.115 -0.0386 -0.0581  0.6568
  126OSM   H11F13491   5.367   0.011   8.060  1.1294 -1.2674 -0.8819
  126OSM   H11G13492   5.443  -0.118   8.135  0.4125  1.5837  1.5721
  126OSM   C12F13493   5.258  -0.048   8.246 -0.4451  0.8272  0.7408
  126OSM   H12F13494   5.331  -0.005   8.318 -0.1275 -2.2468  2.4304
  126OSM   H12G13495   5.223  -0.148   8.280  0.4933  0.3144  0.2479
  126OSM   C13F13496   5.143   0.056   8.218 -0.7871 -0.8014  0.3995
  126OSM   H13F13497   5.082   0.025   8.131 -0.5730  0.1889 -0.1266
  126OSM   H13G13498   5.198   0.146   8.182 -0.6704 -1.7981 -2.1098
  126OSM   C14F13499   5.058   0.079   8.346  0.5666 -0.0552 -0.1975
  126OSM   H14F13500   4.990   0.166   8.335  0.0033 -0.4257  0.3337
  126OSM   H14G13501   5.121   0.106   8.434 -1.8018 -1.0161  1.9174
  126OSM   C15F13502   4.970  -0.036   8.403  0.2479  0.6076 -0.0022
  126OSM   H15F13503   4.894  -0.001   8.477 -0.3199  0.8249 -0.6685
  126OSM   H15G13504   5.029  -0.120   8.445  0.1432  0.9582  0.8555
  126OSM   C16F13505   4.867  -0.098   8.300 -0.3812 -0.3263 -0.0031
  126OSM   H16F13506   4.915  -0.144   8.211  1.2133  1.5077 -0.1766
  126OSM   H16G13507   4.806  -0.018   8.253  1.3862 -0.9500 -3.7554
  126OSM   C17F13508   4.775  -0.194   8.366  0.2144  0.2095 -0.1075
  126OSM   H17F13509   4.706  -0.128   8.424 -2.2888 -0.3933 -2.1761
  126OSM   H17G13510   4.836  -0.262   8.429  0.0300  0.3629  0.2406
  126OSM   C18F13511   4.680  -0.275   8.282 -0.3658  0.3224  0.0518
  126OSM   H18F13512   4.630  -0.345   8.352 -0.9493 -1.0686 -1.6848
  126OSM   H18G13513   4.741  -0.341   8.216 -0.2184  0.1219  0.3854
  126OSM   H18H13514   4.614  -0.209   8.222  0.6613 -0.0842 -1.5793
  127OSM      N13515   5.043   2.270   6.105  0.6530 -0.2082 -0.0894
  127OSM    C1513516   5.069   2.382   6.200 -0.1700  0.2808  0.5914
  127OSM   H15A13517   5.173   2.385   6.228 -0.4767  1.4455  1.6688
  127OSM   H15B13518   5.017   2.360   6.293  0.3525 -1.2533  0.5523
  127OSM   H15C13519   5.036   2.481   6.172  1.0581  0.9684  1.4792
  127OSM    C1413520   4.894   2.273   6.072  0.2902  0.0276 -0.2169
  127OSM   H14A13521   4.871   2.195   6.000 -0.8963 -0.3464  0.5392
  127OSM   H14B13522   4.857   2.371   6.046 -0.3056  0.1886  1.1569
  127OSM   H14C13523   4.844   2.229   6.157  0.4452 -1.6393 -0.9359
  127OSM    C1313524   5.126   2.293   5.980  0.1111 -0.1505  0.3528
  127OSM   H13A13525   5.119   2.211   5.910  1.2047 -1.0977  1.3144
  127OSM   H13B13526   5.225   2.310   6.019 -0.7520 -0.9419  3.0968
  127OSM   H13C13527   5.099   2.389   5.939  0.9954  0.3684  0.9450
  127OSM    C1213528   5.066   2.135   6.172 -0.0741 -0.7250 -0.4238
  127OSM   H12A13529   5.034   2.058   6.104  1.1794 -1.5936 -0.0644
  127OSM   H12B13530   5.006   2.117   6.260 -0.9825 -3.6338 -1.5226
  127OSM    C1113531   5.199   2.097   6.222 -0.4649  0.4623 -0.3053
  127OSM   H11A13532   5.270   2.111   6.137 -0.8671 -0.3105 -0.7765
  127OSM   H11B13533   5.202   1.989   6.246 -0.1783  0.2786 -1.1244
  127OSM      P13534   5.192   2.152   6.478  0.0290  0.5019  0.0574
  127OSM    O1313535   5.219   2.009   6.508 -0.5418  0.0451 -0.3023
  127OSM    O1413536   5.240   2.259   6.571 -0.5019 -0.8760 -0.1526
  127OSM    O1113537   5.031   2.166   6.451  0.0490 -0.3976 -0.2398
  127OSM    O1213538   5.240   2.176   6.333 -0.7060  0.1458 -0.0854
  127OSM    C1S13539   4.944   2.088   6.530 -0.8830  1.0462 -0.1578
  127OSM    H1S13540   4.991   1.991   6.560 -2.0582  0.4735 -0.1073
  127OSM    H1T13541   4.859   2.061   6.464 -0.9726  1.9084 -0.4058
  127OSM     NF13542   4.856   2.063   6.765  0.4195  0.0136  0.3347
  127OSM    HNF13543   4.772   2.075   6.817  0.5092 -2.2356  1.1005
  127OSM    C2S13544   4.877   2.157   6.654 -0.3008 -0.3898 -0.4537
  127OSM    H2S13545   4.949   2.228   6.699 -0.1953 -0.1228 -1.0503
  127OSM    C3S13546   4.760   2.240   6.605  0.9293  0.2186  0.5154
  127OSM    H3S13547   4.691   2.164   6.564  1.8213 -0.6058  0.5079
  127OSM     O313548   4.791   2.324   6.492  0.0069 -0.2331 -0.4061
  127OSM    HO313549   4.876   2.299   6.455  0.3486  0.8071 -0.3509
  127OSM    C4S13550   4.699   2.320   6.717 -0.9251  0.5767  0.9234
  127OSM    H4S13551   4.615   2.274   6.772  0.3332 -0.0560  2.4077
  127OSM    C5S13552   4.737   2.439   6.760  0.0846 -0.0681 -0.4172
  127OSM    H5S13553   4.821   2.490   6.713 -0.2712  1.4124  0.4966
  127OSM    C6S13554   4.674   2.499   6.884  0.2032 -0.0817 -0.2947
  127OSM    H6S13555   4.647   2.606   6.880  1.2712  0.2791  1.2366
  127OSM    H6T13556   4.744   2.498   6.971 -0.9458 -0.4094  0.6634
  127OSM    C7S13557   4.532   2.446   6.932 -0.2404  0.5164 -0.5284
  127OSM    H7S13558   4.536   2.336   6.946 -0.7683  0.7196  1.7348
  127OSM    H7T13559   4.454   2.440   6.853  0.5956 -0.8998 -1.2863
  127OSM    C8S13560   4.466   2.502   7.060  0.7355  0.4127  0.4800
  127OSM    H8S13561   4.363   2.461   7.055  1.7418 -2.1601 -3.8242
  127OSM    H8T13562   4.460   2.613   7.061  0.5381  0.4455 -1.4575
  127OSM    C9S13563   4.534   2.460   7.194  1.3174  0.0573 -0.1869
  127OSM    H9S13564   4.644   2.474   7.192  1.1386  1.6700 -2.1167
  127OSM    H9T13565   4.526   2.350   7.200  1.6453  0.0198 -0.4125
  127OSM   C10S13566   4.471   2.501   7.327  0.1070  0.0336  0.4653
  127OSM   H10S13567   4.360   2.495   7.320  0.0566  0.3595  0.9649
  127OSM   H10T13568   4.490   2.607   7.355  1.1223 -0.5141  1.9250
  127OSM   C11S13569   4.517   2.410   7.447  0.0343  0.4008 -0.5173
  127OSM   H11S13570   4.628   2.411   7.449  0.0700  0.3862 -1.7293
  127OSM   H11T13571   4.497   2.301   7.440 -0.4612  0.4087  0.5707
  127OSM   C12S13572   4.459   2.476   7.573  0.4027 -0.6588 -0.4649
  127OSM   H12S13573   4.356   2.504   7.543  0.7326 -0.2073 -1.2068
  127OSM   H12T13574   4.515   2.570   7.593 -1.2641 -0.1398  2.1591
  127OSM   C13S13575   4.470   2.393   7.701 -0.0015 -0.0870  0.7587
  127OSM   H13S13576   4.575   2.360   7.719  0.3663  2.0143  3.1158
  127OSM   H13T13577   4.413   2.299   7.687 -0.0249 -0.0875  0.8528
  127OSM   C14S13578   4.421   2.470   7.819  0.7163  0.0274 -0.3305
  127OSM   H14S13579   4.325   2.523   7.801  1.1961  0.6352 -1.2356
  127OSM   H14T13580   4.496   2.549   7.843 -0.3764  0.5048  1.7492
  127OSM   C15S13581   4.389   2.387   7.936 -0.4465  0.4201 -0.8044
  127OSM   H15S13582   4.486   2.354   7.979 -0.6657  0.1952 -0.4777
  127OSM   H15T13583   4.334   2.299   7.896 -0.6277  0.2778 -0.2454
  127OSM   C16S13584   4.296   2.450   8.038  0.2672 -0.3854 -0.8263
  127OSM   H16S13585   4.205   2.497   7.996 -1.8520 -1.6541  2.0048
  127OSM   H16T13586   4.353   2.533   8.086 -1.3609 -1.4071  3.3602
  127OSM   C17S13587   4.244   2.353   8.145 -0.5440  0.9304 -0.8052
  127OSM   H17S13588   4.326   2.313   8.209 -0.2997  1.3788 -0.8312
  127OSM   H17T13589   4.193   2.272   8.089 -2.0142  0.1408  1.5168
  127OSM   C18S13590   4.146   2.417   8.239 -0.0920 -0.4380 -0.2879
  127OSM   H18S13591   4.128   2.347   8.323 -0.8626 -1.6936 -1.4521
  127OSM   H18T13592   4.046   2.433   8.194  0.0365  0.1253 -0.3828
  127OSM   H18U13593   4.193   2.514   8.267  1.0484 -0.5187 -1.7660
  127OSM    C1F13594   4.947   1.994   6.828 -0.9094  0.0211  0.3369
  127OSM     OF13595   5.065   2.005   6.804 -0.3167 -0.3334 -0.1124
  127OSM    C2F13596   4.899   1.897   6.940 -0.9329  0.4573  0.5292
  127OSM    H2F13597   4.926   1.797   6.899  1.8289  1.3772 -0.0946
  127OSM    H2G13598   4.789   1.912   6.946 -0.5823  3.0645  1.8679
  127OSM    C3F13599   4.973   1.917   7.075 -0.3816  0.8064 -0.1379
  127OSM    H3F13600   4.942   2.015   7.117  0.8656  0.7543  0.9502
  127OSM    H3G13601   5.082   1.922   7.054 -0.2953  2.4090  0.4969
  127OSM    C4F13602   4.946   1.805   7.183 -0.2544 -0.0738 -0.0568
  127OSM    H4F13603   4.943   1.704   7.138 -1.4280 -0.0329 -0.1187
  127OSM    H4G13604   4.846   1.829   7.227  0.3839  4.0441 -0.3991
  127OSM    C5F13605   5.057   1.796   7.292 -0.7021 -0.7734 -0.5747
  127OSM    H5F13606   5.042   1.897   7.337 -0.5214 -1.1888  0.4388
  127OSM    H5G13607   5.160   1.782   7.253 -0.8920  1.0549 -1.8465
  127OSM    C6F13608   5.033   1.689   7.398 -0.7936  0.0362 -0.0184
  127OSM    H6F13609   5.045   1.586   7.359 -0.2024  0.0806  0.0244
  127OSM    H6G13610   4.927   1.702   7.428 -1.3919  2.3178 -2.6352
  127OSM    C7F13611   5.119   1.691   7.521 -0.5063  0.3351  0.1334
  127OSM    H7F13612   5.225   1.712   7.496 -0.5819 -0.3466 -0.7979
  127OSM    H7G13613   5.097   1.594   7.570 -0.5802  0.0702 -0.4245
  127OSM    C8F13614   5.085   1.809   7.613 -0.4435 -0.7440 -0.1662
  127OSM    H8F13615   4.975   1.799   7.629 -0.4405 -2.3639 -1.0082
  127OSM    H8G13616   5.105   1.900   7.552  0.8411 -0.1415  1.1128
  127OSM    C9F13617   5.150   1.821   7.747  0.2535  0.5351  0.2524
  127OSM    H9F13618   5.256   1.849   7.744  0.8834 -1.7439 -0.5020
  127OSM   C10F13619   5.081   1.798   7.859 -0.4077  0.1355  0.1622
  127OSM   H10F13620   5.124   1.812   7.959 -1.1813 -0.5258  0.6060
  127OSM   C11F13621   4.935   1.748   7.869 -0.0003  0.1312  0.1639
  127OSM   H11F13622   4.926   1.658   7.805 -1.3328  1.3674 -1.4793
  127OSM   H11G13623   4.871   1.826   7.822 -1.0652 -2.0298 -2.1816
  127OSM   C12F13624   4.881   1.701   8.004 -0.2270 -0.3748 -0.3700
  127OSM   H12F13625   4.774   1.677   7.985 -0.2512  1.3317 -2.7966
  127OSM   H12G13626   4.885   1.793   8.067 -1.4491  0.4842 -1.5004
  127OSM   C13F13627   4.949   1.580   8.074  0.0676 -0.2769 -0.2397
  127OSM   H13F13628   5.054   1.615   8.087  0.2748 -0.5080 -1.2568
  127OSM   H13G13629   4.946   1.488   8.012 -2.7446 -1.2478  1.1753
  127OSM   C14F13630   4.884   1.552   8.214 -0.8159  0.1966  0.5362
  127OSM   H14F13631   4.784   1.505   8.200 -0.9350  0.5756  0.1015
  127OSM   H14G13632   4.875   1.651   8.265  0.0809  1.1839 -1.1352
  127OSM   C15F13633   4.978   1.466   8.306  0.1394 -0.6022 -0.1506
  127OSM   H15F13634   5.070   1.515   8.344 -1.4745  0.8801  2.1010
  127OSM   H15G13635   5.002   1.377   8.243 -2.5018 -0.8760 -0.8868
  127OSM   C16F13636   4.905   1.432   8.437  0.0506  0.2690 -0.3418
  127OSM   H16F13637   4.795   1.419   8.447 -0.0473  1.7067  1.0302
  127OSM   H16G13638   4.928   1.520   8.502  1.9313 -0.0982 -0.4486
  127OSM   C17F13639   4.974   1.300   8.484  0.5277 -0.0142 -0.3632
  127OSM   H17F13640   5.084   1.314   8.472  0.2788  2.9113  0.0618
  127OSM   H17G13641   4.959   1.212   8.419 -0.4505 -1.3397  1.5434
  127OSM   C18F13642   4.949   1.261   8.627  0.3810 -0.1616 -0.8670
  127OSM   H18F13643   4.993   1.162   8.653 -1.7894 -0.4571  2.2819
  127OSM   H18G13644   4.841   1.238   8.640  0.2842  0.1325 -1.1565
  127OSM   H18H13645   4.973   1.339   8.702 -2.9132 -0.3880  0.5884
  128OSM      N13646   3.082   6.827   6.578  0.3628  0.3390 -0.3104
  128OSM    C1513647   3.200   6.743   6.559  0.3046  0.0080 -0.3751
  128OSM   H15A13648   3.281   6.785   6.617 -1.0119  1.2449  0.6242
  128OSM   H15B13649   3.219   6.732   6.454 -2.1674  2.2336 -1.1562
  128OSM   H15C13650   3.189   6.645   6.605  1.5102  0.2590  0.5023
  128OSM    C1413651   3.017   6.787   6.711 -0.1143  0.7125  0.8970
  128OSM   H14A13652   3.093   6.772   6.787  1.1682 -2.5124 -0.8112
  128OSM   H14B13653   2.968   6.693   6.694 -1.6708  1.4566  1.0995
  128OSM   H14C13654   2.939   6.856   6.740 -0.2509  0.2600  1.6380
  128OSM    C1313655   3.136   6.969   6.577  0.3896 -0.1424  0.7020
  128OSM   H13A13656   3.217   6.972   6.648 -0.1106 -1.5210  1.3843
  128OSM   H13B13657   3.060   7.043   6.598 -0.3859 -0.6232 -0.3371
  128OSM   H13C13658   3.159   6.999   6.476 -0.5565  2.7031  1.2308
  128OSM    C1213659   2.974   6.815   6.469 -0.3813 -0.1602 -0.2377
  128OSM   H12A13660   2.904   6.897   6.470  1.0665  1.2007  2.3867
  128OSM   H12B13661   2.911   6.729   6.485 -1.0730  0.8786  3.9929
  128OSM    C1113662   3.026   6.806   6.316 -0.5407 -0.3251  0.1526
  128OSM   H11A13663   3.091   6.896   6.303  1.2855 -1.7569 -1.0807
  128OSM   H11B13664   2.937   6.814   6.250  0.2886  0.2055 -0.9382
  128OSM      P13665   3.020   6.549   6.255 -0.0282 -0.4358  0.0544
  128OSM    O1313666   2.944   6.578   6.133  0.3482 -0.6967 -0.1454
  128OSM    O1413667   3.122   6.444   6.245 -0.0821  0.3223 -0.6705
  128OSM    O1113668   2.925   6.521   6.375 -0.4339  0.6344  0.2842
  128OSM    O1213669   3.092   6.681   6.292  0.5611  0.2459 -0.6485
  128OSM    C1S13670   2.959   6.425   6.479 -0.1872 -0.1796  0.3592
  128OSM    H1S13671   3.043   6.469   6.537  1.2664 -1.9917 -0.2638
  128OSM    H1T13672   2.990   6.325   6.443  1.1967  0.2585  0.2625
  128OSM     NF13673   2.881   6.342   6.699 -0.5525 -0.4230  0.0005
  128OSM    HNF13674   2.860   6.245   6.711 -1.4600 -0.3660 -1.0058
  128OSM    C2S13675   2.841   6.397   6.568 -0.3817  0.2870 -0.8678
  128OSM    H2S13676   2.809   6.502   6.584  2.5679  1.2776 -0.8672
  128OSM    C3S13677   2.740   6.316   6.492 -0.4447 -0.6660 -0.1484
  128OSM    H3S13678   2.781   6.213   6.483 -0.8871 -0.9241  0.7564
  128OSM     O313679   2.708   6.351   6.357 -0.4993  0.4151 -0.2282
  128OSM    HO313680   2.784   6.405   6.331 -0.1573 -0.2023 -0.5516
  128OSM    C4S13681   2.615   6.319   6.582  0.0708  0.3760 -0.4405
  128OSM    H4S13682   2.617   6.397   6.660  0.0182  1.0997 -1.1507
  128OSM    C5S13683   2.513   6.231   6.580 -0.0814  0.2137  0.6497
  128OSM    H5S13684   2.512   6.149   6.506  0.4859 -0.6300  1.5493
  128OSM    C6S13685   2.390   6.238   6.670 -0.3635  0.1812  0.3714
  128OSM    H6S13686   2.339   6.141   6.657  3.0558 -1.5841 -1.2344
  128OSM    H6T13687   2.333   6.330   6.644 -0.3828 -0.1534 -0.7941
  128OSM    C7S13688   2.441   6.248   6.817  0.1344  0.7097 -0.1237
  128OSM    H7S13689   2.345   6.233   6.871  1.2194 -1.0898  1.4500
  128OSM    H7T13690   2.470   6.350   6.853 -0.9893  0.4941  1.4886
  128OSM    C8S13691   2.541   6.137   6.856  0.1849  0.1327 -0.2738
  128OSM    H8S13692   2.639   6.154   6.808  1.2631  1.8337  2.3116
  128OSM    H8T13693   2.506   6.037   6.822  0.9866 -0.9455  1.9030
  128OSM    C9S13694   2.566   6.129   7.009  0.4124  0.2690 -0.3320
  128OSM    H9S13695   2.637   6.045   7.023  1.0425  0.9838  0.8973
  128OSM    H9T13696   2.475   6.089   7.057  1.7228 -1.5736  0.7422
  128OSM   C10S13697   2.607   6.255   7.090 -0.2343  0.5945 -0.5181
  128OSM   H10S13698   2.521   6.322   7.110 -0.7966  0.8378 -3.3673
  128OSM   H10T13699   2.677   6.307   7.021  0.2878 -0.6889 -0.9832
  128OSM   C11S13700   2.673   6.217   7.221 -0.3077 -0.2811  0.9531
  128OSM   H11S13701   2.746   6.292   7.257  0.7459 -0.6154 -0.3919
  128OSM   H11T13702   2.731   6.125   7.198 -1.2116  0.0223 -3.3303
  128OSM   C12S13703   2.576   6.181   7.326  0.1176 -0.7070 -0.5630
  128OSM   H12S13704   2.505   6.110   7.279  1.0916 -1.6386 -0.6686
  128OSM   H12T13705   2.518   6.269   7.363  0.9406 -0.2689 -0.2937
  128OSM   C13S13706   2.639   6.106   7.444 -0.1512 -0.5070 -0.5304
  128OSM   H13S13707   2.706   6.178   7.496  1.0269 -0.5290 -1.9403
  128OSM   H13T13708   2.710   6.028   7.410  2.5639  0.6615  2.0383
  128OSM   C14S13709   2.544   6.042   7.544 -0.4950  0.5100  0.4763
  128OSM   H14S13710   2.510   5.949   7.493  2.0668 -0.3962  0.2804
  128OSM   H14T13711   2.466   6.119   7.562  1.2144  2.1630  1.0293
  128OSM   C15S13712   2.615   6.003   7.679  0.1829 -0.4785  0.3625
  128OSM   H15S13713   2.719   5.973   7.652  0.8951  1.5091  0.6632
  128OSM   H15T13714   2.550   5.934   7.736 -2.1941  0.6334 -0.8878
  128OSM   C16S13715   2.627   6.128   7.766 -0.3563 -0.6492  0.8087
  128OSM   H16S13716   2.545   6.200   7.750  1.8518  1.2781 -3.3609
  128OSM   H16T13717   2.708   6.195   7.729 -0.4583  0.0030  1.7587
  128OSM   C17S13718   2.667   6.104   7.912 -0.0717  0.6246 -0.3415
  128OSM   H17S13719   2.577   6.057   7.957 -0.1364  0.7663 -0.3221
  128OSM   H17T13720   2.680   6.198   7.971 -1.6399  0.5796  0.1084
  128OSM   C18S13721   2.786   6.019   7.940 -0.0279  0.0428 -0.5318
  128OSM   H18S13722   2.814   6.022   8.047  3.3186  0.7841 -1.3191
  128OSM   H18T13723   2.877   6.042   7.881  0.7671  2.4438  1.4689
  128OSM   H18U13724   2.753   5.917   7.911 -3.3947  0.8829 -0.0458
  128OSM    C1F13725   2.950   6.405   6.798  0.0505 -0.1987 -0.4482
  128OSM     OF13726   2.955   6.525   6.798  0.1830 -0.6346  0.6728
  128OSM    C2F13727   2.994   6.319   6.917 -0.3784 -0.6123 -0.1102
  128OSM    H2F13728   3.013   6.218   6.874  0.5995  0.0488 -1.3059
  128OSM    H2G13729   2.913   6.322   6.993 -0.7689 -0.1471 -0.5435
  128OSM    C3F13730   3.130   6.372   6.976  0.0544  1.0242 -0.7367
  128OSM    H3F13731   3.121   6.478   7.009  1.9531  1.9389 -2.8863
  128OSM    H3G13732   3.204   6.378   6.893 -0.2599 -2.7893 -1.4818
  128OSM    C4F13733   3.192   6.278   7.082  0.2598  0.4316 -0.3497
  128OSM    H4F13734   3.277   6.336   7.123 -0.2832  0.2111  1.1560
  128OSM    H4G13735   3.224   6.187   7.026 -2.9276 -0.4980 -0.8737
  128OSM    C5F13736   3.099   6.229   7.200  0.3834  0.4094  0.2980
  128OSM    H5F13737   3.039   6.148   7.152  1.4158  0.0630 -0.4365
  128OSM    H5G13738   3.025   6.307   7.227 -0.1727 -0.2385  0.6926
  128OSM    C6F13739   3.167   6.181   7.327 -0.7307  0.0844 -1.0805
  128OSM    H6F13740   3.222   6.085   7.314 -0.1747  0.4333 -1.3556
  128OSM    H6G13741   3.092   6.166   7.408 -0.1892 -1.3070 -0.8086
  128OSM    C7F13742   3.275   6.269   7.387  0.1582 -0.3704 -0.2427
  128OSM    H7F13743   3.241   6.374   7.376  0.8543  0.2659  2.9078
  128OSM    H7G13744   3.370   6.263   7.329  1.3094 -0.7096  1.5860
  128OSM    C8F13745   3.283   6.225   7.535 -0.7602 -0.0630 -0.0182
  128OSM    H8F13746   3.182   6.214   7.581 -0.9511  0.1659 -0.3793
  128OSM    H8G13747   3.330   6.306   7.595  1.6066 -1.7557  0.5639
  128OSM    C9F13748   3.371   6.108   7.550 -0.1331 -0.2393  0.1797
  128OSM    H9F13749   3.348   6.033   7.473  2.2517 -0.0068 -0.8321
  128OSM   C10F13750   3.479   6.089   7.633  0.2021 -0.7527 -0.2812
  128OSM   H10F13751   3.541   5.997   7.638 -0.0955 -0.8931  1.0311
  128OSM   C11F13752   3.530   6.196   7.737 -0.1603 -0.4032  0.4050
  128OSM   H11F13753   3.494   6.299   7.717  2.9126  1.0083  1.4536
  128OSM   H11G13754   3.640   6.183   7.721 -0.1830  0.2950 -0.4381
  128OSM   C12F13755   3.514   6.168   7.889  0.6452 -0.1738  0.3662
  128OSM   H12F13756   3.542   6.061   7.904  0.5175 -0.0685  1.3835
  128OSM   H12G13757   3.408   6.169   7.922  0.5532  1.5010  0.0888
  128OSM   C13F13758   3.593   6.277   7.974 -0.0023 -0.2062  0.2571
  128OSM   H13F13759   3.548   6.376   7.951 -3.2586 -1.7194 -0.3911
  128OSM   H13G13760   3.693   6.267   7.926 -0.9175 -2.9795 -1.3344
  128OSM   C14F13761   3.600   6.255   8.123 -0.2954  1.0289 -0.1265
  128OSM   H14F13762   3.650   6.160   8.153 -0.4309  1.6960  2.4896
  128OSM   H14G13763   3.498   6.257   8.168  0.2087  1.5119  1.0534
  128OSM   C15F13764   3.679   6.360   8.204 -0.3396 -0.1830  0.4824
  128OSM   H15F13765   3.614   6.449   8.190  0.2191 -0.0132 -1.3017
  128OSM   H15G13766   3.773   6.375   8.146 -0.3728 -0.9755  0.2088
  128OSM   C16F13767   3.713   6.342   8.351  0.0052 -0.1619 -0.1582
  128OSM   H16F13768   3.800   6.397   8.393 -0.8398 -1.2701  3.3973
  128OSM   H16G13769   3.728   6.232   8.361 -3.4591 -0.7831 -0.4119
  128OSM   C17F13770   3.603   6.381   8.453  0.2453 -0.0746  0.4817
  128OSM   H17F13771   3.595   6.491   8.442 -1.8946 -0.2947 -0.7105
  128OSM   H17G13772   3.639   6.347   8.552  1.7882 -0.2076 -0.0958
  128OSM   C18F13773   3.468   6.324   8.416  0.5650 -0.0630 -0.1900
  128OSM   H18F13774   3.440   6.354   8.313  2.8139  0.5495 -0.6830
  128OSM   H18G13775   3.399   6.359   8.496  1.3043  0.6321  0.1677
  128OSM   H18H13776   3.477   6.213   8.411 -0.1108 -0.1902  1.0909
  129OSM      N13777   0.589   0.231   5.859  0.3833 -0.4918 -0.2453
  129OSM    C1513778   0.714   0.270   5.791  0.9861 -0.4939 -0.2946
  129OSM   H15A13779   0.700   0.323   5.698  2.4286  1.2993  0.4462
  129OSM   H15B13780   0.764   0.175   5.779  0.6879 -0.7507  0.4487
  129OSM   H15C13781   0.775   0.333   5.854  0.1672 -1.2311  1.3158
  129OSM    C1413782   0.495   0.352   5.885 -0.2339  0.5471  0.3793
  129OSM   H14A13783   0.489   0.412   5.796 -1.6476  1.4990  1.0723
  129OSM   H14B13784   0.524   0.421   5.963  0.2921 -0.4306  1.0741
  129OSM   H14C13785   0.394   0.315   5.895 -0.3997  0.6870 -0.6586
  129OSM    C1313786   0.512   0.147   5.759  0.2121  0.0666 -0.9043
  129OSM   H13A13787   0.583   0.067   5.753  1.5842  1.1890 -0.1823
  129OSM   H13B13788   0.493   0.211   5.674 -3.2254 -0.8542 -1.0018
  129OSM   H13C13789   0.417   0.107   5.791  0.1663  2.5794  2.8526
  129OSM    C1213790   0.611   0.155   5.992  0.2962  0.3495 -0.0925
  129OSM   H12A13791   0.661   0.062   5.968  1.6778  1.6206 -2.4905
  129OSM   H12B13792   0.509   0.137   6.024  0.8300  0.4694  1.8001
  129OSM    C1113793   0.684   0.230   6.108 -0.2114 -0.1313 -0.1908
  129OSM   H11A13794   0.674   0.159   6.193  0.5024  0.6813  0.5963
  129OSM   H11B13795   0.645   0.332   6.128  0.7056  0.2296 -0.1872
  129OSM      P13796   0.925   0.330   6.158 -0.0723 -0.1719 -0.5343
  129OSM    O1313797   1.055   0.350   6.086  0.2649  0.8829  0.1688
  129OSM    O1413798   0.857   0.456   6.207 -0.2226 -0.3899 -0.2164
  129OSM    O1113799   0.954   0.234   6.284  0.3290 -0.3208  0.2208
  129OSM    O1213800   0.818   0.244   6.068 -0.3598 -0.2191 -0.0135
  129OSM    C1S13801   1.016   0.104   6.258 -0.0046  0.0731  0.4613
  129OSM    H1S13802   1.107   0.108   6.194 -1.7383 -1.6728 -2.3580
  129OSM    H1T13803   0.953   0.029   6.204  2.0730  1.3508 -4.3313
  129OSM     NF13804   1.170  -0.076   6.343  0.0974  0.2746 -0.0616
  129OSM    HNF13805   1.142  -0.164   6.381  0.2519  0.1744 -0.1760
  129OSM    C2S13806   1.083   0.042   6.376 -0.6497  0.2601 -0.6399
  129OSM    H2S13807   1.149   0.117   6.426 -0.9670 -0.6436  1.2325
  129OSM    C3S13808   0.980   0.028   6.492  0.4062  1.0910  0.4368
  129OSM    H3S13809   0.900  -0.042   6.460  0.4757  1.8581 -1.5589
  129OSM     O313810   0.894   0.135   6.516 -0.4039  0.1160 -0.3525
  129OSM    HO313811   0.900   0.177   6.430  2.3048  0.1349 -0.2617
  129OSM    C4S13812   1.044  -0.028   6.613  0.0534 -0.0917 -0.2078
  129OSM    H4S13813   1.079  -0.132   6.611  1.1505  0.1039  2.9445
  129OSM    C5S13814   1.083   0.045   6.720 -0.7055 -0.3260 -0.2413
  129OSM    H5S13815   1.058   0.152   6.723  0.6396 -0.0226  0.6864
  129OSM    C6S13816   1.163  -0.002   6.836  0.0314  0.8582 -0.6733
  129OSM    H6S13817   1.265   0.039   6.857  0.9008 -1.8202  0.8940
  129OSM    H6T13818   1.174  -0.112   6.825 -0.5518  0.6974  0.2130
  129OSM    C7S13819   1.081   0.018   6.967  0.4648 -0.1638 -0.1431
  129OSM    H7S13820   0.995  -0.052   6.961 -0.3462  0.8394 -0.5914
  129OSM    H7T13821   1.050   0.124   6.974 -0.2635 -0.3977  0.2657
  129OSM    C8S13822   1.150  -0.024   7.096 -0.0846  0.6828 -0.3155
  129OSM    H8S13823   1.224   0.051   7.132  2.4816 -1.0114 -1.7277
  129OSM    H8T13824   1.208  -0.117   7.076  0.9726  1.4331 -0.8663
  129OSM    C9S13825   1.047  -0.050   7.205 -0.4206  0.0706 -0.5509
  129OSM    H9S13826   0.978  -0.137   7.189 -0.7512  0.5035 -1.5995
  129OSM    H9T13827   0.972   0.031   7.215 -2.1562 -1.5562  0.3937
  129OSM   C10S13828   1.121  -0.077   7.345 -0.2161 -0.2595  0.9534
  129OSM   H10S13829   1.161   0.020   7.380  0.6951  0.3846 -1.6260
  129OSM   H10T13830   1.203  -0.151   7.329  0.8070  0.2864  3.3074
  129OSM   C11S13831   1.016  -0.124   7.444  0.3774 -0.1120  0.5534
  129OSM   H11S13832   0.975  -0.225   7.427 -0.4269  0.1351  0.9912
  129OSM   H11T13833   0.923  -0.063   7.447 -0.8832 -1.9459  0.1264
  129OSM   C12S13834   1.059  -0.123   7.591  0.3096  0.1546 -0.3566
  129OSM   H12S13835   1.097  -0.022   7.617 -2.0505  1.1075 -0.4098
  129OSM   H12T13836   1.143  -0.196   7.592  0.1912 -0.0443  2.3868
  129OSM   C13S13837   0.951  -0.167   7.688 -0.0110 -0.1788 -0.3205
  129OSM   H13S13838   0.943  -0.277   7.687 -2.9424 -0.1007  1.9595
  129OSM   H13T13839   0.852  -0.121   7.670 -0.2398 -0.3561  0.4522
  129OSM   C14S13840   0.980  -0.120   7.826  0.2760  0.1085  0.4388
  129OSM   H14S13841   0.992  -0.010   7.832 -1.8932  0.3552  1.4623
  129OSM   H14T13842   1.080  -0.162   7.848  0.1979  0.8042  2.2758
  129OSM   C15S13843   0.873  -0.172   7.925 -0.2408 -0.6309  0.6300
  129OSM   H15S13844   0.858  -0.282   7.920  0.8307 -0.7800  0.4145
  129OSM   H15T13845   0.773  -0.128   7.905 -0.0877 -0.6261 -0.1250
  129OSM   C16S13846   0.915  -0.129   8.065  1.1270  0.5396 -1.1142
  129OSM   H16S13847   0.909  -0.020   8.085 -2.4409  0.2771  0.0936
  129OSM   H16T13848   1.013  -0.175   8.087  1.8948  2.3563 -0.5297
  129OSM   C17S13849   0.805  -0.184   8.171 -0.3532  0.6738 -0.0997
  129OSM   H17S13850   0.799  -0.292   8.147  2.0622  0.9179 -2.2329
  129OSM   H17T13851   0.710  -0.130   8.149  0.4608  2.2927  0.1597
  129OSM   C18S13852   0.854  -0.162   8.317  0.5718 -0.7684  0.1037
  129OSM   H18S13853   0.943  -0.227   8.331  1.1117  0.3832  2.5927
  129OSM   H18T13854   0.778  -0.203   8.387 -1.1579  0.6272 -0.8790
  129OSM   H18U13855   0.867  -0.054   8.336  0.4832 -0.3742 -1.8527
  129OSM    C1F13856   1.288  -0.075   6.283 -0.4134  0.3578  0.0951
  129OSM     OF13857   1.338   0.030   6.256 -0.0820  0.1863 -0.0215
  129OSM    C2F13858   1.359  -0.200   6.253  0.1279 -0.2408  0.4545
  129OSM    H2F13859   1.346  -0.213   6.144 -0.9036  1.0181  0.4069
  129OSM    H2G13860   1.307  -0.279   6.312  1.7045 -1.8263 -0.1881
  129OSM    C3F13861   1.502  -0.219   6.288 -0.2648 -0.2411 -0.2742
  129OSM    H3F13862   1.566  -0.138   6.246  0.6942 -1.8948 -2.1685
  129OSM    H3G13863   1.541  -0.313   6.243  1.1870 -0.5805  1.5445
  129OSM    C4F13864   1.530  -0.230   6.444 -0.0247  0.5134 -0.5064
  129OSM    H4F13865   1.640  -0.241   6.453  0.5730  1.8970 -4.2201
  129OSM    H4G13866   1.486  -0.328   6.471 -0.0319  0.4917 -0.5946
  129OSM    C5F13867   1.486  -0.110   6.520 -0.1604  0.2409 -0.6729
  129OSM    H5F13868   1.375  -0.112   6.518 -0.1644 -1.3878 -2.9384
  129OSM    H5G13869   1.523  -0.026   6.457 -1.2956  0.8534 -0.5473
  129OSM    C6F13870   1.541  -0.103   6.663 -0.0307 -0.4694  0.5506
  129OSM    H6F13871   1.650  -0.116   6.648 -0.2580 -0.1516 -1.8689
  129OSM    H6G13872   1.501  -0.187   6.723  0.4376 -0.2508  1.1714
  129OSM    C7F13873   1.526   0.036   6.729  0.4064 -0.1483  0.0347
  129OSM    H7F13874   1.423   0.075   6.719  1.1522  1.5912 -1.3581
  129OSM    H7G13875   1.581   0.097   6.654 -1.4827 -0.5931 -1.8071
  129OSM    C8F13876   1.570   0.043   6.877  0.4051  0.5846  0.1709
  129OSM    H8F13877   1.545   0.145   6.914  0.0364  0.2056  0.9981
  129OSM    H8G13878   1.680   0.034   6.892  0.8208  3.3975 -0.6353
  129OSM    C9F13879   1.512  -0.067   6.965 -0.6755 -0.1298 -0.1576
  129OSM    H9F13880   1.423  -0.113   6.918 -1.3589 -1.2648  2.1204
  129OSM   C10F13881   1.534  -0.108   7.094 -0.3900 -0.6320  0.8777
  129OSM   H10F13882   1.476  -0.193   7.131  0.1574 -0.5756  1.9240
  129OSM   C11F13883   1.634  -0.045   7.188  0.7359  0.1061  0.0997
  129OSM   H11F13884   1.698   0.028   7.133  0.6690  1.3293  1.5727
  129OSM   H11G13885   1.697  -0.125   7.234 -1.1713 -1.5018  0.0269
  129OSM   C12F13886   1.563   0.007   7.319 -0.2917 -0.2651  0.3464
  129OSM   H12F13887   1.484   0.081   7.293  1.4126  0.8076 -2.2229
  129OSM   H12G13888   1.634   0.070   7.376 -0.1526  1.1070 -1.2748
  129OSM   C13F13889   1.508  -0.109   7.408 -0.6900  0.4788  0.4456
  129OSM   H13F13890   1.588  -0.182   7.430 -0.0022  1.4230  1.2169
  129OSM   H13G13891   1.432  -0.152   7.339  0.3153 -2.4067  1.0025
  129OSM   C14F13892   1.438  -0.062   7.537  0.4545 -0.8530  0.3217
  129OSM   H14F13893   1.329  -0.068   7.520  0.3952 -0.5574  0.5926
  129OSM   H14G13894   1.466   0.045   7.552 -2.2835  0.2930 -1.7920
  129OSM   C15F13895   1.482  -0.147   7.658  0.3357 -0.0715 -0.0538
  129OSM   H15F13896   1.593  -0.140   7.656  0.2335  2.3476  0.0378
  129OSM   H15G13897   1.447  -0.252   7.645  3.6240 -1.0130 -2.3585
  129OSM   C16F13898   1.435  -0.082   7.787  0.8373 -0.5277  0.7638
  129OSM   H16F13899   1.324  -0.089   7.783  0.8517 -0.8704  0.9795
  129OSM   H16G13900   1.452   0.028   7.783 -0.9452 -0.1459  2.2733
  129OSM   C17F13901   1.493  -0.143   7.917 -0.3232  0.0719 -0.1236
  129OSM   H17F13902   1.514  -0.250   7.892  0.4987 -0.2139  1.6211
  129OSM   H17G13903   1.454  -0.118   8.018  1.0258 -1.5336  0.8612
  129OSM   C18F13904   1.644  -0.101   7.925  0.3125  0.4217 -0.0339
  129OSM   H18F13905   1.706  -0.135   7.839 -0.7415 -0.7201 -0.3710
  129OSM   H18G13906   1.695  -0.138   8.017  1.0090  1.2966 -0.0464
  129OSM   H18H13907   1.635   0.010   7.923  0.1853  0.4270  0.5018
  130OSM      N13908   3.888   5.253   6.010 -0.0385 -0.7309 -0.8400
  130OSM    C1513909   3.764   5.337   6.004 -0.7070 -0.7151 -0.1064
  130OSM   H15A13910   3.694   5.319   5.923  0.0299  0.1862 -0.9795
  130OSM   H15B13911   3.794   5.441   5.994  1.1462 -1.3501 -1.7062
  130OSM   H15C13912   3.699   5.319   6.088 -1.9540 -2.5328 -1.4003
  130OSM    C1413913   3.839   5.116   5.969 -1.1307 -0.9746  0.2774
  130OSM   H14A13914   3.786   5.132   5.876 -2.2312  0.0195  1.0504
  130OSM   H14B13915   3.771   5.079   6.044 -0.8969 -0.9662  0.4953
  130OSM   H14C13916   3.923   5.048   5.961  1.8714  2.2908  1.3765
  130OSM    C1313917   3.988   5.309   5.905 -0.1153  0.4198  0.0881
  130OSM   H13A13918   4.025   5.410   5.915 -1.9201  1.0866  0.3273
  130OSM   H13B13919   3.937   5.302   5.810  0.3131  0.2919 -0.1372
  130OSM   H13C13920   4.078   5.250   5.894  1.3014  2.5185 -0.3316
  130OSM    C1213921   3.946   5.255   6.146  0.2361  0.1289 -0.1175
  130OSM   H12A13922   3.967   5.360   6.165  0.5330 -0.1315  1.0409
  130OSM   H12B13923   4.034   5.193   6.153  0.1578  0.0606  0.2568
  130OSM    C1113924   3.842   5.222   6.261 -0.2252  0.0788 -0.3806
  130OSM   H11A13925   3.764   5.301   6.260 -1.7394 -1.2951  1.6223
  130OSM   H11B13926   3.899   5.227   6.357  0.2585  0.1608 -0.6637
  130OSM      P13927   3.835   4.971   6.318  0.3854 -0.2596  0.4213
  130OSM    O1313928   3.748   4.853   6.295 -0.0958  0.3536  0.9497
  130OSM    O1413929   3.979   4.965   6.288 -0.1533  0.2046  0.3749
  130OSM    O1113930   3.823   5.018   6.468 -0.5242  0.3421 -0.6797
  130OSM    O1213931   3.774   5.098   6.244 -0.6989 -0.6865 -0.8586
  130OSM    C1S13932   3.688   5.020   6.528 -0.5310  0.0210  0.5823
  130OSM    H1S13933   3.617   4.947   6.485  0.3138 -0.9457  0.8036
  130OSM    H1T13934   3.638   5.119   6.515 -1.0080 -0.4778 -1.8440
  130OSM     NF13935   3.579   5.000   6.751 -0.4479 -0.1541  0.0163
  130OSM    HNF13936   3.566   5.084   6.803 -2.1535 -0.3526 -0.0154
  130OSM    C2S13937   3.704   4.992   6.678 -0.3577 -0.1590  0.3255
  130OSM    H2S13938   3.746   4.889   6.684 -1.6035 -0.6620  0.6919
  130OSM    C3S13939   3.813   5.084   6.747 -0.3244 -0.1785 -0.4726
  130OSM    H3S13940   3.774   5.188   6.745 -1.3683 -0.4323  2.4678
  130OSM     O313941   3.942   5.088   6.691 -0.0575  0.3771  0.4854
  130OSM    HO313942   3.939   5.056   6.601  0.7786  1.4539  0.0403
  130OSM    C4S13943   3.830   5.051   6.899  0.4761  0.2030 -0.7093
  130OSM    H4S13944   3.889   4.959   6.912  0.8882  0.5556 -0.0089
  130OSM    C5S13945   3.782   5.112   7.004 -0.2895 -0.0401 -0.5763
  130OSM    H5S13946   3.719   5.201   6.993  1.0834  0.9548 -0.7623
  130OSM    C6S13947   3.799   5.050   7.135  0.3734  0.0921  0.2934
  130OSM    H6S13948   3.869   5.123   7.182  1.4504 -0.2516 -0.7290
  130OSM    H6T13949   3.856   4.955   7.137  0.8614  0.3664 -0.2616
  130OSM    C7S13950   3.670   5.022   7.217  0.3159  0.4913 -0.0912
  130OSM    H7S13951   3.603   4.967   7.149 -1.5568  1.8106  0.5968
  130OSM    H7T13952   3.618   5.117   7.239 -0.4835  0.1572 -0.5030
  130OSM    C8S13953   3.693   4.938   7.346  0.5744  0.1954 -0.3848
  130OSM    H8S13954   3.767   4.990   7.410 -0.0705 -0.3019  0.8095
  130OSM    H8T13955   3.728   4.836   7.317 -4.7667 -1.3201 -2.8457
  130OSM    C9S13956   3.570   4.919   7.437  0.4177  0.4899  0.7764
  130OSM    H9S13957   3.504   4.843   7.390  0.8192 -0.2207  1.3492
  130OSM    H9T13958   3.525   5.021   7.445  2.1026  1.1956  1.8630
  130OSM   C10S13959   3.601   4.859   7.572  0.1635 -0.5697 -0.4280
  130OSM   H10S13960   3.652   4.941   7.628  2.1245 -1.4114 -0.8967
  130OSM   H10T13961   3.676   4.777   7.571 -0.0268 -0.7485 -0.1320
  130OSM   C11S13962   3.476   4.826   7.649  0.7306 -0.4150 -0.1458
  130OSM   H11S13963   3.414   4.918   7.656 -1.2420 -1.5751 -1.3761
  130OSM   H11T13964   3.501   4.787   7.750 -0.3266  1.4035  0.8707
  130OSM   C12S13965   3.387   4.711   7.594 -0.4957  0.0126 -0.1251
  130OSM   H12S13966   3.455   4.626   7.571 -0.2808  0.4519 -1.2119
  130OSM   H12T13967   3.354   4.763   7.501  1.2995  2.0648  0.3042
  130OSM   C13S13968   3.272   4.679   7.685 -0.9271  0.6160  0.0138
  130OSM   H13S13969   3.187   4.660   7.617 -0.8162 -0.0299  0.0534
  130OSM   H13T13970   3.244   4.769   7.745 -0.6931 -1.1902  3.0153
  130OSM   C14S13971   3.297   4.561   7.778 -0.7684 -0.1856  0.1117
  130OSM   H14S13972   3.400   4.561   7.820 -0.7653  2.4015  0.2307
  130OSM   H14T13973   3.295   4.472   7.710  0.2647 -1.0803  1.2146
  130OSM   C15S13974   3.186   4.539   7.881 -0.0258  0.0793 -0.4631
  130OSM   H15S13975   3.088   4.559   7.831  0.3783  0.5173 -1.0916
  130OSM   H15T13976   3.197   4.605   7.970 -1.9819 -0.3065  0.1144
  130OSM   C16S13977   3.187   4.409   7.955  0.3791  0.3966  0.0320
  130OSM   H16S13978   3.287   4.388   7.996  0.2267  1.0789  0.7882
  130OSM   H16T13979   3.156   4.326   7.889 -1.7724  0.8518  0.3705
  130OSM   C17S13980   3.081   4.396   8.072  0.1360  0.2463 -0.7401
  130OSM   H17S13981   2.982   4.429   8.033 -0.2066 -0.6925 -0.6965
  130OSM   H17T13982   3.105   4.476   8.145  0.2093  0.0199 -0.5183
  130OSM   C18S13983   3.062   4.262   8.140 -0.1398 -0.3094 -0.1610
  130OSM   H18S13984   3.151   4.234   8.200  2.2120 -0.1591 -3.3610
  130OSM   H18T13985   3.037   4.178   8.072 -0.1306 -1.0116  0.6803
  130OSM   H18U13986   2.983   4.266   8.219 -2.2019 -0.3643 -2.1188
  130OSM    C1F13987   3.484   4.901   6.740 -0.4865  0.3214  0.6927
  130OSM     OF13988   3.495   4.811   6.656 -0.2103  0.0049  0.6659
  130OSM    C2F13989   3.365   4.907   6.829 -0.2976 -0.2740  0.1168
  130OSM    H2F13990   3.391   4.974   6.914  0.6574  3.9834 -3.1817
  130OSM    H2G13991   3.337   4.807   6.869 -0.3311  0.7125  2.7630
  130OSM    C3F13992   3.232   4.957   6.764 -0.0849 -0.3326  0.2570
  130OSM    H3F13993   3.205   4.870   6.700 -0.8763  0.0479  0.0610
  130OSM    H3G13994   3.234   5.059   6.720  1.5665 -0.2969  0.3598
  130OSM    C4F13995   3.113   4.980   6.856  0.7445  0.5753 -0.1704
  130OSM    H4F13996   3.044   5.059   6.819 -1.9098 -1.4236  0.1496
  130OSM    H4G13997   3.139   5.001   6.962 -0.4481 -1.6969  0.6480
  130OSM    C5F13998   3.012   4.868   6.885  0.1262 -0.0259  0.2981
  130OSM    H5F13999   2.938   4.890   6.965 -0.7831  2.7026 -1.1990
  130OSM    H5G14000   3.063   4.774   6.916 -2.3812 -1.8802 -0.8013
  130OSM    C6F14001   2.939   4.828   6.755 -0.2419  0.4755 -0.2482
  130OSM    H6F14002   3.014   4.810   6.675 -0.9722 -1.5806 -0.5372
  130OSM    H6G14003   2.891   4.920   6.716  0.8530  1.4440  0.6036
  130OSM    C7F14004   2.843   4.704   6.758 -0.2814 -0.2063  0.8101
  130OSM    H7F14005   2.828   4.672   6.653  2.8714 -5.2962  1.5547
  130OSM    H7G14006   2.745   4.731   6.803 -1.7174 -1.5687 -1.3218
  130OSM    C8F14007   2.919   4.585   6.821  0.4918 -0.1484  0.1891
  130OSM    H8F14008   2.922   4.609   6.929 -0.4982 -1.3935  0.5191
  130OSM    H8G14009   3.024   4.586   6.786  0.4335  0.4435  0.0247
  130OSM    C9F14010   2.847   4.450   6.802  0.2375 -0.1083 -0.0281
  130OSM    H9F14011   2.842   4.412   6.699 -1.9713  2.1733 -0.8827
  130OSM   C10F14012   2.768   4.387   6.889 -0.1481 -0.0192 -1.1620
  130OSM   H10F14013   2.736   4.287   6.858  0.1460 -0.0705 -1.3014
  130OSM   C11F14014   2.739   4.418   7.036  0.0829 -0.3044 -0.4417
  130OSM   H11F14015   2.647   4.363   7.066  1.2900 -2.7981 -1.0182
  130OSM   H11G14016   2.704   4.523   7.045  0.2161 -0.2952 -0.0084
  130OSM   C12F14017   2.848   4.389   7.145 -1.2508 -0.4267 -0.6479
  130OSM   H12F14018   2.927   4.467   7.141  1.5486 -3.1311 -2.3140
  130OSM   H12G14019   2.907   4.299   7.115  0.3302  0.3000  0.1464
  130OSM   C13F14020   2.781   4.385   7.283 -0.1990 -0.0680 -0.5848
  130OSM   H13F14021   2.695   4.316   7.268 -0.5031 -0.0908  0.9988
  130OSM   H13G14022   2.738   4.486   7.299 -0.1189  0.1956 -1.9584
  130OSM   C14F14023   2.866   4.351   7.407 -0.6175  0.2005 -0.3684
  130OSM   H14F14024   2.952   4.420   7.422 -0.0386 -0.6727  0.3687
  130OSM   H14G14025   2.906   4.250   7.384 -1.7038 -0.6517  1.2875
  130OSM   C15F14026   2.791   4.318   7.532 -0.5527 -0.6202  0.1065
  130OSM   H15F14027   2.760   4.213   7.515  0.5631 -0.6863 -1.7951
  130OSM   H15G14028   2.706   4.389   7.541  1.1529  1.4464  0.8967
  130OSM   C16F14029   2.878   4.331   7.661 -0.5820  0.3057 -0.6083
  130OSM   H16F14030   2.935   4.426   7.662 -0.3488  0.1701 -0.9153
  130OSM   H16G14031   2.953   4.249   7.662  1.0317  1.7265 -0.3454
  130OSM   C17F14032   2.801   4.314   7.796  0.6658  0.2014  0.0127
  130OSM   H17F14033   2.867   4.312   7.885 -1.0737 -0.4262  1.3402
  130OSM   H17G14034   2.739   4.222   7.797  0.9749 -0.0014  1.4399
  130OSM   C18F14035   2.700   4.428   7.820 -0.0901  0.5961  0.5777
  130OSM   H18F14036   2.619   4.416   7.895 -1.9037  4.2384 -0.5487
  130OSM   H18G14037   2.643   4.434   7.725  0.2514 -2.2938  0.1149
  130OSM   H18H14038   2.753   4.525   7.834 -0.3457  1.0548 -1.3573
  131OSM      N14039   2.206   0.733   5.940 -0.6978 -0.8163 -1.1049
  131OSM    C1514040   2.078   0.677   5.905  0.7074 -0.5315 -0.1424
  131OSM   H15A14041   2.008   0.758   5.896  1.3242 -0.0751 -1.0337
  131OSM   H15B14042   2.043   0.607   5.979  2.1784  1.9297  3.1358
  131OSM   H15C14043   2.078   0.638   5.804  2.2120  4.3000 -2.2935
  131OSM    C1414044   2.315   0.634   5.947 -0.1204  0.2152  0.1098
  131OSM   H14A14045   2.296   0.569   6.031  0.4372  0.5927  0.5340
  131OSM   H14B14046   2.413   0.674   5.971  0.4659 -1.9322  1.5525
  131OSM   H14C14047   2.318   0.575   5.857 -3.5504 -1.0293  0.6863
  131OSM    C1314048   2.263   0.838   5.847 -0.4195  0.0934 -0.0208
  131OSM   H13A14049   2.318   0.804   5.760  0.0174 -1.1620  0.7071
  131OSM   H13B14050   2.341   0.892   5.900  1.5651 -0.5235 -2.1453
  131OSM   H13C14051   2.185   0.903   5.812  0.1897 -0.1568 -1.9658
  131OSM    C1214052   2.197   0.792   6.086 -1.3238 -0.3724  0.3175
  131OSM   H12A14053   2.183   0.715   6.159 -1.4555 -0.5812  0.0753
  131OSM   H12B14054   2.111   0.856   6.101  0.0279  1.2083  1.6921
  131OSM    C1114055   2.308   0.889   6.135 -0.0759  0.0740  0.4148
  131OSM   H11A14056   2.274   0.926   6.234 -1.5540  0.5838 -0.2552
  131OSM   H11B14057   2.314   0.975   6.065 -1.1640 -2.3058 -2.8346
  131OSM      P14058   2.570   0.915   6.140  0.1207 -0.1021 -0.2590
  131OSM    O1314059   2.695   0.834   6.149  0.1938 -0.5306 -0.0045
  131OSM    O1414060   2.564   0.989   6.012  0.2052 -0.2078 -0.1135
  131OSM    O1114061   2.558   1.021   6.254  0.2056 -0.3882 -0.2429
  131OSM    O1214062   2.438   0.825   6.151 -0.1229 -0.8000 -0.2511
  131OSM    C1S14063   2.529   0.970   6.386  0.0419  0.0753  0.5830
  131OSM    H1S14064   2.598   0.887   6.413  0.1803  0.2693  0.8218
  131OSM    H1T14065   2.425   0.931   6.395 -0.2464  0.6611 -0.1434
  131OSM     NF14066   2.511   1.003   6.627 -0.0669 -0.0676  0.1952
  131OSM    HNF14067   2.419   1.025   6.660 -1.2843 -0.4987 -2.6647
  131OSM    C2S14068   2.555   1.071   6.502 -0.0549  0.9785 -0.1406
  131OSM    H2S14069   2.664   1.089   6.503 -0.0858  1.1437  0.5417
  131OSM    C3S14070   2.482   1.206   6.478 -0.3844 -0.0379  0.2735
  131OSM    H3S14071   2.373   1.189   6.471 -0.7922  1.6679  1.7065
  131OSM     O314072   2.517   1.266   6.357  0.0620 -0.0780 -0.2787
  131OSM    HO314073   2.538   1.199   6.292 -0.3029  1.0682 -1.6464
  131OSM    C4S14074   2.520   1.297   6.586  0.1581  0.2477  0.4935
  131OSM    H4S14075   2.629   1.301   6.599  0.1072 -0.9543  1.5104
  131OSM    C5S14076   2.439   1.373   6.667  0.4708  0.1868 -0.7648
  131OSM    H5S14077   2.329   1.377   6.665  0.4154 -0.3838  0.3807
  131OSM    C6S14078   2.492   1.471   6.767  1.0969 -0.2727  0.1072
  131OSM    H6S14079   2.431   1.564   6.765  0.7485 -0.4778  0.7245
  131OSM    H6T14080   2.597   1.498   6.745  0.7520  3.9055  2.5451
  131OSM    C7S14081   2.473   1.419   6.915  0.1672 -1.0939 -0.3532
  131OSM    H7S14082   2.535   1.330   6.937  2.7517  0.3772 -1.2040
  131OSM    H7T14083   2.366   1.396   6.930  0.8562 -3.0880  2.0328
  131OSM    C8S14084   2.509   1.524   7.012  0.2577  0.0248 -0.7710
  131OSM    H8S14085   2.431   1.603   7.016 -1.1770 -1.4138  2.1561
  131OSM    H8T14086   2.604   1.574   6.980  1.0068  0.5048  1.9611
  131OSM    C9S14087   2.510   1.484   7.158 -0.9580 -0.1959  0.0126
  131OSM    H9S14088   2.422   1.419   7.178 -0.9683 -0.3755 -0.6034
  131OSM    H9T14089   2.485   1.573   7.219 -2.7987  0.2377 -1.2732
  131OSM   C10S14090   2.643   1.419   7.191 -0.7167  0.3057 -0.1994
  131OSM   H10S14091   2.717   1.502   7.198 -0.7591  0.2162  2.5663
  131OSM   H10T14092   2.676   1.338   7.123 -1.7865  1.0408 -1.6406
  131OSM   C11S14093   2.641   1.359   7.336  0.5831  0.0394 -0.2799
  131OSM   H11S14094   2.737   1.313   7.367 -0.4595 -0.9857  1.6827
  131OSM   H11T14095   2.574   1.270   7.343  1.8783 -0.8649  1.6766
  131OSM   C12S14096   2.603   1.463   7.439 -0.2546 -0.0289  0.1846
  131OSM   H12S14097   2.494   1.486   7.431 -0.2208 -0.4489 -2.7179
  131OSM   H12T14098   2.672   1.549   7.427  1.4312 -1.2691  0.6293
  131OSM   C13S14099   2.617   1.409   7.579  0.2229  0.4857  0.3582
  131OSM   H13S14100   2.555   1.319   7.598  2.2072 -1.2392 -0.8554
  131OSM   H13T14101   2.576   1.490   7.643 -1.2133 -1.0278  1.4358
  131OSM   C14S14102   2.762   1.380   7.614 -0.9302  0.5969 -0.3676
  131OSM   H14S14103   2.819   1.472   7.591 -0.7169  0.0038 -2.4392
  131OSM   H14T14104   2.801   1.301   7.546 -2.1616  0.4834 -0.9803
  131OSM   C15S14105   2.776   1.336   7.765 -0.3656  0.4512 -0.3482
  131OSM   H15S14106   2.721   1.240   7.769  1.0821 -0.3719  0.4845
  131OSM   H15T14107   2.739   1.414   7.836  3.2579  1.7354  0.3512
  131OSM   C16S14108   2.923   1.317   7.814 -0.2294 -0.4632 -0.5997
  131OSM   H16S14109   2.972   1.416   7.808  0.4461 -0.7779 -0.3610
  131OSM   H16T14110   2.976   1.252   7.741 -0.1245 -0.3053 -0.6653
  131OSM   C17S14111   2.936   1.241   7.955 -0.1533  0.0560  0.3023
  131OSM   H17S14112   2.903   1.135   7.954 -1.6543  0.5031  0.6955
  131OSM   H17T14113   2.880   1.305   8.026 -2.4075 -1.6307  0.1543
  131OSM   C18S14114   3.088   1.235   7.984  0.3352 -0.0464 -0.1898
  131OSM   H18S14115   3.151   1.168   7.920 -0.6094  0.7055 -1.9722
  131OSM   H18T14116   3.100   1.203   8.090 -1.2977  2.6337  0.9056
  131OSM   H18U14117   3.135   1.335   7.977  0.7607 -0.1405  1.0821
  131OSM    C1F14118   2.573   0.906   6.679 -0.1270  0.0977  0.6733
  131OSM     OF14119   2.670   0.866   6.626  0.7177  0.7277  0.1190
  131OSM    C2F14120   2.518   0.853   6.808 -0.0717  0.0685  0.8297
  131OSM    H2F14121   2.407   0.847   6.800  0.0895 -3.4367 -1.0954
  131OSM    H2G14122   2.546   0.927   6.886 -0.7275  2.3899 -1.0181
  131OSM    C3F14123   2.568   0.716   6.849 -0.2498  0.2485 -0.6513
  131OSM    H3F14124   2.677   0.702   6.836 -0.4330 -1.8489 -0.2527
  131OSM    H3G14125   2.527   0.640   6.779 -1.5624  1.3065 -1.0656
  131OSM    C4F14126   2.532   0.692   6.996 -0.0288 -0.2325  0.1014
  131OSM    H4F14127   2.424   0.714   7.008 -0.0179 -0.7602  1.3193
  131OSM    H4G14128   2.584   0.771   7.054  1.0596  1.0402 -2.4322
  131OSM    C5F14129   2.579   0.558   7.045 -0.8222  0.4079  1.0023
  131OSM    H5F14130   2.673   0.543   6.987 -3.3154 -1.2282 -2.9376
  131OSM    H5G14131   2.518   0.475   7.005  0.5752 -0.9530  1.5644
  131OSM    C6F14132   2.591   0.564   7.199 -0.2401  0.3990  0.4193
  131OSM    H6F14133   2.672   0.637   7.221  0.7929 -0.5852 -0.0053
  131OSM    H6G14134   2.628   0.465   7.233  0.9735  1.2046  1.5107
  131OSM    C7F14135   2.466   0.590   7.270  0.4412 -0.6360  0.3747
  131OSM    H7F14136   2.419   0.673   7.213  1.2675 -2.0853 -2.6366
  131OSM    H7G14137   2.474   0.612   7.378 -3.1011 -3.2472  1.3888
  131OSM    C8F14138   2.358   0.479   7.257 -0.0643 -0.2353  0.3102
  131OSM    H8F14139   2.323   0.453   7.155 -0.0767 -2.2525  0.8009
  131OSM    H8G14140   2.275   0.509   7.325  1.1230  0.9574  1.2846
  131OSM    C9F14141   2.399   0.346   7.317 -0.4875 -0.5172 -0.3840
  131OSM    H9F14142   2.417   0.252   7.263 -1.6681 -2.7598  2.8343
  131OSM   C10F14143   2.425   0.332   7.450 -0.0013 -0.0254 -0.3511
  131OSM   H10F14144   2.468   0.236   7.481  2.0813  0.6865 -0.9371
  131OSM   C11F14145   2.399   0.441   7.552  0.2311  0.0224  0.6159
  131OSM   H11F14146   2.314   0.504   7.517 -0.2983  0.3256  2.3360
  131OSM   H11G14147   2.487   0.510   7.552  0.8205 -0.7181  0.1070
  131OSM   C12F14148   2.361   0.393   7.694  0.0859 -0.6920  0.0556
  131OSM   H12F14149   2.262   0.344   7.697 -0.4312 -0.1151 -3.6143
  131OSM   H12G14150   2.352   0.483   7.759 -3.0500 -0.7200 -0.2066
  131OSM   C13F14151   2.475   0.296   7.744 -0.1919  0.7059  0.2458
  131OSM   H13F14152   2.578   0.337   7.732  0.4499 -1.4773 -3.0925
  131OSM   H13G14153   2.485   0.201   7.688  0.8914  1.3095 -0.6237
  131OSM   C14F14154   2.445   0.245   7.889  0.1748  0.1747  0.3641
  131OSM   H14F14155   2.535   0.190   7.924 -0.1788  0.2259  1.3835
  131OSM   H14G14156   2.369   0.165   7.890  0.8411 -0.4583  1.2656
  131OSM   C15F14157   2.412   0.348   7.998  0.1919  0.6509  0.0408
  131OSM   H15F14158   2.324   0.407   7.965 -0.7435 -0.0585  1.1710
  131OSM   H15G14159   2.505   0.403   8.025  1.4824 -2.0290  1.4549
  131OSM   C16F14160   2.354   0.278   8.127  0.0985 -0.4366  0.2795
  131OSM   H16F14161   2.420   0.198   8.166 -2.8801 -2.7115  1.0303
  131OSM   H16G14162   2.272   0.213   8.088 -1.5575  1.7119  0.0236
  131OSM   C17F14163   2.292   0.381   8.222  0.6356 -0.2905  0.1476
  131OSM   H17F14164   2.241   0.457   8.159 -0.4006 -1.8509 -0.9667
  131OSM   H17G14165   2.371   0.436   8.277  1.5015 -1.4121  0.0684
  131OSM   C18F14166   2.197   0.305   8.318  0.2481 -0.3859 -0.0754
  131OSM   H18F14167   2.127   0.250   8.252 -0.4813  2.0779 -1.5177
  131OSM   H18G14168   2.162   0.376   8.396  2.0160 -0.1797  0.5874
  131OSM   H18H14169   2.267   0.233   8.365  1.1118  0.7642  0.4593
  132OSM      N14170   4.488   6.036   6.055 -0.0823  0.1218  0.2855
  132OSM    C1514171   4.378   6.140   6.057  0.0821 -0.4552 -0.3839
  132OSM   H15A14172   4.344   6.163   5.957  0.2992 -0.8567 -0.5562
  132OSM   H15B14173   4.402   6.237   6.098 -0.7108 -1.1626  1.8996
  132OSM   H15C14174   4.297   6.107   6.120 -0.9495  1.0002 -0.8858
  132OSM    C1414175   4.439   5.905   6.000  0.1022  0.3807 -0.3371
  132OSM   H14A14176   4.404   5.918   5.898 -1.7962 -0.6644  0.1456
  132OSM   H14B14177   4.352   5.875   6.056 -1.3506  2.6083 -1.2525
  132OSM   H14C14178   4.517   5.830   5.993  0.3064  0.7379 -2.7724
  132OSM    C1314179   4.598   6.081   5.970 -0.1700  0.8117  0.5513
  132OSM   H13A14180   4.566   6.085   5.867  0.3043  1.4961  0.4191
  132OSM   H13B14181   4.688   6.022   5.971 -0.6177 -0.0410 -1.9323
  132OSM   H13C14182   4.631   6.181   5.996  3.5983 -0.1685  0.0199
  132OSM    C1214183   4.541   6.009   6.198 -0.2512  0.1089 -0.0335
  132OSM   H12A14184   4.627   5.944   6.195 -0.6010 -0.3366 -0.6426
  132OSM   H12B14185   4.463   5.962   6.256  0.0505 -0.6423 -0.2254
  132OSM    C1114186   4.576   6.133   6.290  0.0982 -0.2533 -0.2542
  132OSM   H11A14187   4.567   6.095   6.394 -1.1279 -0.7001 -0.5055
  132OSM   H11B14188   4.497   6.212   6.288  1.8521  1.5967 -2.3858
  132OSM      P14189   4.840   6.124   6.311 -0.1293  0.0416 -0.6192
  132OSM    O1314190   4.825   5.983   6.275  0.8567 -0.3898  0.4988
  132OSM    O1414191   4.957   6.189   6.244 -0.1413 -0.3936  0.2369
  132OSM    O1114192   4.859   6.130   6.473 -0.0986  0.4904  0.2077
  132OSM    O1214193   4.704   6.192   6.267  0.1428  0.2454  0.1294
  132OSM    C1S14194   4.825   6.243   6.548  0.2370 -0.1694  0.1904
  132OSM    H1S14195   4.714   6.248   6.548  0.2854  1.1881  0.4529
  132OSM    H1T14196   4.864   6.330   6.491  1.5848 -2.5191 -2.7490
  132OSM     NF14197   4.793   6.337   6.765  0.1307 -0.1363 -0.4236
  132OSM    HNF14198   4.849   6.413   6.796  0.9677 -0.7227 -0.4711
  132OSM    C2S14199   4.874   6.241   6.694  0.4457 -0.0653 -0.9788
  132OSM    H2S14200   4.836   6.142   6.726  0.4064 -1.0575 -3.8888
  132OSM    C3S14201   5.023   6.257   6.713  0.1051  0.1453  0.7308
  132OSM    H3S14202   5.040   6.365   6.690  0.3950  0.0754  0.6046
  132OSM     O314203   5.097   6.199   6.601 -0.2087  0.2446  0.1158
  132OSM    HO314204   5.030   6.149   6.555 -0.1764 -0.3774  0.7279
  132OSM    C4S14205   5.061   6.210   6.851 -0.3529 -0.1487 -0.0502
  132OSM    H4S14206   5.054   6.100   6.860 -1.1784 -0.0108  1.2126
  132OSM    C5S14207   5.101   6.288   6.949  0.0627  0.3302 -0.3007
  132OSM    H5S14208   5.122   6.395   6.933  0.6878 -0.1731 -3.6084
  132OSM    C6S14209   5.140   6.243   7.089 -0.4237  0.4598 -0.0652
  132OSM    H6S14210   5.192   6.145   7.089 -1.3990 -0.1474  2.9318
  132OSM    H6T14211   5.046   6.215   7.141  0.7014 -0.3571  1.5896
  132OSM    C7S14212   5.233   6.344   7.155  0.3069  0.2701 -0.3437
  132OSM    H7S14213   5.187   6.444   7.174  1.0468  0.5479  0.0539
  132OSM    H7T14214   5.314   6.368   7.082  0.5510  1.7510  0.3742
  132OSM    C8S14215   5.289   6.299   7.290 -0.6800  0.3094 -0.0001
  132OSM    H8S14216   5.362   6.377   7.321 -0.0503 -0.6915  1.1082
  132OSM    H8T14217   5.343   6.203   7.284  1.2313  1.3755 -0.9073
  132OSM    C9S14218   5.178   6.300   7.403 -0.4490  0.0783  0.4842
  132OSM    H9S14219   5.119   6.207   7.387 -1.5438  0.5066  1.8117
  132OSM    H9T14220   5.134   6.401   7.394  1.1908  0.8912  1.2948
  132OSM   C10S14221   5.236   6.295   7.548  0.0130  0.0911 -0.0988
  132OSM   H10S14222   5.306   6.380   7.561 -2.0394  2.0247 -1.0785
  132OSM   H10T14223   5.287   6.196   7.559 -0.4457 -0.4495 -2.2595
  132OSM   C11S14224   5.122   6.289   7.648  0.1884 -0.3397 -0.3044
  132OSM   H11S14225   5.055   6.205   7.619 -1.7203  2.1129 -3.7015
  132OSM   H11T14226   5.051   6.374   7.659 -1.3565 -1.5547 -0.5680
  132OSM   C12S14227   5.177   6.274   7.787  0.0639  0.0741 -0.0799
  132OSM   H12S14228   5.261   6.345   7.801  1.4432 -1.2327 -1.2783
  132OSM   H12T14229   5.208   6.171   7.816  0.6786  0.2036 -0.2683
  132OSM   C13S14230   5.079   6.322   7.897 -0.5537  0.6619  0.0331
  132OSM   H13S14231   4.977   6.281   7.877 -0.7026  1.5804 -1.1758
  132OSM   H13T14232   5.065   6.432   7.884  1.4762  1.3230  2.6327
  132OSM   C14S14233   5.125   6.290   8.041 -0.2622 -0.5130 -0.4717
  132OSM   H14S14234   5.234   6.306   8.050 -0.4629 -0.0017  1.4861
  132OSM   H14T14235   5.105   6.180   8.042  0.4144 -0.7211 -2.9431
  132OSM   C15S14236   5.047   6.359   8.161 -0.1497 -0.3745 -1.0082
  132OSM   H15S14237   4.940   6.329   8.156 -1.7108  4.2412 -0.6267
  132OSM   H15T14238   5.055   6.469   8.143  0.2302 -0.5350 -1.8638
  132OSM   C16S14239   5.091   6.300   8.294 -0.2260  1.0045  0.1289
  132OSM   H16S14240   5.202   6.309   8.295  0.0888 -2.0551  0.5800
  132OSM   H16T14241   5.078   6.190   8.286  1.9801  0.7278 -0.4033
  132OSM   C17S14242   5.037   6.360   8.423 -0.2760 -0.8161  0.0171
  132OSM   H17S14243   4.926   6.359   8.435 -0.5139  0.7737 -1.6414
  132OSM   H17T14244   5.070   6.466   8.416  1.7213 -1.4652 -1.1533
  132OSM   C18S14245   5.109   6.316   8.550  0.3944 -0.2278 -0.3260
  132OSM   H18S14246   5.086   6.384   8.635  2.5069  0.3187 -0.1433
  132OSM   H18T14247   5.219   6.308   8.541  0.2918  0.8631 -3.9624
  132OSM   H18U14248   5.072   6.212   8.563 -1.4102  0.1177 -2.1389
  132OSM    C1F14249   4.664   6.348   6.779  1.3392 -0.1195  0.3054
  132OSM     OF14250   4.586   6.255   6.752 -0.3402  0.1705 -0.0723
  132OSM    C2F14251   4.615   6.481   6.820 -0.1008 -0.1566 -0.9006
  132OSM    H2F14252   4.577   6.541   6.734 -1.1146  3.7538  1.9791
  132OSM    H2G14253   4.697   6.542   6.863 -1.0553 -1.2535  2.7994
  132OSM    C3F14254   4.497   6.484   6.926 -0.4411  0.4802  0.0318
  132OSM    H3F14255   4.414   6.430   6.876  0.7168 -0.2779 -1.1622
  132OSM    H3G14256   4.459   6.586   6.946 -1.5343  0.7477 -3.0050
  132OSM    C4F14257   4.537   6.417   7.057  0.1990  0.0773 -0.4734
  132OSM    H4F14258   4.563   6.312   7.033  0.3859  0.5875 -2.7441
  132OSM    H4G14259   4.446   6.424   7.120 -0.7246 -1.1037 -1.6377
  132OSM    C5F14260   4.652   6.488   7.122 -0.6589 -0.3659 -0.0627
  132OSM    H5F14261   4.614   6.589   7.144 -3.0067 -0.5301 -2.8472
  132OSM    H5G14262   4.737   6.492   7.050  0.8560  0.1003  1.6851
  132OSM    C6F14263   4.710   6.413   7.246 -0.1122 -0.6498  0.3670
  132OSM    H6F14264   4.753   6.315   7.216  0.6695 -0.1244 -0.2835
  132OSM    H6G14265   4.622   6.413   7.313 -1.0359  2.0848 -0.7208
  132OSM    C7F14266   4.825   6.490   7.313  0.8168  0.3344 -0.5177
  132OSM    H7F14267   4.799   6.590   7.353  0.1676  0.1284 -0.4166
  132OSM    H7G14268   4.914   6.507   7.247  0.7076  2.5479 -0.1613
  132OSM    C8F14269   4.862   6.422   7.443  0.2752  0.1245 -0.7507
  132OSM    H8F14270   4.956   6.466   7.482  1.2042 -0.7897 -1.9029
  132OSM    H8G14271   4.881   6.322   7.399  1.1089 -0.1223  0.1517
  132OSM    C9F14272   4.761   6.419   7.569 -0.1398  0.2382  0.1849
  132OSM    H9F14273   4.683   6.342   7.572 -1.0874  1.1789  0.1548
  132OSM   C10F14274   4.766   6.504   7.673 -0.5717  0.4475 -0.2794
  132OSM   H10F14275   4.691   6.492   7.752 -0.3988 -0.1133 -0.1883
  132OSM   C11F14276   4.854   6.621   7.689 -0.1580 -0.0457 -0.0444
  132OSM   H11F14277   4.847   6.690   7.602 -1.1091 -1.0012 -0.7527
  132OSM   H11G14278   4.959   6.583   7.691 -0.7605 -1.8170 -0.2476
  132OSM   C12F14279   4.849   6.694   7.831  0.7165  0.4551  0.1021
  132OSM   H12F14280   4.949   6.741   7.842  0.6216  0.5546  0.5314
  132OSM   H12G14281   4.814   6.623   7.909 -1.6891 -1.4337 -2.4699
  132OSM   C13F14282   4.734   6.800   7.821  0.0540  0.0569  0.6440
  132OSM   H13F14283   4.662   6.741   7.760  0.6111 -0.6786  0.6855
  132OSM   H13G14284   4.766   6.894   7.772  1.1852 -0.5277  0.2253
  132OSM   C14F14285   4.670   6.836   7.963  0.1331  0.1602 -0.0346
  132OSM   H14F14286   4.752   6.890   8.015  0.9729 -0.7453 -0.3889
  132OSM   H14G14287   4.670   6.735   8.007  2.4992 -0.1281 -0.5610
  132OSM   C15F14288   4.545   6.919   7.963  0.8397  0.1759 -0.7151
  132OSM   H15F14289   4.482   6.867   7.888  1.2748 -2.8438  0.8896
  132OSM   H15G14290   4.553   7.025   7.930 -2.4184  0.4680 -0.9102
  132OSM   C16F14291   4.459   6.923   8.094 -0.3420 -0.4048  0.2269
  132OSM   H16F14292   4.451   6.824   8.144 -1.5069 -0.0694  0.7428
  132OSM   H16G14293   4.357   6.966   8.081  0.4466  1.1269 -1.1994
  132OSM   C17F14294   4.527   7.023   8.195  0.3085  0.2565 -0.3736
  132OSM   H17F14295   4.527   7.127   8.157 -0.6994  0.9899  1.5424
  132OSM   H17G14296   4.633   6.988   8.201  0.0975 -0.2752  0.3173
  132OSM   C18F14297   4.467   7.021   8.336  0.4435  0.1392  0.6399
  132OSM   H18F14298   4.523   7.080   8.412 -0.4841 -0.0730  1.5085
  132OSM   H18G14299   4.480   6.915   8.367  0.0802 -1.3282 -3.6169
  132OSM   H18H14300   4.359   7.046   8.342  0.4942  0.2315  1.2603
  133SAPE     N14301   5.552   5.300  10.662  0.1359 -0.0560 -0.1361
  133SAPE   HN114302   5.448   5.301  10.664  0.1054  0.9257 -1.0860
  133SAPE   HN214303   5.579   5.246  10.746  2.8979 -0.2269 -1.0348
  133SAPE   HN314304   5.572   5.402  10.663 -1.5692  0.3559 -1.9422
  133SAPE   C1214305   5.608   5.227  10.543  0.2492 -0.7960  0.1809
  133SAPE  H12A14306   5.704   5.280  10.529  0.5695 -1.2098  0.7868
  133SAPE  H12B14307   5.542   5.241  10.454  2.8126 -3.0753 -2.2707
  133SAPE   C1114308   5.626   5.072  10.557 -0.0346  0.2930  0.0443
  133SAPE  H11A14309   5.662   5.036  10.459  0.0631  2.0812 -0.6111
  133SAPE  H11B14310   5.525   5.028  10.566  1.0694 -2.7195 -0.9459
  133SAPE     P14311   5.767   4.906  10.694 -0.5458  0.5396  0.2860
  133SAPE   O1314312   5.831   4.907  10.828 -0.1490  0.0420  0.4899
  133SAPE   O1414313   5.668   4.802  10.671 -0.2846 -0.0403  0.7317
  133SAPE   O1214314   5.703   5.039  10.669  0.5553  0.0090 -0.2003
  133SAPE   O1114315   5.861   4.904  10.570 -0.2842  0.6929 -0.0447
  133SAPE    C114316   5.919   4.782  10.521  0.0397  0.0640  0.3189
  133SAPE    HA14317   5.994   4.746  10.594 -1.3351  0.5977  2.0498
  133SAPE    HB14318   5.842   4.702  10.514  0.0299 -0.1688  2.4590
  133SAPE    C214319   5.977   4.799  10.385  0.1733  0.6915 -0.0190
  133SAPE    HS14320   6.041   4.889  10.398  1.3886 -0.2601  0.7413
  133SAPE   O2114321   5.872   4.809  10.289 -0.0617 -0.1865  0.2353
  133SAPE   C2114322   5.881   4.909  10.205  0.1563  0.1018 -0.0507
  133SAPE   O2214323   5.953   5.006  10.214 -0.4812  0.0671 -0.4611
  133SAPE   C2214324   5.781   4.885  10.092  0.1194  0.5251  0.7721
  133SAPE   H2R14325   5.784   4.781  10.050 -1.4717  0.9617 -0.5459
  133SAPE   H2S14326   5.678   4.912  10.121  0.5126  1.5892  1.2082
  133SAPE    C314327   6.072   4.676  10.345  0.3270  0.0471 -0.4683
  133SAPE    HX14328   6.044   4.578  10.389 -0.3074  0.1254 -0.6885
  133SAPE    HY14329   6.165   4.702  10.400  1.2231 -0.5460 -1.6600
  133SAPE   O3114330   6.101   4.668  10.200  0.0096  0.0694 -0.2805
  133SAPE   C3114331   6.028   4.576  10.136  0.3448 -1.1045  0.2621
  133SAPE   O3214332   5.931   4.516  10.178 -0.2779  0.5295 -0.2997
  133SAPE   C3214333   6.076   4.566   9.990  0.5962  0.3089 -0.0978
  133SAPE   H2X14334   6.187   4.564   9.994  0.5598 -0.4213  0.8471
  133SAPE   H2Y14335   6.042   4.660   9.942  0.9168 -0.3049 -1.5709
  133SAPE   C2314336   5.814   4.982   9.974  0.9288  0.3426  0.0378
  133SAPE   H3R14337   5.920   4.971   9.940  0.9545 -0.2501  0.2887
  133SAPE   H3S14338   5.818   5.083  10.020  1.7477 -1.1640  3.6394
  133SAPE   C2414339   5.724   4.953   9.858  0.2045 -0.6565  0.1873
  133SAPE   H4R14340   5.739   5.041   9.792 -0.9494 -0.2044  0.5071
  133SAPE   H4S14341   5.617   4.962   9.885  0.3665  1.9623  0.1902
  133SAPE   C2514342   5.752   4.828   9.786 -0.7490  0.4863 -0.2464
  133SAPE   H5R14343   5.785   4.751   9.858  0.5785  2.1642  1.0215
  133SAPE   C2614344   5.758   4.812   9.654  0.3692  0.1647  0.3491
  133SAPE   H6R14345   5.775   4.710   9.616 -0.0534  0.3095 -0.2477
  133SAPE   C2714346   5.723   4.913   9.550 -0.3588  0.6514  0.0817
  133SAPE   H7R14347   5.706   5.012   9.596 -1.4962  0.4712  0.0856
  133SAPE   H7S14348   5.636   4.876   9.492  0.7290 -0.3213 -1.0004
  133SAPE   C2814349   5.838   4.944   9.459 -0.4801 -0.4922 -0.8078
  133SAPE   H8R14350   5.932   4.980   9.505  0.2219 -1.6863 -1.2551
  133SAPE   C2914351   5.834   4.934   9.320  0.1522  0.2491  0.3948
  133SAPE   H9R14352   5.925   4.956   9.263  1.3926  0.6852  2.4433
  133SAPE  C21014353   5.708   4.902   9.237  0.1886 -0.3423 -0.1405
  133SAPE  H10R14354   5.638   4.987   9.231 -0.6861 -1.1510 -3.2697
  133SAPE  H10S14355   5.645   4.823   9.283 -1.5715  1.9748  1.6635
  133SAPE  C21114356   5.739   4.855   9.093 -0.5631  0.4572 -1.1820
  133SAPE  H11R14357   5.721   4.748   9.079  0.2369  0.1432  0.0440
  133SAPE  C21214358   5.808   4.922   8.997 -0.4702  0.3958  0.5704
  133SAPE  H12R14359   5.822   4.873   8.900 -0.8514  1.8530 -0.2490
  133SAPE  C21314360   5.864   5.063   9.006 -0.2128  0.1119 -0.0490
  133SAPE  H13R14361   5.968   5.057   9.042 -1.2482 -1.3938  3.0591
  133SAPE  H13S14362   5.790   5.115   9.071 -0.8584 -1.0673  0.1921
  133SAPE  C21414363   5.866   5.133   8.872 -0.0568  0.8101  0.3549
  133SAPE  H14R14364   5.949   5.104   8.805 -1.1956 -0.4862 -0.5528
  133SAPE  C21514365   5.768   5.201   8.820  0.6170 -0.1802  0.2518
  133SAPE  H15R14366   5.781   5.249   8.722  0.5119 -0.8063 -0.0786
  133SAPE  C21614367   5.638   5.235   8.883 -0.5717  0.1526 -0.4407
  133SAPE  H16R14368   5.602   5.177   8.970 -2.4183 -0.0329 -1.2715
  133SAPE  H16S14369   5.557   5.215   8.810 -0.3727  1.0670 -0.9356
  133SAPE  C21714370   5.625   5.378   8.934  0.2084 -0.5028 -0.6396
  133SAPE  H17R14371   5.650   5.442   8.847  0.6090 -1.1364 -1.0000
  133SAPE  H17S14372   5.700   5.403   9.013  1.6923 -1.1464 -1.8009
  133SAPE  C21814373   5.487   5.411   8.985  0.0225 -0.0497 -0.1805
  133SAPE  H18R14374   5.467   5.362   9.082 -2.2142 -0.3159 -0.7094
  133SAPE  H18S14375   5.413   5.373   8.911 -1.7005  1.1620  0.8555
  133SAPE  C21914376   5.469   5.555   9.018 -0.1384 -0.5952 -0.1609
  133SAPE  H19R14377   5.363   5.575   9.046  0.4238  1.0083  0.9599
  133SAPE  H19S14378   5.485   5.606   8.921 -1.2845 -1.0796 -0.6300
  133SAPE  C22014379   5.572   5.609   9.119 -0.1952  0.0429  0.4375
  133SAPE  H20R14380   5.518   5.671   9.194 -0.1233 -1.7091  1.9966
  133SAPE  H20S14381   5.648   5.676   9.074 -1.7307  3.6766  2.7723
  133SAPE  H20T14382   5.617   5.529   9.182  3.1696 -0.2840 -2.1227
  133SAPE   C3314383   6.014   4.448   9.900 -0.2502 -0.1747 -0.1828
  133SAPE   H3X14384   5.912   4.429   9.939 -0.5387  0.3970 -0.6447
  133SAPE   H3Y14385   6.068   4.351   9.914  1.4179  0.8710  0.9447
  133SAPE   C3414386   6.009   4.495   9.750  0.1460 -0.8031  0.2863
  133SAPE   H4X14387   5.971   4.600   9.752  1.0660 -0.4627  0.5619
  133SAPE   H4Y14388   5.925   4.435   9.709  0.0125 -0.3973 -0.0489
  133SAPE   C3514389   6.140   4.467   9.669  0.2972 -0.5596 -0.2689
  133SAPE   H5X14390   6.173   4.362   9.680  3.2725  0.1478 -1.4151
  133SAPE   H5Y14391   6.227   4.525   9.706  0.4071  0.7467 -2.4109
  133SAPE   C3614392   6.128   4.491   9.516  0.0003  0.1995  0.5028
  133SAPE   H6X14393   6.225   4.464   9.469 -0.7604 -0.0964 -0.9485
  133SAPE   H6Y14394   6.116   4.598   9.487 -0.5447  0.9907  3.3762
  133SAPE   C3714395   6.010   4.411   9.453  0.0422  0.1111 -0.4414
  133SAPE   H7X14396   5.911   4.451   9.484  1.1507  0.0443  3.8846
  133SAPE   H7Y14397   6.017   4.304   9.484 -2.1510  0.4596  1.4635
  133SAPE   C3814398   6.031   4.411   9.298  0.7177 -0.1548  0.1055
  133SAPE   H8X14399   5.956   4.345   9.250  2.0096 -1.4413 -0.2073
  133SAPE   H8Y14400   6.130   4.368   9.270  1.1825  1.1159 -0.2667
  133SAPE   C3914401   6.020   4.544   9.226  0.3597  0.2222  1.0426
  133SAPE   H9X14402   6.120   4.592   9.220  0.0717  0.6822 -1.3158
  133SAPE   H9Y14403   5.940   4.606   9.272 -0.0876  2.2648 -2.1837
  133SAPE  C31014404   5.984   4.539   9.080  0.8265  0.2270 -0.1190
  133SAPE  H10X14405   5.970   4.648   9.059  0.0671  0.0483 -0.5697
  133SAPE  H10Y14406   5.891   4.483   9.059  0.7076  1.2927 -2.7997
  133SAPE  C31114407   6.091   4.486   8.983  0.3867 -0.2750 -1.1237
  133SAPE  H11X14408   6.124   4.389   9.025 -2.0835 -0.9535 -0.5761
  133SAPE  H11Y14409   6.180   4.553   8.979  1.1700 -1.2639 -0.6421
  133SAPE  C31214410   6.028   4.461   8.845  0.0495  0.4389  0.2406
  133SAPE  H12X14411   5.999   4.555   8.794 -1.9251 -1.0923 -1.6500
  133SAPE  H12Y14412   5.939   4.401   8.871  0.9510 -0.6777  0.8453
  133SAPE  C31314413   6.127   4.395   8.742  0.2803 -0.6135  0.1441
  133SAPE  H13X14414   6.133   4.293   8.786  0.2562  0.1400  1.9446
  133SAPE  H13Y14415   6.224   4.448   8.750  0.3417 -0.7559  0.3432
  133SAPE  C31414416   6.077   4.399   8.590 -0.6616 -0.2984  0.1788
  133SAPE  H14X14417   6.074   4.507   8.565 -1.6413 -0.0168  1.4181
  133SAPE  H14Y14418   5.970   4.372   8.579 -1.0379  0.6145  1.3948
  133SAPE  C31514419   6.176   4.325   8.497  0.0717  0.0169 -0.2085
  133SAPE  H15X14420   6.161   4.217   8.517 -0.0599 -0.2358 -1.6081
  133SAPE  H15Y14421   6.279   4.348   8.531  0.0086 -1.0874  0.8008
  133SAPE  C31614422   6.165   4.384   8.353 -0.0058  0.3411  0.0065
  133SAPE  H16X14423   6.259   4.442   8.341  0.8540 -0.5812  1.9202
  133SAPE  H16Y14424   6.071   4.441   8.338 -2.8691 -3.8995  0.1327
  133SAPE  C31714425   6.155   4.262   8.251 -0.9717  0.2086 -0.1494
  133SAPE  H17X14426   6.157   4.312   8.152 -1.2847 -1.5408 -1.0797
  133SAPE  H17Y14427   6.060   4.205   8.261 -0.4426 -0.7491 -0.3833
  133SAPE  C31814428   6.270   4.159   8.266  0.7886 -0.6465 -0.5634
  133SAPE  H18X14429   6.285   4.114   8.166 -0.9488 -2.8078  0.0523
  133SAPE  H18Y14430   6.243   4.079   8.339  0.1494 -0.8308 -0.9923
  133SAPE  H18Z14431   6.357   4.220   8.300 -0.4528 -0.2888  2.3284
  134SAPE     N14432   2.441   3.594  10.843  0.2013 -0.1765 -0.1651
  134SAPE   HN114433   2.514   3.521  10.843  0.5490  0.1716 -0.5304
  134SAPE   HN214434   2.428   3.623  10.744 -2.3123  0.4975  0.2723
  134SAPE   HN314435   2.484   3.680  10.883 -1.9706  0.4249  1.0688
  134SAPE   C1214436   2.310   3.561  10.916 -0.4739  0.0848  0.4672
  134SAPE  H12A14437   2.333   3.543  11.023 -1.5972 -1.6061  0.4556
  134SAPE  H12B14438   2.264   3.476  10.862  0.2983  1.0761 -1.9264
  134SAPE   C1114439   2.209   3.682  10.905  0.1993 -0.0569  0.0084
  134SAPE  H11A14440   2.253   3.764  10.966 -1.2444 -0.1781  1.2907
  134SAPE  H11B14441   2.120   3.656  10.966  0.2099  0.6014  0.3123
  134SAPE     P14442   2.055   3.655  10.703  0.1142 -0.0785  0.1858
  134SAPE   O1314443   2.117   3.530  10.657  0.2131  0.5552 -0.6676
  134SAPE   O1414444   1.932   3.635  10.789 -0.0871  0.3909 -0.2645
  134SAPE   O1214445   2.170   3.734  10.781  0.9807  0.1535 -0.2658
  134SAPE   O1114446   2.017   3.747  10.577  0.0422  0.4709  0.1387
  134SAPE    C114447   2.018   3.886  10.571 -0.0701  0.3312 -0.5759
  134SAPE    HA14448   1.917   3.933  10.562 -1.0835 -1.6345 -0.1383
  134SAPE    HB14449   2.064   3.934  10.660  0.0285 -0.6311 -0.0946
  134SAPE    C214450   2.119   3.938  10.457  0.5955  0.6482 -0.9905
  134SAPE    HS14451   2.094   4.046  10.451 -1.4609  0.2393 -0.6114
  134SAPE   O2114452   2.088   3.884  10.327 -0.0003  0.3690  0.5470
  134SAPE   C2114453   1.978   3.925  10.262 -0.2189 -0.2341  0.2901
  134SAPE   O2214454   1.904   4.017  10.301 -0.0233  0.5442 -0.4437
  134SAPE   C2214455   1.958   3.843  10.136  0.3793  0.1910 -0.0678
  134SAPE   H2R14456   2.039   3.868  10.064  0.4644 -0.7377 -0.2950
  134SAPE   H2S14457   1.966   3.739  10.174 -2.9265 -0.6326 -1.2918
  134SAPE    C314458   2.270   3.891  10.486  0.6776 -0.5683 -0.6837
  134SAPE    HX14459   2.280   3.781  10.498 -0.3251 -0.5696  0.2612
  134SAPE    HY14460   2.308   3.944  10.576  0.6163 -0.0185 -0.9761
  134SAPE   O3114461   2.354   3.934  10.384 -0.2234 -0.2050 -0.5572
  134SAPE   C3114462   2.377   3.850  10.287  1.0438 -0.5809  0.2005
  134SAPE   O3214463   2.336   3.735  10.278 -0.4215  0.0825  0.3108
  134SAPE   C3214464   2.456   3.918  10.173  0.5957 -0.0631 -0.4369
  134SAPE   H2X14465   2.561   3.941  10.200  0.2982  0.4001  0.3666
  134SAPE   H2Y14466   2.398   4.012  10.159  0.4982 -0.2894 -1.7266
  134SAPE   C2314467   1.828   3.860  10.068  0.0061 -0.3889 -0.6654
  134SAPE   H3R14468   1.744   3.861  10.141 -1.0231  2.3969 -1.7450
  134SAPE   H3S14469   1.814   3.776   9.997 -1.4938 -0.9233  0.2147
  134SAPE   C2414470   1.819   3.988   9.987 -0.2166  0.0808  0.2236
  134SAPE   H4R14471   1.892   3.990   9.903  2.8559 -0.8509  2.7043
  134SAPE   H4S14472   1.848   4.079  10.043 -0.3991  1.4462 -1.7802
  134SAPE   C2514473   1.675   4.012   9.948  0.4300 -0.1991 -0.1547
  134SAPE   H5R14474   1.615   4.043  10.035  1.3704 -0.4656  0.6044
  134SAPE   C2614475   1.632   4.022   9.821 -0.4588 -0.2163 -0.1535
  134SAPE   H6R14476   1.523   4.009   9.816 -0.5764  0.5086  0.4872
  134SAPE   C2714477   1.708   4.011   9.693  0.1371 -0.5920  0.6054
  134SAPE   H7R14478   1.653   3.952   9.617 -0.4307  0.8123 -0.1214
  134SAPE   H7S14479   1.793   3.941   9.706 -0.7760 -1.9590 -0.4654
  134SAPE   C2814480   1.748   4.144   9.641  0.1520 -0.1377  0.5495
  134SAPE   H8R14481   1.803   4.199   9.719  5.4164 -1.1612 -2.0003
  134SAPE   C2914482   1.742   4.195   9.517 -0.3197 -0.4689 -0.5692
  134SAPE   H9R14483   1.765   4.302   9.512 -1.8000 -0.0201  1.3058
  134SAPE  C21014484   1.689   4.124   9.390  0.1750 -0.7774  0.1939
  134SAPE  H10R14485   1.609   4.189   9.352  1.9715 -0.0430 -2.5880
  134SAPE  H10S14486   1.650   4.022   9.412 -1.1762 -0.5647 -1.0791
  134SAPE  C21114487   1.794   4.100   9.289 -0.6743 -0.8697  0.6302
  134SAPE  H11R14488   1.876   4.034   9.320  1.4266  1.1388 -0.3199
  134SAPE  C21214489   1.821   4.185   9.187  1.0874  0.0481 -0.0802
  134SAPE  H12R14490   1.907   4.160   9.122  0.3960 -2.8625 -0.0062
  134SAPE  C21314491   1.735   4.304   9.143  0.4267  0.3003 -0.2691
  134SAPE  H13R14492   1.796   4.394   9.167  2.1825 -0.4646 -1.6702
  134SAPE  H13S14493   1.649   4.317   9.212  2.0829 -0.5549  2.0924
  134SAPE  C21414494   1.694   4.308   8.994 -0.4280  0.1772 -0.4268
  134SAPE  H14R14495   1.710   4.407   8.948 -1.2009  1.0265  1.0512
  134SAPE  C21514496   1.640   4.209   8.928 -0.3533  0.1944 -0.0214
  134SAPE  H15R14497   1.598   4.227   8.828  0.2155  0.0152 -0.2975
  134SAPE  C21614498   1.609   4.070   8.986  0.1783  0.3514  0.1663
  134SAPE  H16R14499   1.508   4.033   8.961  0.3053  0.1295 -0.0327
  134SAPE  H16S14500   1.604   4.064   9.097  2.5187 -0.9856  0.2739
  134SAPE  C21714501   1.705   3.953   8.945  0.6416 -0.2762 -0.3970
  134SAPE  H17R14502   1.664   3.862   8.995  2.8826 -0.3477  1.4452
  134SAPE  H17S14503   1.803   3.962   8.997  0.8391  0.8975 -0.9538
  134SAPE  C21814504   1.734   3.951   8.795  0.0077 -0.2894 -0.2035
  134SAPE  H18R14505   1.789   4.041   8.762 -2.5020  0.9125 -1.3677
  134SAPE  H18S14506   1.629   3.961   8.759 -0.0911 -2.0798 -0.5115
  134SAPE  C21914507   1.816   3.827   8.758 -0.0923  0.3944 -0.1426
  134SAPE  H19R14508   1.767   3.742   8.810 -0.4718  1.3879  1.1777
  134SAPE  H19S14509   1.913   3.841   8.811 -0.6315 -1.5616  1.4558
  134SAPE  C22014510   1.855   3.814   8.606  0.0695  0.2920 -0.0487
  134SAPE  H20R14511   1.956   3.770   8.588 -0.0640  0.3104 -0.8945
  134SAPE  H20S14512   1.855   3.909   8.548 -0.9623 -0.9965 -2.2591
  134SAPE  H20T14513   1.775   3.761   8.550  0.3688  0.3867 -0.5731
  134SAPE   C3314514   2.440   3.836  10.047  0.0831 -0.4620 -0.0872
  134SAPE   H3X14515   2.331   3.824  10.028  0.1416 -0.9468 -0.1104
  134SAPE   H3Y14516   2.479   3.736  10.075 -0.3857 -0.6191  0.0016
  134SAPE   C3414517   2.501   3.901   9.929 -0.1363  0.4157  0.2375
  134SAPE   H4X14518   2.603   3.938   9.953  0.8157 -1.1441 -1.1997
  134SAPE   H4Y14519   2.436   3.988   9.905 -0.1708  0.7354  1.4444
  134SAPE   C3514520   2.496   3.815   9.804 -0.2629 -0.2240  0.0011
  134SAPE   H5X14521   2.390   3.783   9.796  0.0619 -1.8211  1.4575
  134SAPE   H5Y14522   2.557   3.726   9.830  2.2736  1.2874 -0.4219
  134SAPE   C3614523   2.547   3.894   9.687  0.0569  0.4966  0.3562
  134SAPE   H6X14524   2.654   3.921   9.699  0.0714  0.8542 -0.5315
  134SAPE   H6Y14525   2.494   3.992   9.687  0.4862  0.7617  1.6828
  134SAPE   C3714526   2.528   3.811   9.560 -0.3048 -0.1079  0.7325
  134SAPE   H7X14527   2.422   3.783   9.544 -0.0876 -0.5835  0.1051
  134SAPE   H7Y14528   2.593   3.724   9.584  0.9041  0.9452  1.4428
  134SAPE   C3814529   2.573   3.890   9.438 -0.5671  0.4836 -0.2200
  134SAPE   H8X14530   2.682   3.909   9.441 -0.5565  0.2847  1.0439
  134SAPE   H8Y14531   2.520   3.988   9.440 -0.3684  0.5853  1.5400
  134SAPE   C3914532   2.540   3.828   9.306  0.7560  0.1388  0.3889
  134SAPE   H9X14533   2.434   3.799   9.321  0.1489  1.1953 -1.6098
  134SAPE   H9Y14534   2.607   3.741   9.286 -1.4733 -1.5912  0.0451
  134SAPE  C31014535   2.546   3.927   9.186 -0.0721  0.2307 -0.0396
  134SAPE  H10X14536   2.632   3.995   9.198  0.3444 -0.5843  1.8717
  134SAPE  H10Y14537   2.465   4.002   9.195 -1.4243 -1.3530  1.9856
  134SAPE  C31114538   2.516   3.867   9.049  0.2411  0.3209  0.0721
  134SAPE  H11X14539   2.412   3.828   9.044 -0.8236  2.6521  2.2936
  134SAPE  H11Y14540   2.589   3.785   9.028 -0.6815 -0.3509 -0.6215
  134SAPE  C31214541   2.561   3.961   8.938  0.0429 -0.4355  0.0194
  134SAPE  H12X14542   2.669   3.976   8.961 -0.6759  1.1499  2.9036
  134SAPE  H12Y14543   2.516   4.062   8.945 -1.0431 -0.7417 -1.9700
  134SAPE  C31314544   2.548   3.904   8.793 -0.5564 -0.4442 -1.0871
  134SAPE  H13X14545   2.456   3.845   8.774 -1.1626 -0.3973  1.3996
  134SAPE  H13Y14546   2.632   3.834   8.777  1.2285  1.2825  0.2344
  134SAPE  C31414547   2.551   4.021   8.689 -0.4586 -0.6617  0.5758
  134SAPE  H14X14548   2.646   4.071   8.719 -0.6967 -1.3551  2.6621
  134SAPE  H14Y14549   2.467   4.086   8.721  0.8271  0.9162  0.8602
  134SAPE  C31514550   2.556   3.974   8.546  0.3636 -0.3884  0.5052
  134SAPE  H15X14551   2.469   3.918   8.506 -0.5801  1.7119 -0.5320
  134SAPE  H15Y14552   2.636   3.897   8.540  0.9180  0.1881  0.3494
  134SAPE  C31614553   2.578   4.085   8.441  0.2290  0.2206  0.1143
  134SAPE  H16X14554   2.686   4.109   8.441  1.1802 -3.3890 -1.7446
  134SAPE  H16Y14555   2.533   4.185   8.460  0.7628  0.1057  2.1652
  134SAPE  C31714556   2.552   4.033   8.296 -0.5334  0.4007  0.1088
  134SAPE  H17X14557   2.448   3.995   8.290  0.4897 -2.6498 -0.4524
  134SAPE  H17Y14558   2.628   3.953   8.277 -1.0865  0.5181 -3.2395
  134SAPE  C31814559   2.569   4.138   8.183 -0.9465 -0.3063  0.5330
  134SAPE  H18X14560   2.571   4.093   8.081  1.4929  2.7083 -0.9025
  134SAPE  H18Y14561   2.668   4.185   8.200 -1.6722  2.2322 -1.6609
  134SAPE  H18Z14562   2.486   4.212   8.187  0.1087  0.8576  2.1245
  135SAPE     N14563   6.719   1.626  10.906 -0.1829  0.4090  0.5894
  135SAPE   HN114564   6.692   1.549  10.971 -0.3801 -2.1196 -2.2509
  135SAPE   HN214565   6.730   1.721  10.947  2.0471 -0.8442  3.1513
  135SAPE   HN314566   6.635   1.632  10.844 -0.3102 -0.2630  0.6940
  135SAPE   C1214567   6.843   1.571  10.830 -0.0584 -0.0022  0.0169
  135SAPE  H12A14568   6.838   1.460  10.831 -0.8162 -0.3925 -6.1337
  135SAPE  H12B14569   6.930   1.607  10.889 -0.2039  1.1013 -0.4146
  135SAPE   C1114570   6.840   1.595  10.680  0.1443  0.5285 -0.3169
  135SAPE  H11A14571   6.740   1.576  10.636 -0.5547  0.4330  1.2365
  135SAPE  H11B14572   6.906   1.521  10.631 -0.4620 -0.7695  0.7723
  135SAPE     P14573   7.009   1.795  10.651 -0.3910 -0.1678  0.2115
  135SAPE   O1314574   6.990   1.929  10.588  0.8148  0.6066 -0.2454
  135SAPE   O1414575   7.058   1.791  10.788 -0.2005 -0.0026  0.3653
  135SAPE   O1214576   6.874   1.729  10.647  0.0873  0.0320  0.3382
  135SAPE   O1114577   7.096   1.706  10.557 -0.0844 -0.2262  0.7928
  135SAPE    C114578   7.109   1.717  10.413 -0.6351  0.1023 -0.2553
  135SAPE    HA14579   7.134   1.617  10.371  1.2916  1.0372 -1.5021
  135SAPE    HB14580   7.014   1.757  10.374 -0.9750  1.1905  1.5831
  135SAPE    C214581   7.234   1.800  10.379  0.1476 -0.1148  0.2186
  135SAPE    HS14582   7.203   1.903  10.407 -1.4604 -0.7271  0.8139
  135SAPE   O2114583   7.262   1.791  10.242 -0.5214  0.4049 -0.1657
  135SAPE   C2114584   7.333   1.889  10.191  0.1382 -0.6072  0.6659
  135SAPE   O2214585   7.373   1.989  10.252  0.1893  0.6531  0.5619
  135SAPE   C2214586   7.360   1.858  10.037  0.7886  0.4725  0.0076
  135SAPE   H2R14587   7.277   1.790  10.009  0.4431  0.1955  1.5703
  135SAPE   H2S14588   7.335   1.954   9.987  1.8346  0.9543  0.3789
  135SAPE    C314589   7.354   1.747  10.464 -0.1577  0.2578  0.7858
  135SAPE    HX14590   7.321   1.732  10.570 -0.1656  0.3556  0.7978
  135SAPE    HY14591   7.436   1.822  10.459 -1.1188  1.3373  0.6973
  135SAPE   O3114592   7.392   1.614  10.422  0.3387 -0.3583  0.0729
  135SAPE   C3114593   7.502   1.601  10.349  0.0402 -0.2113 -0.0993
  135SAPE   O3214594   7.570   1.693  10.305 -0.1106 -0.6961  0.5256
  135SAPE   C3214595   7.540   1.454  10.329 -0.7238  0.2206 -0.0765
  135SAPE   H2X14596   7.572   1.423  10.431 -0.2270  1.0328  0.0254
  135SAPE   H2Y14597   7.626   1.437  10.260  0.5177  1.3914  1.1338
  135SAPE   C2314598   7.506   1.800  10.002  0.1952  0.2264 -0.2977
  135SAPE   H3R14599   7.519   1.710  10.067 -0.9104  0.2408 -0.0449
  135SAPE   H3S14600   7.588   1.869  10.029  1.2364 -0.7189 -0.9310
  135SAPE   C2414601   7.516   1.762   9.851  0.0998 -0.3649 -0.3259
  135SAPE   H4R14602   7.439   1.683   9.839 -1.1244  0.5502  1.1990
  135SAPE   H4S14603   7.614   1.711   9.846  0.2756  0.0411 -1.1375
  135SAPE   C2514604   7.511   1.879   9.759  0.3108 -0.3045  0.3977
  135SAPE   H5R14605   7.585   1.960   9.765  0.1238 -0.1401  0.4864
  135SAPE   C2614606   7.421   1.883   9.654  0.5224 -0.0144 -0.2064
  135SAPE   H6R14607   7.425   1.959   9.574  0.8115 -0.0916 -0.2643
  135SAPE   C2714608   7.315   1.773   9.639  0.0134 -1.5653 -0.3919
  135SAPE   H7R14609   7.270   1.744   9.736  2.1123 -0.9962  0.8139
  135SAPE   H7S14610   7.357   1.678   9.600 -0.8378 -2.2197  0.2532
  135SAPE   C2814611   7.215   1.825   9.540 -0.3360  0.4596  0.2262
  135SAPE   H8R14612   7.117   1.852   9.582 -0.7904 -1.4420  0.5057
  135SAPE   C2914613   7.235   1.831   9.404 -0.0816 -0.1140 -0.1691
  135SAPE   H9R14614   7.160   1.872   9.336  0.4543  1.5133  0.1826
  135SAPE  C21014615   7.357   1.788   9.337 -1.0137  0.8743  0.8733
  135SAPE  H10R14616   7.420   1.725   9.403  0.9243  1.2723 -0.5066
  135SAPE  H10S14617   7.421   1.878   9.330  0.4237 -0.1128  0.8856
  135SAPE  C21114618   7.343   1.732   9.199 -0.1632 -0.0324  0.5023
  135SAPE  H11R14619   7.347   1.622   9.189 -0.3011  0.1171 -1.6971
  135SAPE  C21214620   7.353   1.795   9.084  0.1152  0.8594  0.7732
  135SAPE  H12R14621   7.348   1.736   8.991  0.0381  2.2391 -0.1219
  135SAPE  C21314622   7.379   1.943   9.053 -0.1738 -0.2309  0.2305
  135SAPE  H13R14623   7.480   1.944   9.007 -0.1076  1.1537  0.3663
  135SAPE  H13S14624   7.398   1.995   9.150  2.2797  1.3135 -0.9751
  135SAPE  C21414625   7.269   2.013   8.986 -0.5801 -0.3910 -0.3271
  135SAPE  H14R14626   7.177   2.023   9.047 -0.1914 -1.0631  0.3820
  135SAPE  C21514627   7.273   2.059   8.860 -0.1912 -0.5771  1.0726
  135SAPE  H15R14628   7.185   2.105   8.814  1.2588  0.9836 -0.2630
  135SAPE  C21614629   7.386   2.037   8.758 -0.1354 -1.0225 -0.2922
  135SAPE  H16R14630   7.380   1.936   8.713  0.1341 -1.2793  0.2394
  135SAPE  H16S14631   7.480   2.033   8.818 -0.5587 -0.6281  0.4094
  135SAPE  C21714632   7.395   2.139   8.654 -0.3278 -0.2512  0.3418
  135SAPE  H17R14633   7.402   2.241   8.697 -0.0382 -0.3685  0.5779
  135SAPE  H17S14634   7.307   2.149   8.586 -1.6873  0.3742  2.1159
  135SAPE  C21814635   7.514   2.121   8.563 -0.4058  1.0802 -0.1792
  135SAPE  H18R14636   7.503   2.027   8.506 -0.6943  0.3272  1.0698
  135SAPE  H18S14637   7.601   2.106   8.631  0.1599  1.2678 -0.8489
  135SAPE  C21914638   7.546   2.221   8.450  0.3024  0.8747  1.0472
  135SAPE  H19R14639   7.649   2.208   8.412 -0.4603 -0.9182 -0.5559
  135SAPE  H19S14640   7.538   2.325   8.489 -1.1844  1.1988 -0.0160
  135SAPE  C22014641   7.444   2.221   8.333  0.0394 -0.1851  0.2282
  135SAPE  H20R14642   7.468   2.299   8.257  1.3721  2.2837  2.9986
  135SAPE  H20S14643   7.343   2.242   8.374 -0.6567 -2.8575  0.0953
  135SAPE  H20T14644   7.437   2.118   8.293 -0.9010 -0.2443  0.5325
  135SAPE   C3314645   7.413   1.372  10.298  0.2728  0.0409 -0.0974
  135SAPE   H3X14646   7.343   1.376  10.384  0.0530  1.0005 -0.3121
  135SAPE   H3Y14647   7.431   1.262  10.290 -3.0420 -0.8149  1.9481
  135SAPE   C3414648   7.325   1.401  10.172  0.3927 -0.2113 -0.8502
  135SAPE   H4X14649   7.295   1.506  10.191 -0.4717 -0.5884 -0.0888
  135SAPE   H4Y14650   7.234   1.338  10.161 -0.2840  1.0416 -3.3963
  135SAPE   C3514651   7.411   1.404  10.045  0.2259 -0.4069 -0.8219
  135SAPE   H5X14652   7.480   1.317  10.045 -0.6766 -1.1365 -1.0108
  135SAPE   H5Y14653   7.483   1.488  10.050  1.3199 -1.3771  0.0212
  135SAPE   C3614654   7.311   1.406   9.922 -0.1995 -0.3318  0.3590
  135SAPE   H6X14655   7.255   1.502   9.919  0.1781 -0.0819  1.0425
  135SAPE   H6Y14656   7.239   1.325   9.945  0.9297 -1.0237  1.5522
  135SAPE   C3714657   7.376   1.391   9.783 -0.2363 -0.2331 -0.6809
  135SAPE   H7X14658   7.430   1.294   9.786 -1.7652 -1.0747  1.2231
  135SAPE   H7Y14659   7.448   1.475   9.771  0.7733 -1.1579 -1.3453
  135SAPE   C3814660   7.281   1.375   9.669  0.5195 -0.0424 -0.0812
  135SAPE   H8X14661   7.228   1.473   9.664 -2.2126 -1.4128 -0.0442
  135SAPE   H8Y14662   7.205   1.297   9.691 -0.9280  1.1542 -0.6767
  135SAPE   C3914663   7.346   1.353   9.537  0.2618 -0.3809  1.1216
  135SAPE   H9X14664   7.390   1.251   9.539 -1.9662 -1.5060 -1.3839
  135SAPE   H9Y14665   7.426   1.429   9.530 -0.9103  0.7373 -0.8835
  135SAPE  C31014666   7.257   1.354   9.407  0.1361  0.0428 -0.6517
  135SAPE  H10X14667   7.218   1.458   9.410  1.3635  0.5028 -0.0801
  135SAPE  H10Y14668   7.167   1.292   9.428 -0.0581  0.1042 -1.2880
  135SAPE  C31114669   7.322   1.309   9.280  0.4907  0.0175 -0.4734
  135SAPE  H11X14670   7.354   1.204   9.298  0.6144 -0.4087 -2.8331
  135SAPE  H11Y14671   7.411   1.370   9.256  1.4788 -0.9220  0.6356
  135SAPE  C31214672   7.217   1.308   9.170 -0.3608 -0.1211  0.5223
  135SAPE  H12X14673   7.184   1.412   9.151 -0.1260 -0.0453  0.5344
  135SAPE  H12Y14674   7.129   1.249   9.203  0.3901 -1.8240 -0.3854
  135SAPE  C31314675   7.256   1.248   9.037 -0.1376 -0.4153 -0.5020
  135SAPE  H13X14676   7.274   1.142   9.067 -1.2400 -0.1536  1.2689
  135SAPE  H13Y14677   7.350   1.296   9.003  0.1904  0.5248  1.5877
  135SAPE  C31414678   7.150   1.256   8.929 -0.5241 -0.1130 -0.0225
  135SAPE  H14X14679   7.130   1.366   8.929 -1.2435 -0.2384  0.3214
  135SAPE  H14Y14680   7.060   1.208   8.971 -0.8811  0.4769 -0.0950
  135SAPE  C31514681   7.196   1.195   8.797 -0.1573  0.3335  0.4411
  135SAPE  H15X14682   7.159   1.090   8.791  2.3607 -0.6609  1.0279
  135SAPE  H15Y14683   7.306   1.211   8.805  0.1388 -1.2901  0.0602
  135SAPE  C31614684   7.155   1.271   8.669 -0.1601  0.1825  0.3153
  135SAPE  H16X14685   7.204   1.371   8.672 -0.4001  0.3179 -0.2507
  135SAPE  H16Y14686   7.044   1.277   8.672 -0.1021  1.9669  3.3682
  135SAPE  C31714687   7.214   1.204   8.543  0.6514  0.3936  0.3884
  135SAPE  H17X14688   7.178   1.100   8.532  1.7436  0.0512 -0.1860
  135SAPE  H17Y14689   7.325   1.199   8.554  0.8581  0.9901 -1.1601
  135SAPE  C31814690   7.193   1.300   8.421 -0.2652  0.3477 -0.1217
  135SAPE  H18X14691   7.085   1.306   8.393  0.0244 -2.7222 -2.4930
  135SAPE  H18Y14692   7.242   1.258   8.331  0.6875  2.7885 -0.8015
  135SAPE  H18Z14693   7.244   1.392   8.455 -1.6068  1.2351 -0.4618
  136SAPE     N14694   4.274   3.913  10.935 -0.6695  0.2045  0.1261
  136SAPE   HN114695   4.265   3.836  10.866 -0.0512  0.6472 -0.4606
  136SAPE   HN214696   4.183   3.963  10.945 -1.4154 -1.2407  0.9194
  136SAPE   HN314697   4.337   3.985  10.895  0.0988  0.6250  1.9883
  136SAPE   C1214698   4.351   3.884  11.066 -0.3691 -0.1424 -0.3206
  136SAPE  H12A14699   4.288   3.812  11.123 -0.8904  1.6988  1.5476
  136SAPE  H12B14700   4.372   3.973  11.128  0.5311 -0.1309 -0.6381
  136SAPE   C1114701   4.482   3.805  11.032  0.9098 -0.0574  0.6008
  136SAPE  H11A14702   4.527   3.791  11.133  0.7193 -2.4982  0.4252
  136SAPE  H11B14703   4.535   3.877  10.966 -1.7722  1.9212  0.4448
  136SAPE     P14704   4.581   3.580  10.969  0.0651 -0.2006  0.4924
  136SAPE   O1314705   4.664   3.611  11.086  0.1869  0.5362 -0.0860
  136SAPE   O1414706   4.528   3.448  10.964 -0.6244  0.3465  0.7430
  136SAPE   O1214707   4.461   3.683  10.966  0.3099  0.2855 -0.4597
  136SAPE   O1114708   4.663   3.632  10.841  0.4274  1.0308 -0.4060
  136SAPE    C114709   4.594   3.666  10.716  0.5164 -0.4886 -0.8753
  136SAPE    HA14710   4.523   3.749  10.738  1.9197  0.3985  0.5975
  136SAPE    HB14711   4.676   3.682  10.643  2.2559 -0.0683  1.0577
  136SAPE    C214712   4.500   3.553  10.653 -0.1658 -0.0470  0.0860
  136SAPE    HS14713   4.407   3.546  10.713  0.6526  1.5055  1.6385
  136SAPE   O2114714   4.574   3.436  10.649 -0.3122  0.1420  0.5260
  136SAPE   C2114715   4.503   3.327  10.654  1.0452  0.1233  0.2521
  136SAPE   O2214716   4.382   3.327  10.636  0.5696 -0.1251 -0.4285
  136SAPE   C2214717   4.594   3.207  10.687 -0.6146 -0.3088  0.0698
  136SAPE   H2R14718   4.667   3.229  10.768 -1.6386  0.4299  0.8290
  136SAPE   H2S14719   4.529   3.134  10.740  1.7210 -0.7815  2.5110
  136SAPE    C314720   4.458   3.596  10.508  0.5011 -0.0630 -0.0274
  136SAPE    HX14721   4.399   3.689  10.523 -0.8894 -0.8562 -0.4256
  136SAPE    HY14722   4.391   3.522  10.460  2.1697 -1.5567 -0.1926
  136SAPE   O3114723   4.570   3.637  10.416 -0.0281 -0.3490 -0.2381
  136SAPE   C3114724   4.598   3.555  10.318  0.3451 -0.4641  0.2985
  136SAPE   O3214725   4.539   3.453  10.293  0.3667 -0.1403  0.1955
  136SAPE   C3214726   4.708   3.608  10.218 -0.0012  0.1979  0.1001
  136SAPE   H2X14727   4.802   3.574  10.267 -0.2277  0.6257  0.8449
  136SAPE   H2Y14728   4.719   3.718  10.228  0.8201  0.2114 -0.7867
  136SAPE   C2314729   4.665   3.136  10.569  0.3894  0.1967  0.7609
  136SAPE   H3R14730   4.741   3.071  10.617  0.4674  1.4545  2.4357
  136SAPE   H3S14731   4.717   3.191  10.488  1.3244  0.6759  1.6611
  136SAPE   C2414732   4.562   3.051  10.500  0.3480  0.6486  0.4462
  136SAPE   H4R14733   4.485   3.111  10.447 -0.9537 -0.8406  0.5478
  136SAPE   H4S14734   4.518   2.993  10.584  0.9088  1.9300  1.6424
  136SAPE   C2514735   4.631   2.947  10.404  0.8558 -0.2213 -0.3505
  136SAPE   H5R14736   4.710   2.888  10.452 -0.3971 -0.9792  0.8592
  136SAPE   C2614737   4.635   2.958  10.271 -0.0310 -0.0160 -0.1037
  136SAPE   H6R14738   4.695   2.888  10.211 -0.3093  1.0955 -1.7438
  136SAPE   C2714739   4.556   3.066  10.189 -0.6239 -0.7286  0.2851
  136SAPE   H7R14740   4.563   3.165  10.239 -2.6190 -1.1466  1.5223
  136SAPE   H7S14741   4.453   3.028  10.171 -0.4484 -0.9861 -0.1884
  136SAPE   C2814742   4.625   3.083  10.061 -0.0152 -0.0696 -0.0277
  136SAPE   H8R14743   4.697   3.166  10.064 -0.9860  0.7766  0.5422
  136SAPE   C2914744   4.610   3.017   9.947 -0.3002  0.9863  0.3498
  136SAPE   H9R14745   4.668   3.052   9.861 -1.6904  0.1851 -0.9528
  136SAPE  C21014746   4.518   2.902   9.916 -0.0231 -0.7922 -0.0913
  136SAPE  H10R14747   4.518   2.883   9.807  0.7165  1.3447 -0.5150
  136SAPE  H10S14748   4.412   2.933   9.926  0.4522  1.1981 -0.6137
  136SAPE  C21114749   4.547   2.781  10.002  0.4993  0.0879  0.3757
  136SAPE  H11R14750   4.526   2.801  10.108  1.3974 -0.0826  0.5981
  136SAPE  C21214751   4.611   2.673   9.956 -0.1198 -0.1803 -0.7099
  136SAPE  H12R14752   4.639   2.596  10.029 -0.8968  0.3807  0.2027
  136SAPE  C21314753   4.659   2.659   9.815  0.7204  1.5766 -0.1187
  136SAPE  H13R14754   4.766   2.630   9.816  0.0849 -1.0216  0.1937
  136SAPE  H13S14755   4.655   2.757   9.762  1.2274  1.5955 -0.1236
  136SAPE  C21414756   4.575   2.554   9.743 -0.1321 -0.3737 -0.1381
  136SAPE  H14R14757   4.585   2.454   9.788 -0.7085 -0.7369 -0.8061
  136SAPE  C21514758   4.513   2.561   9.625 -0.0625 -0.9308  0.4412
  136SAPE  H15R14759   4.462   2.472   9.584 -1.5422  1.8722 -4.8198
  136SAPE  C21614760   4.496   2.680   9.526 -0.6500  0.1856  0.4115
  136SAPE  H16R14761   4.558   2.765   9.561  0.5331 -0.7065  0.5429
  136SAPE  H16S14762   4.389   2.710   9.524 -1.0891 -1.0493  2.5363
  136SAPE  C21714763   4.542   2.644   9.380 -0.4325 -0.0207  0.4931
  136SAPE  H17R14764   4.651   2.625   9.388 -0.5028 -1.2350 -0.9926
  136SAPE  H17S14765   4.513   2.728   9.312 -0.5401 -1.7676 -1.7538
  136SAPE  C21814766   4.452   2.530   9.321 -0.1845 -0.5327 -1.0145
  136SAPE  H18R14767   4.345   2.523   9.349  0.1498 -2.0748  0.0323
  136SAPE  H18S14768   4.491   2.445   9.381 -2.6593  0.3036  2.0195
  136SAPE  C21914769   4.467   2.501   9.175  0.6952  0.3477 -0.2731
  136SAPE  H19R14770   4.451   2.585   9.104  0.0374 -2.0279 -3.1410
  136SAPE  H19S14771   4.379   2.435   9.154  0.6395 -0.2471  1.5954
  136SAPE  C22014772   4.584   2.412   9.155 -0.1186  0.4969  0.7235
  136SAPE  H20R14773   4.594   2.375   9.051 -0.6991 -0.3248  0.9478
  136SAPE  H20S14774   4.578   2.322   9.219  0.6401  1.1251  1.6960
  136SAPE  H20T14775   4.672   2.463   9.199  0.8151 -2.3096  2.3717
  136SAPE   C3314776   4.690   3.550  10.074  0.4973 -0.3378  0.2851
  136SAPE   H3X14777   4.582   3.558  10.048  0.5136  3.0654  0.7337
  136SAPE   H3Y14778   4.735   3.449  10.079  0.6088 -0.2703  0.6425
  136SAPE   C3414779   4.785   3.617   9.963 -1.1827 -0.2058 -0.4389
  136SAPE   H4X14780   4.885   3.570   9.975 -1.5862 -0.7511  1.0830
  136SAPE   H4Y14781   4.793   3.727   9.971  1.9585 -0.4184  0.9978
  136SAPE   C3514782   4.746   3.582   9.823 -0.4368  0.4393 -0.0528
  136SAPE   H5X14783   4.821   3.619   9.749 -0.0919 -0.6768 -0.2790
  136SAPE   H5Y14784   4.651   3.638   9.806 -1.7642 -1.4295  0.8961
  136SAPE   C3614785   4.700   3.437   9.804 -0.4047  0.4126  0.5354
  136SAPE   H6X14786   4.626   3.407   9.882  1.0272 -0.3123  1.6770
  136SAPE   H6Y14787   4.790   3.375   9.827 -0.1829 -0.2310 -1.7921
  136SAPE   C3714788   4.648   3.415   9.665 -0.0463 -0.3902  0.4113
  136SAPE   H7X14789   4.707   3.459   9.582  1.1648 -0.6318  1.1101
  136SAPE   H7Y14790   4.554   3.474   9.662  0.3838  0.2434 -2.0500
  136SAPE   C3814791   4.628   3.263   9.640  0.1242 -0.6245  0.0507
  136SAPE   H8X14792   4.554   3.221   9.711  1.0780 -0.6370  1.0811
  136SAPE   H8Y14793   4.719   3.199   9.650 -0.1633 -1.0142  0.1908
  136SAPE   C3914794   4.576   3.254   9.497 -0.7254 -0.1165  0.2108
  136SAPE   H9X14795   4.661   3.280   9.431  1.1949  1.3187  3.0657
  136SAPE   H9Y14796   4.501   3.333   9.475 -0.9237 -0.0650  1.0380
  136SAPE  C31014797   4.510   3.117   9.475  0.1578 -0.2438 -0.8047
  136SAPE  H10X14798   4.428   3.092   9.545 -0.2363 -1.3342 -1.6455
  136SAPE  H10Y14799   4.588   3.038   9.476 -0.2093 -0.6234  0.9161
  136SAPE  C31114800   4.445   3.115   9.333  0.5712  0.1027 -0.9215
  136SAPE  H11X14801   4.370   3.197   9.340  1.8751  1.3194 -0.6090
  136SAPE  H11Y14802   4.390   3.021   9.310 -2.3615  1.5963 -0.4757
  136SAPE  C31214803   4.536   3.144   9.213 -0.4551 -0.1511 -0.0080
  136SAPE  H12X14804   4.617   3.068   9.210 -0.3820 -0.0413 -1.9160
  136SAPE  H12Y14805   4.581   3.244   9.233 -1.6775  0.3733  0.2230
  136SAPE  C31314806   4.466   3.131   9.082 -0.2261  0.1800  0.6050
  136SAPE  H13X14807   4.378   3.198   9.084 -0.1697  0.2439  1.2892
  136SAPE  H13Y14808   4.433   3.025   9.085 -1.1909  0.4472 -0.2168
  136SAPE  C31414809   4.555   3.178   8.964  0.0150 -0.0158  0.0795
  136SAPE  H14X14810   4.658   3.201   9.001  0.1040  0.9463 -0.7541
  136SAPE  H14Y14811   4.516   3.273   8.924 -0.9441 -0.1716  0.6194
  136SAPE  C31514812   4.561   3.082   8.844 -0.9172 -0.0603 -0.6751
  136SAPE  H15X14813   4.631   3.129   8.771  0.7651 -0.4599  0.6271
  136SAPE  H15Y14814   4.454   3.074   8.813 -0.8010  0.3775 -1.2038
  136SAPE  C31614815   4.617   2.941   8.863  0.0866  0.7997  0.3540
  136SAPE  H16X14816   4.586   2.889   8.956  2.5016 -0.7323  0.3803
  136SAPE  H16Y14817   4.727   2.938   8.870  0.3090  1.8453 -1.7009
  136SAPE  C31714818   4.570   2.851   8.754 -0.3509  0.5398 -0.4603
  136SAPE  H17X14819   4.596   2.871   8.648  0.4973 -1.0262 -0.5674
  136SAPE  H17Y14820   4.459   2.840   8.760 -0.6475  1.5530 -2.9717
  136SAPE  C31814821   4.630   2.716   8.778 -0.3208  0.5455 -0.8230
  136SAPE  H18X14822   4.599   2.637   8.707 -0.2728 -2.6195  2.3580
  136SAPE  H18Y14823   4.618   2.666   8.877 -1.1670  1.9765 -0.1787
  136SAPE  H18Z14824   4.740   2.707   8.766 -0.2317  0.5842 -0.0906
  137SAPE     N14825   3.770   6.464  11.170 -0.1692  0.1090  0.1872
  137SAPE   HN114826   3.759   6.535  11.245 -1.9098  2.3412 -2.0169
  137SAPE   HN214827   3.873   6.454  11.160 -0.0746  1.9888 -1.2547
  137SAPE   HN314828   3.731   6.497  11.080  0.0829 -0.1854 -0.0311
  137SAPE   C1214829   3.696   6.336  11.199  0.1051 -0.5998  0.2518
  137SAPE  H12A14830   3.589   6.366  11.191  0.7935  2.0690  0.2880
  137SAPE  H12B14831   3.707   6.305  11.305 -0.4307 -1.1766  0.1485
  137SAPE   C1114832   3.753   6.230  11.109 -0.2780 -0.0968  0.3345
  137SAPE  H11A14833   3.678   6.149  11.104  1.7129 -1.9771 -0.3021
  137SAPE  H11B14834   3.850   6.195  11.150  0.5410 -2.6366 -3.3139
  137SAPE     P14835   3.836   6.194  10.866  0.4454  0.4126  0.0315
  137SAPE   O1314836   3.979   6.167  10.897  0.1688  0.8879 -0.3601
  137SAPE   O1414837   3.747   6.080  10.843  0.2384 -0.3870  0.3997
  137SAPE   O1214838   3.780   6.279  10.983  0.1227 -0.1650 -0.1180
  137SAPE   O1114839   3.833   6.294  10.747  0.4837 -0.2023 -0.0123
  137SAPE    C114840   3.770   6.424  10.750 -0.1887 -0.8852  0.2418
  137SAPE    HA14841   3.665   6.416  10.715  0.1709 -1.2525 -0.7948
  137SAPE    HB14842   3.754   6.472  10.849  0.7185  0.0196 -0.0246
  137SAPE    C214843   3.831   6.524  10.647 -0.4251  1.0878 -0.0557
  137SAPE    HS14844   3.763   6.612  10.651 -1.5354  0.3567 -1.6650
  137SAPE   O2114845   3.817   6.471  10.516 -0.3360 -0.5792 -0.0739
  137SAPE   C2114846   3.792   6.560  10.421 -0.2500  0.6408 -0.5581
  137SAPE   O2214847   3.740   6.668  10.441  0.4213  0.5608  0.2497
  137SAPE   C2214848   3.833   6.503  10.281 -0.0753 -0.6148 -0.6835
  137SAPE   H2R14849   3.926   6.443  10.296 -0.8967 -1.9794 -0.8980
  137SAPE   H2S14850   3.765   6.423  10.246 -0.3386 -0.9429  0.5647
  137SAPE    C314851   3.975   6.556  10.682 -0.0614 -0.2717  0.5354
  137SAPE    HX14852   4.045   6.476  10.649 -0.0964  0.3012 -1.0034
  137SAPE    HY14853   3.994   6.551  10.792  1.7079 -1.1252  0.2226
  137SAPE   O3114854   4.016   6.685  10.643 -0.2449 -0.5587  0.4718
  137SAPE   C3114855   4.087   6.690  10.529  0.6891  0.7716  0.4565
  137SAPE   O3214856   4.110   6.591  10.455 -0.2135 -0.5183 -0.1694
  137SAPE   C3214857   4.145   6.830  10.501 -0.0559  0.5113 -0.2955
  137SAPE   H2X14858   4.220   6.848  10.581 -0.5020 -1.3827  0.6111
  137SAPE   H2Y14859   4.062   6.903  10.494  0.5125  1.1635 -0.3907
  137SAPE   C2314860   3.846   6.611  10.168 -0.3546  0.7102 -0.2215
  137SAPE   H3R14861   3.902   6.698  10.210  0.6169  0.1274 -0.2699
  137SAPE   H3S14862   3.739   6.628  10.145 -0.8828 -2.9977 -1.0778
  137SAPE   C2414863   3.916   6.553  10.041 -0.4755  0.1822  0.0886
  137SAPE   H4R14864   3.884   6.622   9.959 -0.2169  1.2391  0.8552
  137SAPE   H4S14865   3.874   6.452  10.023  0.3203 -0.3209  0.9538
  137SAPE   C2514866   4.070   6.546  10.059 -0.1476 -0.3460 -0.7997
  137SAPE   H5R14867   4.106   6.502  10.154 -0.0949  2.9820  0.8778
  137SAPE   C2614868   4.155   6.580   9.964 -0.7896  0.0540  0.3946
  137SAPE   H6R14869   4.258   6.569  10.002 -0.7375  1.7037  0.8013
  137SAPE   C2714870   4.130   6.622   9.821  0.1728  0.0611  0.6732
  137SAPE   H7R14871   4.184   6.715   9.793  0.2399  0.3368  1.7110
  137SAPE   H7S14872   4.023   6.649   9.806 -0.1393 -1.6054 -0.4146
  137SAPE   C2814873   4.165   6.511   9.723  0.2829 -0.4422 -0.2902
  137SAPE   H8R14874   4.182   6.412   9.769 -1.7284 -0.2489  0.9916
  137SAPE   C2914875   4.162   6.506   9.591 -0.5826 -0.5929  0.0835
  137SAPE   H9R14876   4.172   6.410   9.538  0.6432  0.1827 -1.1641
  137SAPE  C21014877   4.139   6.623   9.504  0.4667 -0.3693 -0.6642
  137SAPE  H10R14878   4.164   6.716   9.560  0.6855 -1.0087  0.3421
  137SAPE  H10S14879   4.029   6.626   9.490  0.0837 -2.2951  1.2558
  137SAPE  C21114880   4.212   6.632   9.370  0.3489  0.1324  0.0477
  137SAPE  H11R14881   4.317   6.664   9.366  0.8104 -1.3599 -0.3468
  137SAPE  C21214882   4.156   6.603   9.249 -0.3717  0.3773 -0.3792
  137SAPE  H12R14883   4.231   6.605   9.168  1.7162 -0.1410  1.4543
  137SAPE  C21314884   4.014   6.560   9.218  0.2280  0.6045  0.5910
  137SAPE  H13R14885   3.943   6.642   9.242 -0.7666  1.1380 -3.5123
  137SAPE  H13S14886   3.988   6.472   9.281  2.1248 -1.5428 -1.4498
  137SAPE  C21414887   3.982   6.499   9.087  0.0943 -0.1856  0.3573
  137SAPE  H14R14888   3.981   6.390   9.075  2.7386 -0.0642 -2.0677
  137SAPE  C21514889   3.959   6.574   8.969  0.1755  0.4442  0.1330
  137SAPE  H15R14890   3.931   6.525   8.875 -1.6544  2.9800 -0.7736
  137SAPE  C21614891   3.969   6.724   8.965  0.1523  0.3154  0.8634
  137SAPE  H16R14892   3.970   6.773   9.065  1.0240  0.5640  0.7492
  137SAPE  H16S14893   3.880   6.766   8.915 -0.6133 -0.5955  1.4401
  137SAPE  C21714894   4.090   6.781   8.883  0.3131 -0.0264 -0.3530
  137SAPE  H17R14895   4.081   6.752   8.776  0.0687 -2.1006  0.1825
  137SAPE  H17S14896   4.187   6.743   8.920  0.3153 -0.2142 -0.5478
  137SAPE  C21814897   4.095   6.934   8.890  0.0477 -0.3473  0.4876
  137SAPE  H18R14898   4.117   6.957   8.997  1.4776  0.2014  0.1010
  137SAPE  H18S14899   3.994   6.980   8.878  0.4063  0.8505  1.7494
  137SAPE  C21914900   4.204   7.001   8.800  0.2227  0.5718  0.2445
  137SAPE  H19R14901   4.296   6.962   8.847 -0.4721 -0.4580  0.7780
  137SAPE  H19S14902   4.200   7.111   8.815 -1.5846  1.1103 -3.1811
  137SAPE  C22014903   4.207   6.977   8.645  0.0050  0.0762 -0.5481
  137SAPE  H20R14904   4.103   6.964   8.610  0.8945 -3.6304 -2.3534
  137SAPE  H20S14905   4.257   6.879   8.632 -1.5226 -0.8007 -0.0510
  137SAPE  H20T14906   4.253   7.064   8.592  0.8958  1.4041  2.2351
  137SAPE   C3314907   4.224   6.827  10.368 -0.4010 -0.1950  0.0825
  137SAPE   H3X14908   4.221   6.933  10.333 -2.2445 -0.2374  0.0676
  137SAPE   H3Y14909   4.178   6.762  10.292  4.5901 -0.0888 -3.5682
  137SAPE   C3414910   4.373   6.785  10.377 -0.7223 -0.8729 -0.5406
  137SAPE   H4X14911   4.359   6.696  10.440 -0.3083 -2.0134 -1.9917
  137SAPE   H4Y14912   4.427   6.864  10.433 -0.2332 -1.4111 -0.2408
  137SAPE   C3514913   4.439   6.753  10.244 -0.2987  0.3664  0.4975
  137SAPE   H5X14914   4.385   6.666  10.202 -0.7399 -0.3280  2.3832
  137SAPE   H5Y14915   4.542   6.721  10.272  0.3942  1.9767 -0.0988
  137SAPE   C3614916   4.440   6.850  10.128 -0.3878  0.1185 -0.0844
  137SAPE   H6X14917   4.509   6.937  10.140 -0.8593  0.3606  1.1032
  137SAPE   H6Y14918   4.341   6.901  10.132 -1.2339 -1.4706 -0.0440
  137SAPE   C3714919   4.479   6.798   9.994 -0.0961 -0.1710 -0.5498
  137SAPE   H7X14920   4.433   6.700   9.967 -0.1115 -0.4948  0.5784
  137SAPE   H7Y14921   4.588   6.785   9.976  0.3234  1.5724  0.5262
  137SAPE   C3814922   4.427   6.896   9.883  0.2481 -0.2960 -0.3337
  137SAPE   H8X14923   4.450   7.001   9.911 -0.9149  0.0833 -0.7330
  137SAPE   H8Y14924   4.316   6.893   9.884  0.2386 -0.2438 -0.9824
  137SAPE   C3914925   4.464   6.858   9.739 -0.7218 -0.4917  0.4434
  137SAPE   H9X14926   4.417   6.760   9.715  0.7074 -0.4709 -3.0387
  137SAPE   H9Y14927   4.574   6.842   9.746 -0.5251  0.4407 -0.3230
  137SAPE  C31014928   4.414   6.964   9.632 -0.6517 -0.0171 -0.7151
  137SAPE  H10X14929   4.470   7.060   9.640 -0.0595 -0.2645 -1.6760
  137SAPE  H10Y14930   4.305   6.981   9.645 -0.5017  0.0516  0.5009
  137SAPE  C31114931   4.443   6.914   9.491 -0.2548 -0.0385 -0.1436
  137SAPE  H11X14932   4.385   6.822   9.469  0.7550 -0.1586 -2.6209
  137SAPE  H11Y14933   4.554   6.906   9.485 -0.1442  1.5400 -0.6577
  137SAPE  C31214934   4.405   7.010   9.379  0.1904  0.1353 -0.0482
  137SAPE  H12X14935   4.464   7.103   9.397  0.5456 -0.2451  0.7991
  137SAPE  H12Y14936   4.297   7.031   9.395 -0.2478 -2.7882  1.3936
  137SAPE  C31314937   4.442   6.953   9.243 -0.5955 -0.1864 -0.2122
  137SAPE  H13X14938   4.399   6.851   9.235 -2.2397  0.6224 -3.1408
  137SAPE  H13Y14939   4.552   6.940   9.230 -0.5809  1.5478 -2.1723
  137SAPE  C31414940   4.389   7.031   9.121  0.0620 -0.3660 -0.3526
  137SAPE  H14X14941   4.279   7.041   9.121  0.0469 -0.4996  0.0744
  137SAPE  H14Y14942   4.416   6.979   9.027  1.0509 -0.1011 -0.2306
  137SAPE  C31514943   4.459   7.167   9.114  0.8175 -0.6340 -0.1309
  137SAPE  H15X14944   4.566   7.144   9.093  1.1916 -0.0102  0.9856
  137SAPE  H15Y14945   4.447   7.218   9.212  0.3807  0.2859 -0.6497
  137SAPE  C31614946   4.427   7.259   8.992 -0.2915 -0.1170  0.1156
  137SAPE  H16X14947   4.320   7.240   8.972  0.2951 -0.6299 -2.9473
  137SAPE  H16Y14948   4.476   7.238   8.895  1.6014  3.2143  0.1767
  137SAPE  C31714949   4.459   7.406   9.023  0.0138  0.6864 -0.1452
  137SAPE  H17X14950   4.395   7.429   9.110 -0.4030  0.2077 -0.3155
  137SAPE  H17Y14951   4.431   7.466   8.933 -2.0222 -0.8357 -0.6168
  137SAPE  C31814952   4.605   7.430   9.066 -0.0751  0.5370 -0.2038
  137SAPE  H18X14953   4.621   7.382   9.165 -3.4374 -0.1589  0.1043
  137SAPE  H18Y14954   4.630   7.536   9.086 -0.5737  0.3231  1.7517
  137SAPE  H18Z14955   4.677   7.368   9.008 -1.8067 -1.3220 -0.4759
  138SAPE     N14956   1.311   3.947  10.727  0.3352 -0.9616  0.2215
  138SAPE   HN114957   1.225   3.921  10.779 -1.2828  0.7840 -1.4147
  138SAPE   HN214958   1.331   3.880  10.650  5.3251 -0.3973  0.7013
  138SAPE   HN314959   1.391   3.952  10.793 -1.4451  0.4170  2.4293
  138SAPE   C1214960   1.278   4.081  10.675 -0.1690  0.3479 -0.2541
  138SAPE  H12A14961   1.363   4.120  10.615  0.5295  0.1248  0.5630
  138SAPE  H12B14962   1.275   4.148  10.764 -2.2343 -0.7599  0.5886
  138SAPE   C1114963   1.148   4.086  10.587  0.1304  0.0446 -0.4786
  138SAPE  H11A14964   1.169   4.053  10.483 -2.6510 -2.2504 -0.4480
  138SAPE  H11B14965   1.111   4.191  10.584  2.1468  0.9082  2.0137
  138SAPE     P14966   0.902   4.016  10.675 -0.3588  0.0122 -0.0951
  138SAPE   O1314967   0.830   3.891  10.712  0.1360 -0.2489 -0.1135
  138SAPE   O1414968   0.904   4.123  10.777 -0.0164  0.3755  0.2333
  138SAPE   O1214969   1.052   3.990  10.636 -0.4834  1.0155  0.3055
  138SAPE   O1114970   0.844   4.067  10.535  0.3415  0.6981 -0.0860
  138SAPE    C114971   0.837   3.973  10.428  0.7420 -0.0536 -0.1453
  138SAPE    HA14972   0.934   3.970  10.373 -0.6728 -2.6993 -2.8270
  138SAPE    HB14973   0.798   3.877  10.469 -2.0731  1.7084  1.5551
  138SAPE    C214974   0.732   4.021  10.325 -1.0380 -0.1723  0.0713
  138SAPE    HS14975   0.631   4.025  10.372 -0.9518 -1.8016  0.4460
  138SAPE   O2114976   0.738   3.920  10.220 -0.1549 -0.2010  0.0043
  138SAPE   C2114977   0.628   3.913  10.144  0.1208  0.2968 -0.7109
  138SAPE   O2214978   0.526   3.981  10.170  0.1591  0.2874 -0.4358
  138SAPE   C2214979   0.637   3.819  10.035  0.4239 -0.0711  1.1156
  138SAPE   H2R14980   0.705   3.737  10.069  0.9360 -0.7392 -1.3079
  138SAPE   H2S14981   0.534   3.783  10.018 -0.7961  2.5075  2.4862
  138SAPE    C314982   0.753   4.160  10.247 -0.1232 -0.3397 -0.4666
  138SAPE    HX14983   0.778   4.228  10.331 -0.0253 -2.3152  1.2075
  138SAPE    HY14984   0.662   4.192  10.193  0.3198  3.0353  0.6025
  138SAPE   O3114985   0.860   4.161  10.152  0.0261 -0.1953  0.7324
  138SAPE   C3114986   0.974   4.211  10.179 -1.2283  0.0333  0.3706
  138SAPE   O3214987   1.005   4.279  10.280  0.6822 -0.0961  0.1193
  138SAPE   C3214988   1.081   4.191  10.067  0.4117 -0.9588 -0.1274
  138SAPE   H2X14989   1.021   4.201   9.974 -0.2285 -1.9293  0.1636
  138SAPE   H2Y14990   1.103   4.082  10.062 -1.0790 -1.4545  2.1176
  138SAPE   C2314991   0.704   3.871   9.905 -0.4707  0.5769 -0.4333
  138SAPE   H3R14992   0.758   3.784   9.862 -1.4655  0.5166 -1.6389
  138SAPE   H3S14993   0.773   3.955   9.926  0.7512 -0.3841 -0.5092
  138SAPE   C2414994   0.603   3.928   9.801  0.3006  0.3947 -1.5908
  138SAPE   H4R14995   0.652   3.995   9.727  0.0616  0.5638 -1.5991
  138SAPE   H4S14996   0.539   3.987   9.870  0.7502 -1.2437  0.3299
  138SAPE   C2514997   0.502   3.826   9.747 -0.1024  1.0055 -1.0106
  138SAPE   H5R14998   0.435   3.782   9.823  0.7302  1.3443 -0.0638
  138SAPE   C2614999   0.496   3.790   9.620 -0.2486 -0.1221 -0.3023
  138SAPE   H6R15000   0.421   3.715   9.590 -1.2709  0.1968  1.3727
  138SAPE   C2715001   0.583   3.848   9.510  0.1703  0.4438 -0.1457
  138SAPE   H7R15002   0.616   3.951   9.531  0.7033  0.0008  1.3312
  138SAPE   H7S15003   0.521   3.852   9.418  0.6099 -0.3085 -0.4889
  138SAPE   C2815004   0.707   3.758   9.486 -0.4237 -0.4743 -0.5817
  138SAPE   H8R15005   0.748   3.723   9.582  2.3315  1.0454 -1.0816
  138SAPE   C2915006   0.750   3.714   9.364 -0.0965  0.1481  0.5787
  138SAPE   H9R15007   0.838   3.649   9.367 -0.4166 -0.2506  1.5853
  138SAPE  C21015008   0.692   3.736   9.223 -0.6184 -0.2565  0.0595
  138SAPE  H10R15009   0.582   3.723   9.224 -0.7048  0.4247  1.2348
  138SAPE  H10S15010   0.734   3.654   9.161 -0.1844 -2.4574  3.0015
  138SAPE  C21115011   0.728   3.879   9.178  0.4371 -0.5088  0.4577
  138SAPE  H11R15012   0.735   3.953   9.259  1.2538 -0.7079  0.5768
  138SAPE  C21215013   0.784   3.924   9.062 -0.6898  0.1907  0.0569
  138SAPE  H12R15014   0.830   4.023   9.048  2.4025 -1.0353  0.5868
  138SAPE  C21315015   0.809   3.836   8.937  0.2434  0.1033  0.5740
  138SAPE  H13R15016   0.711   3.790   8.912  0.3652  0.6859 -1.0707
  138SAPE  H13S15017   0.886   3.758   8.953 -0.0546 -0.3068  0.0396
  138SAPE  C21415018   0.851   3.913   8.814  0.1424 -0.1550 -0.1547
  138SAPE  H14R15019   0.958   3.939   8.805  0.1823 -0.2846 -0.0681
  138SAPE  C21515020   0.768   3.949   8.718  0.0349 -0.2638  0.1684
  138SAPE  H15R15021   0.810   4.002   8.631  0.4907  0.7443  0.9750
  138SAPE  C21615022   0.624   3.925   8.704  0.0394  0.3914 -0.4380
  138SAPE  H16R15023   0.583   3.996   8.779 -0.6150 -0.4765  0.0468
  138SAPE  H16S15024   0.593   3.823   8.739  0.9303  0.5669  0.9224
  138SAPE  C21715025   0.580   3.942   8.563  0.1514 -1.1134  0.3059
  138SAPE  H17R15026   0.617   4.036   8.518  1.9335 -0.9806  1.9393
  138SAPE  H17S15027   0.470   3.937   8.549  0.0101  0.0182  0.9342
  138SAPE  C21815028   0.626   3.832   8.471 -0.0620  0.2014 -0.3761
  138SAPE  H18R15029   0.615   3.735   8.522  2.2129 -0.2714 -0.6637
  138SAPE  H18S15030   0.735   3.854   8.465  0.3070 -0.8889  1.6718
  138SAPE  C21915031   0.568   3.838   8.330  0.2306  0.4926 -0.6904
  138SAPE  H19R15032   0.459   3.861   8.336 -0.6321 -3.2282  1.3609
  138SAPE  H19S15033   0.576   3.739   8.280 -2.4190  0.1803 -0.6263
  138SAPE  C22015034   0.627   3.952   8.240  0.1097  0.9142 -0.3226
  138SAPE  H20R15035   0.738   3.952   8.247  0.0110  1.3799  1.9767
  138SAPE  H20S15036   0.592   4.049   8.282  0.1167  1.6104 -1.8252
  138SAPE  H20T15037   0.596   3.947   8.133  0.9531  1.4194 -0.6010
  138SAPE   C3315038   1.202   4.291  10.082  0.5380 -0.9278 -0.5032
  138SAPE   H3X15039   1.224   4.325  10.186 -0.5067 -1.7839  0.0197
  138SAPE   H3Y15040   1.152   4.371  10.024 -2.7415 -1.6886  1.0433
  138SAPE   C3415041   1.327   4.242  10.003  0.2890 -0.3211  0.0033
  138SAPE   H4X15042   1.296   4.199   9.905  1.6047  0.9863 -1.0360
  138SAPE   H4Y15043   1.366   4.155  10.061  1.7260 -0.6004 -1.3127
  138SAPE   C3515044   1.438   4.340   9.971  0.2624 -0.3347  0.5850
  138SAPE   H5X15045   1.526   4.291   9.924  0.7422  1.9172 -1.0421
  138SAPE   H5Y15046   1.472   4.384  10.067 -1.7978  2.2009  0.2703
  138SAPE   C3615047   1.394   4.455   9.879  0.4265 -0.3856  0.1247
  138SAPE   H6X15048   1.478   4.523   9.855 -0.7051  2.1065  2.7072
  138SAPE   H6Y15049   1.316   4.512   9.935 -0.8632 -2.0178  0.0688
  138SAPE   C3715050   1.330   4.411   9.741 -0.2161  0.4175  0.3530
  138SAPE   H7X15051   1.293   4.495   9.679 -0.0073 -1.0030 -1.8120
  138SAPE   H7Y15052   1.234   4.355   9.754 -0.1475 -0.1601 -1.3964
  138SAPE   C3815053   1.438   4.348   9.653 -0.3978 -0.1381 -0.8741
  138SAPE   H8X15054   1.514   4.294   9.714  0.0718  3.5467  2.1756
  138SAPE   H8Y15055   1.486   4.432   9.600 -0.1593  0.0050 -0.4373
  138SAPE   C3915056   1.376   4.261   9.546 -0.0608 -0.3147  0.2255
  138SAPE   H9X15057   1.275   4.217   9.562 -0.2338 -0.0549 -0.1380
  138SAPE   H9Y15058   1.438   4.175   9.515 -2.5024 -1.2050 -2.7293
  138SAPE  C31015059   1.354   4.356   9.420 -0.3447  0.2613 -0.1774
  138SAPE  H10X15060   1.441   4.422   9.402 -0.1453  0.2629  0.7359
  138SAPE  H10Y15061   1.259   4.406   9.449 -0.6629 -0.9021  0.9264
  138SAPE  C31115062   1.319   4.276   9.293  0.6925  0.3666 -0.0547
  138SAPE  H11X15063   1.228   4.213   9.296 -0.2235  1.4142 -2.6835
  138SAPE  H11Y15064   1.402   4.205   9.269 -1.0422 -0.5689 -4.2026
  138SAPE  C31215065   1.294   4.367   9.178 -0.8787 -0.3585  0.4485
  138SAPE  H12X15066   1.392   4.417   9.163  1.2336 -3.8732  1.3959
  138SAPE  H12Y15067   1.224   4.450   9.203 -0.5559  0.8673 -2.3650
  138SAPE  C31315068   1.242   4.302   9.045 -0.6483 -0.2720  0.1563
  138SAPE  H13X15069   1.148   4.252   9.078 -0.3336 -1.2597 -0.4166
  138SAPE  H13Y15070   1.309   4.221   9.010  0.0320 -0.3572  1.5928
  138SAPE  C31415071   1.200   4.404   8.944  0.3642 -0.0437 -0.1541
  138SAPE  H14X15072   1.284   4.471   8.917  0.3361 -0.4807 -1.4060
  138SAPE  H14Y15073   1.127   4.475   8.988  0.8464 -0.4981  1.4443
  138SAPE  C31515074   1.132   4.347   8.818  0.0068 -0.8543 -0.0291
  138SAPE  H15X15075   1.109   4.430   8.747  0.6739 -1.1763 -0.6301
  138SAPE  H15Y15076   1.040   4.290   8.843  0.5676 -1.8867 -0.2970
  138SAPE  C31615077   1.212   4.234   8.747  0.6523 -0.2236  0.2915
  138SAPE  H16X15078   1.190   4.145   8.810 -0.3157  0.0087  0.2887
  138SAPE  H16Y15079   1.321   4.256   8.739  0.1997  2.5237  0.6879
  138SAPE  C31715080   1.144   4.215   8.610 -0.1092  0.3055 -0.2165
  138SAPE  H17X15081   1.164   4.311   8.557  0.2641  0.2250 -0.2228
  138SAPE  H17Y15082   1.034   4.206   8.623  0.2931 -3.3534  1.7751
  138SAPE  C31815083   1.193   4.087   8.529  0.0553 -0.2843 -0.6588
  138SAPE  H18X15084   1.165   4.008   8.601 -1.0723  0.7002  0.0281
  138SAPE  H18Y15085   1.304   4.094   8.524 -0.0282  1.4479 -0.8861
  138SAPE  H18Z15086   1.159   4.071   8.424  1.9206  0.7731 -1.4724
  139SAPE     N15087   5.376   4.733  10.967  0.2020  0.3199  0.4677
  139SAPE   HN115088   5.378   4.630  10.953 -0.3213  0.1444  1.6026
  139SAPE   HN215089   5.466   4.768  11.006 -1.4246  3.5207  1.7178
  139SAPE   HN315090   5.302   4.752  11.038 -0.9311 -0.4714 -0.4672
  139SAPE   C1215091   5.351   4.804  10.838  0.1278 -0.5543  0.1202
  139SAPE  H12A15092   5.250   4.780  10.797 -0.1177  0.4987  0.0892
  139SAPE  H12B15093   5.433   4.786  10.766  0.4836 -0.4278  0.4956
  139SAPE   C1115094   5.358   4.957  10.852 -0.3406  0.6860 -0.4695
  139SAPE  H11A15095   5.454   5.006  10.878  0.7089 -1.1764 -0.6628
  139SAPE  H11B15096   5.285   4.980  10.933  0.9659  0.1734  0.8832
  139SAPE     P15097   5.223   5.125  10.705 -0.0350  0.2084 -0.0725
  139SAPE   O1315098   5.115   5.127  10.812 -0.1259  0.2949  0.1000
  139SAPE   O1415099   5.298   5.251  10.687  0.1157 -0.1608 -0.5511
  139SAPE   O1215100   5.319   5.006  10.724  0.0543  0.2136 -0.2495
  139SAPE   O1115101   5.146   5.101  10.572  0.7096  0.7180  0.0300
  139SAPE    C115102   5.118   4.971  10.532  1.0553  0.0705 -0.5578
  139SAPE    HA15103   5.112   4.894  10.612 -1.4218  0.0410 -0.7193
  139SAPE    HB15104   5.019   4.964  10.483 -0.7337 -2.5609  3.0096
  139SAPE    C215105   5.216   4.904  10.430 -0.1833 -0.0484  0.0121
  139SAPE    HS15106   5.307   4.892  10.493 -0.1484  0.6658  0.1152
  139SAPE   O2115107   5.248   5.004  10.330 -0.6868  0.2067  0.0606
  139SAPE   C2115108   5.369   4.995  10.275 -1.0514  0.5457  0.4560
  139SAPE   O2215109   5.454   4.912  10.293  0.6696 -0.8057  0.7672
  139SAPE   C2215110   5.377   5.096  10.153 -0.2782 -0.3090  0.1815
  139SAPE   H2R15111   5.373   5.034  10.061  0.4900 -1.9022  1.1770
  139SAPE   H2S15112   5.294   5.169  10.167  1.3262  1.3942  1.3166
  139SAPE    C315113   5.162   4.777  10.360 -0.5126 -0.3738 -0.1157
  139SAPE    HX15114   5.064   4.810  10.320 -0.7808  0.0378  0.8477
  139SAPE    HY15115   5.139   4.713  10.448 -2.3426 -1.9639 -1.6443
  139SAPE   O3115116   5.243   4.726  10.255 -0.2479  0.0213  0.6533
  139SAPE   C3115117   5.333   4.628  10.287  0.3927 -1.0535 -0.1281
  139SAPE   O3215118   5.345   4.583  10.400  0.4992  0.3771  0.8519
  139SAPE   C3215119   5.418   4.587  10.161 -0.0216 -0.5977  0.1273
  139SAPE   H2X15120   5.482   4.497  10.178  0.8752 -0.3477 -1.7184
  139SAPE   H2Y15121   5.484   4.675  10.146 -0.7549 -0.0428  0.1057
  139SAPE   C2315122   5.499   5.186  10.149 -0.1648 -0.4690  0.6593
  139SAPE   H3R15123   5.581   5.138  10.207  0.2685  0.2133  0.6143
  139SAPE   H3S15124   5.475   5.276  10.210 -0.6063 -0.2134  0.1113
  139SAPE   C2415125   5.530   5.257  10.024  0.3169 -0.6831 -0.3596
  139SAPE   H4R15126   5.577   5.176   9.963  0.4110 -3.7361  3.3723
  139SAPE   H4S15127   5.603   5.339  10.038 -1.3154  0.9210 -0.8368
  139SAPE   C2515128   5.408   5.317   9.955 -0.1316 -0.0317 -0.1254
  139SAPE   H5R15129   5.355   5.394  10.013  2.0431 -0.0729  2.0595
  139SAPE   C2615130   5.357   5.281   9.834  0.3186  0.1606 -0.0970
  139SAPE   H6R15131   5.270   5.339   9.801  0.3791  1.2622  1.5830
  139SAPE   C2715132   5.400   5.180   9.734 -0.9147  0.1115  0.4417
  139SAPE   H7R15133   5.316   5.149   9.668 -1.0861  0.9283  0.2624
  139SAPE   H7S15134   5.449   5.096   9.788  0.8542 -0.8527 -2.4063
  139SAPE   C2815135   5.523   5.230   9.651  0.2133  0.6441 -0.4590
  139SAPE   H8R15136   5.609   5.246   9.718 -2.1986 -2.0804  3.7609
  139SAPE   C2915137   5.526   5.251   9.514  0.7247 -0.1242  0.9634
  139SAPE   H9R15138   5.619   5.283   9.465 -0.1596 -1.5794 -1.9212
  139SAPE  C21015139   5.413   5.216   9.421  0.8447  1.0445  0.4532
  139SAPE  H10R15140   5.329   5.155   9.463 -0.4562  1.0520 -1.9403
  139SAPE  H10S15141   5.463   5.154   9.343  2.1562  1.2772  1.0984
  139SAPE  C21115142   5.341   5.330   9.353 -0.8819 -0.2957 -0.6303
  139SAPE  H11R15143   5.366   5.430   9.390  1.3036 -0.0680 -2.5350
  139SAPE  C21215144   5.260   5.312   9.251 -0.0898 -0.1984  0.4725
  139SAPE  H12R15145   5.218   5.403   9.206 -0.2858 -1.1627 -1.3555
  139SAPE  C21315146   5.212   5.176   9.196 -0.1750  0.0794  0.4916
  139SAPE  H13R15147   5.256   5.092   9.253 -1.6838 -0.4307  0.9665
  139SAPE  H13S15148   5.252   5.167   9.092 -1.7784 -0.7468 -0.1008
  139SAPE  C21415149   5.066   5.168   9.187  0.0586 -0.8063 -0.1500
  139SAPE  H14R15150   5.030   5.172   9.083  1.8012  0.3357 -0.7509
  139SAPE  C21515151   4.971   5.168   9.287 -0.1616  0.0491 -0.5390
  139SAPE  H15R15152   4.865   5.162   9.259 -0.3756  1.0746 -0.0064
  139SAPE  C21615153   4.996   5.181   9.436  0.5454  0.4576 -0.6220
  139SAPE  H16R15154   5.094   5.212   9.478 -0.2149  0.8802  0.9562
  139SAPE  H16S15155   4.976   5.080   9.477 -1.6944  0.9746 -0.3042
  139SAPE  C21715156   4.898   5.281   9.499  0.0271  0.3944  0.7381
  139SAPE  H17R15157   4.792   5.247   9.498  0.5704 -1.4107 -0.9736
  139SAPE  H17S15158   4.915   5.380   9.451  0.6641 -0.2466 -0.3990
  139SAPE  C21815159   4.940   5.305   9.646 -0.5005 -0.1610  0.4962
  139SAPE  H18R15160   5.049   5.286   9.647 -0.9256 -3.0869 -0.5070
  139SAPE  H18S15161   4.892   5.233   9.715 -1.7829  0.4427  0.2589
  139SAPE  C21915162   4.910   5.448   9.686 -0.3410 -0.7042 -0.3185
  139SAPE  H19R15163   4.804   5.478   9.671  0.3221  1.5403 -0.8406
  139SAPE  H19S15164   4.966   5.523   9.626  0.4108 -1.0504 -0.0633
  139SAPE  C22015165   4.949   5.469   9.834  0.7389  0.5255 -0.1024
  139SAPE  H20R15166   4.936   5.576   9.861  1.5719  1.3430 -2.6701
  139SAPE  H20S15167   5.055   5.445   9.858  1.1388  1.8054 -0.5478
  139SAPE  H20T15168   4.877   5.413   9.897 -1.1749  0.9283 -1.8406
  139SAPE   C3315169   5.335   4.554  10.032  0.0984  0.6158  0.0069
  139SAPE   H3X15170   5.247   4.617  10.005 -0.0174 -0.4557 -2.4489
  139SAPE   H3Y15171   5.300   4.451  10.055  0.4517  0.0563 -1.7709
  139SAPE   C3415172   5.419   4.551   9.904  0.6416 -0.8696  0.3715
  139SAPE   H4X15173   5.525   4.562   9.935  0.2684 -0.0604  1.4244
  139SAPE   H4Y15174   5.407   4.650   9.856  3.9563 -0.7613 -0.4242
  139SAPE   C3515175   5.415   4.436   9.805  0.0711  0.1445  0.1062
  139SAPE   H5X15176   5.322   4.412   9.747 -0.5696 -4.4008  2.5239
  139SAPE   H5Y15177   5.430   4.337   9.853  1.3047 -0.0484 -0.6307
  139SAPE   C3615178   5.526   4.465   9.702 -0.2628  0.3720  0.0350
  139SAPE   H6X15179   5.617   4.403   9.719  0.4071  0.2658 -3.2117
  139SAPE   H6Y15180   5.569   4.567   9.696  1.5677 -0.3920 -0.6087
  139SAPE   C3715181   5.489   4.433   9.564 -0.3102  0.2327  0.4763
  139SAPE   H7X15182   5.397   4.486   9.531 -1.4718 -2.3151 -0.6133
  139SAPE   H7Y15183   5.474   4.324   9.551 -0.9908  0.0656  2.4202
  139SAPE   C3815184   5.597   4.487   9.476 -0.3299 -0.1638  1.1971
  139SAPE   H8X15185   5.696   4.475   9.524  1.0173  0.8143 -1.2146
  139SAPE   H8Y15186   5.584   4.597   9.471  2.0960  0.1085 -1.3590
  139SAPE   C3915187   5.592   4.444   9.322  0.5877  0.3303 -0.7835
  139SAPE   H9X15188   5.616   4.336   9.325 -1.0243 -0.0583 -0.6211
  139SAPE   H9Y15189   5.673   4.502   9.273  1.2229  0.1721  0.0472
  139SAPE  C31015190   5.471   4.492   9.243 -0.0121  0.2883  0.1163
  139SAPE  H10X15191   5.466   4.603   9.252  0.7635  0.3735 -0.4323
  139SAPE  H10Y15192   5.381   4.450   9.294 -0.2074  0.1231 -0.3598
  139SAPE  C31115193   5.491   4.441   9.099  0.9408  0.0359  0.8992
  139SAPE  H11X15194   5.482   4.330   9.096 -0.8772  0.1775 -0.1142
  139SAPE  H11Y15195   5.578   4.488   9.048 -1.1194 -0.9608 -4.0646
  139SAPE  C31215196   5.371   4.494   9.015  0.8542  0.0758 -0.1120
  139SAPE  H12X15197   5.362   4.605   9.020 -1.6885 -0.0972  0.7463
  139SAPE  H12Y15198   5.282   4.452   9.067  1.0858 -2.2648 -1.4651
  139SAPE  C31315199   5.363   4.447   8.867 -0.8693 -0.6259  0.1363
  139SAPE  H13X15200   5.261   4.459   8.827 -2.0285 -4.0311  1.7098
  139SAPE  H13Y15201   5.387   4.339   8.858  1.9794  0.0397 -2.0202
  139SAPE  C31415202   5.458   4.528   8.777 -0.4520 -1.1915 -0.5687
  139SAPE  H14X15203   5.553   4.532   8.834 -1.7809 -1.9362  1.8089
  139SAPE  H14Y15204   5.427   4.635   8.769 -1.5356 -1.5115 -0.7801
  139SAPE  C31515205   5.474   4.457   8.645 -0.5857 -0.0611  0.7655
  139SAPE  H15X15206   5.377   4.425   8.601 -1.8436  3.3015  0.8168
  139SAPE  H15Y15207   5.535   4.369   8.675  1.4434  2.1444  3.7240
  139SAPE  C31615208   5.562   4.543   8.543  0.2587 -0.4260 -0.3417
  139SAPE  H16X15209   5.559   4.487   8.447 -0.3459  0.2251 -0.7073
  139SAPE  H16Y15210   5.511   4.640   8.525  1.8716  0.9599  1.9644
  139SAPE  C31715211   5.703   4.579   8.592  0.4026  0.1745  0.4875
  139SAPE  H17X15212   5.759   4.484   8.604  1.5920  0.7577 -0.2346
  139SAPE  H17Y15213   5.702   4.628   8.692 -1.7625  1.2635  0.0096
  139SAPE  C31815214   5.775   4.659   8.488  0.0866 -0.0081 -0.0119
  139SAPE  H18X15215   5.711   4.746   8.460  0.9290  0.1362 -1.6101
  139SAPE  H18Y15216   5.794   4.595   8.400 -1.1800 -0.0693 -0.2615
  139SAPE  H18Z15217   5.873   4.700   8.522  2.1545 -2.8772 -2.0194
  140SAPE     N15218   1.951   1.948  10.885  0.1566  0.2671  0.8075
  140SAPE   HN115219   1.885   1.894  10.946  0.4232  0.5176  1.3253
  140SAPE   HN215220   1.893   1.977  10.803  1.5162  2.3096  0.4836
  140SAPE   HN315221   2.020   1.884  10.842 -1.2431  0.3816 -1.8511
  140SAPE   C1215222   2.016   2.063  10.946  0.1995 -0.1861  0.0489
  140SAPE  H12A15223   2.053   2.129  10.865  2.1725  1.2212  1.9623
  140SAPE  H12B15224   2.106   2.024  10.998 -0.7038 -1.6268  0.5879
  140SAPE   C1115225   1.931   2.133  11.053  0.0288 -0.2703 -0.3146
  140SAPE  H11A15226   1.982   2.164  11.146 -1.4942  0.4655  0.3084
  140SAPE  H11B15227   1.849   2.066  11.085  1.5568 -0.6817  3.1727
  140SAPE     P15228   1.918   2.389  10.957 -0.0834  0.1027 -0.0503
  140SAPE   O1315229   1.805   2.481  10.951  0.2361  0.0453  0.1214
  140SAPE   O1415230   2.040   2.414  11.032  0.1675  0.7574 -0.3840
  140SAPE   O1215231   1.864   2.244  10.994 -0.0628 -0.9232  0.3368
  140SAPE   O1115232   1.959   2.355  10.807  0.2606 -0.0776 -0.2100
  140SAPE    C115233   1.849   2.316  10.725  0.5772 -0.6745  0.0599
  140SAPE    HA15234   1.772   2.248  10.767 -1.4160  0.4985 -1.5128
  140SAPE    HB15235   1.780   2.397  10.694 -1.6158 -1.2734  2.9611
  140SAPE    C215236   1.905   2.261  10.592 -0.5163  0.8320 -0.7701
  140SAPE    HS15237   1.922   2.154  10.616 -3.0227  0.7658  1.1474
  140SAPE   O2115238   2.029   2.328  10.553 -0.1744  0.1312 -0.3175
  140SAPE   C2115239   2.105   2.253  10.479  0.4410  0.1729 -0.0901
  140SAPE   O2215240   2.095   2.129  10.456  0.4422  0.5464  0.4712
  140SAPE   C2215241   2.202   2.352  10.408 -0.6903  0.1232 -0.6836
  140SAPE   H2R15242   2.244   2.415  10.489 -1.4823 -1.9533  1.4533
  140SAPE   H2S15243   2.283   2.285  10.372 -1.2407  0.1017 -1.9212
  140SAPE    C315244   1.796   2.278  10.488  0.4166  0.3187  0.6125
  140SAPE    HX15245   1.788   2.388  10.484  3.1411  0.5596 -0.5656
  140SAPE    HY15246   1.699   2.244  10.531 -0.0356  0.8261 -0.0011
  140SAPE   O3115247   1.825   2.220  10.358  0.0080  0.2045  0.7875
  140SAPE   C3115248   1.796   2.091  10.346  0.4444  0.3667 -0.2005
  140SAPE   O3215249   1.729   2.033  10.430  0.2945  0.1504 -0.0574
  140SAPE   C3215250   1.876   2.030  10.225  0.0640  0.0262  0.0659
  140SAPE   H2X15251   1.860   1.921  10.216  2.0930 -0.5309  2.2909
  140SAPE   H2Y15252   1.986   2.039  10.239  0.2115  0.4971 -1.2460
  140SAPE   C2315253   2.146   2.440  10.294  0.5069  0.5441 -0.0394
  140SAPE   H3R15254   2.207   2.530  10.269  2.6704 -0.2988  1.7971
  140SAPE   H3S15255   2.046   2.469  10.332  0.4211  2.1926 -1.4006
  140SAPE   C2415256   2.117   2.351  10.172  0.5299  0.5409  0.0461
  140SAPE   H4R15257   2.087   2.252  10.212 -1.6221  2.3023  3.2209
  140SAPE   H4S15258   2.211   2.328  10.117  0.0604  3.2809 -2.1371
  140SAPE   C2515259   2.013   2.413  10.085  0.2979  0.1581  0.2787
  140SAPE   H5R15260   1.935   2.457  10.149  0.0703  0.9277 -0.5053
  140SAPE   C2615261   2.004   2.421   9.949 -0.2553 -0.0957 -0.2540
  140SAPE   H6R15262   1.918   2.475   9.906 -1.6936 -0.7415  1.6339
  140SAPE   C2715263   2.102   2.366   9.838 -0.1767  0.3684 -0.1557
  140SAPE   H7R15264   2.187   2.318   9.891 -0.7428  0.1142  0.5399
  140SAPE   H7S15265   2.143   2.445   9.772 -2.3356  1.8996  0.2170
  140SAPE   C2815266   2.032   2.260   9.755  0.8720 -0.2222  0.2732
  140SAPE   H8R15267   2.023   2.162   9.804  2.4404 -0.3159  0.4329
  140SAPE   C2915268   1.953   2.289   9.648  0.0135 -0.6517  0.0924
  140SAPE   H9R15269   1.898   2.208   9.597  0.5333 -1.6147  1.0288
  140SAPE  C21015270   1.931   2.415   9.577  0.1185 -0.4107 -0.3604
  140SAPE  H10R15271   1.961   2.404   9.471 -1.1129  1.6816 -0.9795
  140SAPE  H10S15272   1.990   2.501   9.616 -0.4444  0.0812 -0.5752
  140SAPE  C21115273   1.783   2.446   9.575 -0.0530  0.4673  0.0438
  140SAPE  H11R15274   1.728   2.417   9.666 -1.0656 -0.9812 -0.9877
  140SAPE  C21215275   1.710   2.482   9.473  0.2485 -0.0563  0.4268
  140SAPE  H12R15276   1.602   2.489   9.489 -0.2225 -0.6074 -2.1866
  140SAPE  C21315277   1.754   2.512   9.334  1.0894 -0.4942 -0.2752
  140SAPE  H13R15278   1.846   2.573   9.328  0.5701  0.7408  2.6405
  140SAPE  H13S15279   1.678   2.585   9.297 -0.9094 -1.7858  1.0443
  140SAPE  C21415280   1.747   2.389   9.242 -0.0540  0.6635  0.5405
  140SAPE  H14R15281   1.645   2.348   9.245  0.7725 -1.6997 -1.0739
  140SAPE  C21515282   1.842   2.347   9.155 -0.2859 -0.7289 -0.3864
  140SAPE  H15R15283   1.831   2.260   9.089  0.8601 -0.3721 -1.0800
  140SAPE  C21615284   1.977   2.410   9.144  0.7493 -0.4563  0.7453
  140SAPE  H16R15285   1.996   2.453   9.245  1.1564  0.7476  0.1867
  140SAPE  H16S15286   1.981   2.494   9.072 -0.1520  0.5038  1.7684
  140SAPE  C21715287   2.093   2.316   9.116 -0.5712  1.0245  0.5390
  140SAPE  H17R15288   2.077   2.215   9.159  3.3145  0.3337  0.7155
  140SAPE  H17S15289   2.188   2.348   9.165 -0.2266  1.5293 -0.4228
  140SAPE  C21815290   2.120   2.308   8.962 -0.2673 -0.0498 -0.2535
  140SAPE  H18R15291   2.140   2.413   8.931 -0.0972 -0.0794 -0.2469
  140SAPE  H18S15292   2.028   2.278   8.908  1.2763 -2.6793 -1.6123
  140SAPE  C21915293   2.230   2.210   8.926  0.9489  0.1324  0.1284
  140SAPE  H19R15294   2.330   2.222   8.972  0.9217 -0.0260  0.2307
  140SAPE  H19S15295   2.248   2.238   8.820 -0.4436  1.2508  0.1629
  140SAPE  C22015296   2.178   2.065   8.934  0.1628 -0.0990 -0.4639
  140SAPE  H20R15297   2.152   2.042   9.039 -1.4480  0.3108 -0.7401
  140SAPE  H20S15298   2.259   1.996   8.901  0.6044 -0.3380  1.0356
  140SAPE  H20T15299   2.088   2.027   8.880  0.5041 -0.3869 -0.8396
  140SAPE   C3315300   1.843   2.107  10.094 -0.1537 -0.5560  0.1656
  140SAPE   H3X15301   1.928   2.094  10.024 -0.4651 -0.2156 -0.2794
  140SAPE   H3Y15302   1.828   2.217  10.109 -1.4222 -1.0630  3.6577
  140SAPE   C3415303   1.716   2.049  10.022  0.6045  0.5063  0.1553
  140SAPE   H4X15304   1.617   2.059  10.073  1.2116 -0.6971  1.6262
  140SAPE   H4Y15305   1.728   1.940  10.003  0.3108  0.5816 -0.4856
  140SAPE   C3515306   1.703   2.120   9.884  0.2425  0.3054 -0.6391
  140SAPE   H5X15307   1.802   2.121   9.834  0.8592  1.7376  0.5561
  140SAPE   H5Y15308   1.663   2.222   9.901 -1.3738 -0.4102  0.1521
  140SAPE   C3615309   1.612   2.045   9.787 -0.7047  0.0139  0.8617
  140SAPE   H6X15310   1.509   2.026   9.824 -0.6509 -0.7628  0.6291
  140SAPE   H6Y15311   1.653   1.947   9.754  0.4137  0.3033  1.3628
  140SAPE   C3715312   1.614   2.122   9.652  0.2410  0.4793 -0.4392
  140SAPE   H7X15313   1.723   2.129   9.633  0.7511  0.7269  2.1619
  140SAPE   H7Y15314   1.567   2.220   9.677  1.5464  0.8013  0.8792
  140SAPE   C3815315   1.536   2.046   9.542  0.3521 -0.2590  0.9739
  140SAPE   H8X15316   1.435   2.006   9.565  0.2750 -1.1862 -0.8159
  140SAPE   H8Y15317   1.594   1.955   9.515  1.1026  0.4057  0.2588
  140SAPE   C3915318   1.530   2.140   9.420 -0.2544  0.3127 -0.3685
  140SAPE   H9X15319   1.629   2.192   9.423  0.6638 -1.2894 -1.4666
  140SAPE   H9Y15320   1.455   2.221   9.432  0.8421  1.0868  2.1247
  140SAPE  C31015321   1.514   2.067   9.280  0.5975 -0.8201 -0.2195
  140SAPE  H10X15322   1.451   2.137   9.220  1.5632  2.6570  2.5070
  140SAPE  H10Y15323   1.440   1.989   9.308 -1.5261  0.4745 -1.8276
  140SAPE  C31115324   1.639   2.016   9.228  0.3306  0.2752  0.0978
  140SAPE  H11X15325   1.670   1.932   9.294 -0.5486  1.1307  1.6621
  140SAPE  H11Y15326   1.711   2.101   9.241  0.1489  0.1513  2.4333
  140SAPE  C31215327   1.642   1.958   9.084 -0.0402 -0.1836  0.3386
  140SAPE  H12X15328   1.597   2.033   9.016 -1.2582  0.7891  2.1264
  140SAPE  H12Y15329   1.574   1.871   9.080 -1.5731  1.0197 -1.1106
  140SAPE  C31315330   1.784   1.923   9.036 -0.7138 -0.8999 -0.6264
  140SAPE  H13X15331   1.835   1.853   9.105  0.2198 -0.1857 -0.5587
  140SAPE  H13Y15332   1.842   2.019   9.038 -2.0436 -0.0343 -1.9073
  140SAPE  C31415333   1.816   1.865   8.899 -0.6863 -0.6728 -0.6046
  140SAPE  H14X15334   1.769   1.765   8.911 -1.9305  0.0869  1.4791
  140SAPE  H14Y15335   1.925   1.849   8.887 -0.3905  0.1440  0.7482
  140SAPE  C31515336   1.747   1.938   8.789 -0.6880 -0.6119 -0.1980
  140SAPE  H15X15337   1.638   1.939   8.809 -1.0267 -3.0947 -1.5032
  140SAPE  H15Y15338   1.766   1.883   8.694  2.8912 -2.0228  1.1755
  140SAPE  C31615339   1.806   2.076   8.750  0.4554  0.3758  0.3617
  140SAPE  H16X15340   1.912   2.076   8.718 -0.1517  2.5483 -2.0040
  140SAPE  H16Y15341   1.794   2.141   8.839  1.9689  3.6234 -1.6529
  140SAPE  C31715342   1.714   2.147   8.644 -0.2911 -0.8175 -0.1616
  140SAPE  H17X15343   1.743   2.254   8.646 -0.0852 -0.8756  0.1140
  140SAPE  H17Y15344   1.608   2.132   8.674 -0.6690  0.1213 -0.9687
  140SAPE  C31815345   1.722   2.089   8.503  0.8045 -0.5012 -0.7654
  140SAPE  H18X15346   1.653   2.141   8.433 -0.1470  1.4452  1.4772
  140SAPE  H18Y15347   1.683   1.986   8.513  0.8154 -0.7245 -2.6948
  140SAPE  H18Z15348   1.827   2.085   8.467  1.7300 -1.1658  1.8273
  141SAPE     N15349   3.305   2.079  11.310 -0.4457  0.1276  0.2206
  141SAPE   HN115350   3.243   2.127  11.378  2.1473  2.6827  0.9615
  141SAPE   HN215351   3.305   1.976  11.326 -1.5015  0.0417 -0.1892
  141SAPE   HN315352   3.404   2.101  11.331 -0.6241  2.3853 -1.0452
  141SAPE   C1215353   3.255   2.109  11.172 -0.1276  0.2454 -0.2255
  141SAPE  H12A15354   3.274   2.217  11.151  1.1512 -0.4239 -2.9584
  141SAPE  H12B15355   3.147   2.084  11.160 -0.7444  2.3716  0.4423
  141SAPE   C1115356   3.331   2.038  11.063  0.2601  0.4584 -0.1862
  141SAPE  H11A15357   3.287   2.066  10.965  0.2979  0.6208 -0.1568
  141SAPE  H11B15358   3.314   1.928  11.074  1.2088  0.5373  3.7650
  141SAPE     P15359   3.595   1.974  11.049  0.2027  0.3804  0.2239
  141SAPE   O1315360   3.715   2.063  11.060  0.1945  0.1264 -0.5749
  141SAPE   O1415361   3.585   1.857  11.137  0.0734 -0.3535  0.1301
  141SAPE   O1215362   3.471   2.067  11.073  0.4934 -0.3779 -0.4938
  141SAPE   O1115363   3.588   1.926  10.895  0.2819  0.5556  0.1970
  141SAPE    C115364   3.580   2.032  10.799  0.4899  0.2463 -0.1769
  141SAPE    HA15365   3.505   2.109  10.828 -0.7450 -0.5256 -1.1835
  141SAPE    HB15366   3.677   2.085  10.799  0.9073 -0.4613 -1.9765
  141SAPE    C215367   3.553   1.981  10.651  0.0129 -0.1996 -0.0262
  141SAPE    HS15368   3.589   2.058  10.580 -1.4225  0.9855  0.4683
  141SAPE   O2115369   3.418   1.971  10.629  0.3423 -0.2293 -0.1768
  141SAPE   C2115370   3.351   2.087  10.622 -0.2525 -0.0370  0.0098
  141SAPE   O2215371   3.402   2.200  10.617 -0.2947  0.2614 -0.2835
  141SAPE   C2215372   3.202   2.067  10.620  0.7546  0.0415 -0.4034
  141SAPE   H2R15373   3.177   2.053  10.728  4.4340  2.8342  1.0134
  141SAPE   H2S15374   3.160   2.167  10.597 -0.3778  0.1031  1.6545
  141SAPE    C315375   3.621   1.847  10.631 -0.7910  0.1763  0.9125
  141SAPE    HX15376   3.561   1.781  10.698 -0.9019  1.2110  1.8542
  141SAPE    HY15377   3.727   1.843  10.661 -0.6126 -0.9894  0.2140
  141SAPE   O3115378   3.600   1.805  10.498 -0.0507  1.1050 -0.0489
  141SAPE   C3115379   3.669   1.861  10.404 -0.0994 -0.0757  0.2058
  141SAPE   O3215380   3.760   1.939  10.426  0.3355  0.6255  0.1743
  141SAPE   C3215381   3.603   1.821  10.266 -0.5791 -0.2615 -0.1319
  141SAPE   H2X15382   3.574   1.715  10.283  1.0002 -0.5223  1.1962
  141SAPE   H2Y15383   3.687   1.837  10.195  1.2525  1.6002  2.3016
  141SAPE   C2315384   3.147   1.962  10.529  0.8610  0.5571 -0.0937
  141SAPE   H3R15385   3.204   1.867  10.523 -1.3069 -0.7404 -2.5175
  141SAPE   H3S15386   3.139   1.992  10.422 -2.4388  0.9724  0.1643
  141SAPE   C2415387   3.009   1.926  10.579  0.7957 -0.0319  0.2463
  141SAPE   H4R15388   2.961   2.025  10.594  0.3598 -0.3066  0.7144
  141SAPE   H4S15389   3.024   1.887  10.682 -0.5499  0.5335  0.6723
  141SAPE   C2515390   2.937   1.820  10.500  0.5489  0.5399 -0.8273
  141SAPE   H5R15391   2.978   1.719  10.518 -0.6644  0.3337  1.2293
  141SAPE   C2615392   2.838   1.833  10.411 -0.1905 -0.3211  0.6708
  141SAPE   H6R15393   2.810   1.744  10.353 -0.5577  0.0822  0.2173
  141SAPE   C2715394   2.767   1.957  10.369  1.2474 -0.2259  0.4958
  141SAPE   H7R15395   2.801   1.986  10.268  0.1660  0.3129  0.2679
  141SAPE   H7S15396   2.795   2.038  10.440  3.7150 -1.0413  0.5501
  141SAPE   C2815397   2.618   1.943  10.372  0.4467 -0.8468  0.4139
  141SAPE   H8R15398   2.574   1.859  10.427  0.5316 -2.4446 -1.8481
  141SAPE   C2915399   2.541   2.019  10.294  0.3652 -0.5906 -0.3134
  141SAPE   H9R15400   2.433   1.999  10.299  0.4518 -1.5328 -1.8876
  141SAPE  C21015401   2.582   2.124  10.195 -0.3455 -0.4437  0.0351
  141SAPE  H10R15402   2.647   2.069  10.123  0.3577 -3.6107  2.8225
  141SAPE  H10S15403   2.646   2.204  10.238 -0.5499  0.2165 -0.8547
  141SAPE  C21115404   2.463   2.190  10.127  0.6236  0.5666 -0.3693
  141SAPE  H11R15405   2.423   2.281  10.172 -1.5097  0.6369 -2.2246
  141SAPE  C21215406   2.410   2.141  10.012  0.6612  0.0580  0.0873
  141SAPE  H12R15407   2.318   2.192   9.980 -1.0644 -0.6406  3.5292
  141SAPE  C21315408   2.458   2.018   9.930  0.5752 -0.2961 -0.1992
  141SAPE  H13R15409   2.364   1.965   9.904 -0.4969  0.5928  1.6397
  141SAPE  H13S15410   2.523   1.957   9.996  3.2843  2.1221 -0.4201
  141SAPE  C21415411   2.538   2.061   9.811 -0.4500 -0.8738  0.5948
  141SAPE  H14R15412   2.627   2.124   9.828 -0.8263  0.4944 -2.0481
  141SAPE  C21515413   2.519   2.035   9.678 -0.1856 -0.5416  0.2984
  141SAPE  H15R15414   2.589   2.079   9.606 -1.6149  1.5499  0.0965
  141SAPE  C21615415   2.412   1.950   9.611 -0.6208 -0.0490 -0.4556
  141SAPE  H16R15416   2.340   1.917   9.690 -0.8820  1.3777 -0.0788
  141SAPE  H16S15417   2.451   1.862   9.554 -2.7063 -1.2004 -0.2203
  141SAPE  C21715418   2.338   2.040   9.510 -0.0115 -0.0868 -0.1292
  141SAPE  H17R15419   2.399   2.051   9.417  0.2100 -0.1229  0.0101
  141SAPE  H17S15420   2.315   2.143   9.546 -2.8452 -0.9337  0.6986
  141SAPE  C21815421   2.205   1.973   9.477 -0.0445 -0.1687 -0.0543
  141SAPE  H18R15422   2.129   1.969   9.557  2.7074  0.9627  2.7947
  141SAPE  H18S15423   2.236   1.870   9.446 -0.7524 -0.4165  0.0455
  141SAPE  C21915424   2.147   2.041   9.355 -0.5207 -0.1900  0.0264
  141SAPE  H19R15425   2.219   2.028   9.271 -0.6603  1.3747 -0.3562
  141SAPE  H19S15426   2.147   2.150   9.375  0.8028 -0.4186  1.4841
  141SAPE  C22015427   2.011   1.984   9.318  0.8005 -0.5034 -0.0343
  141SAPE  H20R15428   2.031   1.883   9.275  2.2664 -0.3820  0.3068
  141SAPE  H20S15429   1.977   2.051   9.236  1.0001 -1.9568 -1.3586
  141SAPE  H20T15430   1.952   1.972   9.411  3.1024 -1.8684  1.3392
  141SAPE   C3315431   3.477   1.906  10.242 -0.2698  0.3166 -0.4217
  141SAPE   H3X15432   3.488   2.016  10.255 -0.1195  0.3290 -0.6493
  141SAPE   H3Y15433   3.411   1.875  10.326 -1.4744  0.6671 -1.2084
  141SAPE   C3415434   3.414   1.885  10.097 -0.0590  0.0955 -0.4810
  141SAPE   H4X15435   3.430   1.776  10.080 -1.5658 -0.2183 -0.0542
  141SAPE   H4Y15436   3.482   1.930  10.022 -0.1209  3.8000  1.4713
  141SAPE   C3515437   3.269   1.918  10.092  0.0667 -0.5808 -0.6615
  141SAPE   H5X15438   3.247   2.025  10.071  0.4972  0.0391  1.7135
  141SAPE   H5Y15439   3.221   1.900  10.190  1.1571 -1.7630 -0.3163
  141SAPE   C3615440   3.188   1.841   9.987  0.8573 -0.9702  0.3872
  141SAPE   H6X15441   3.080   1.862  10.000  0.0343 -2.7829 -2.7480
  141SAPE   H6Y15442   3.202   1.734  10.012 -2.1426 -1.4808  0.1979
  141SAPE   C3715443   3.244   1.857   9.845  0.2088 -0.0833 -0.2227
  141SAPE   H7X15444   3.334   1.793   9.838 -0.4259 -0.9397 -0.9306
  141SAPE   H7Y15445   3.269   1.961   9.815 -0.3930  0.3966  0.8854
  141SAPE   C3815446   3.142   1.819   9.743  0.0252 -0.3510  0.5922
  141SAPE   H8X15447   3.038   1.845   9.774  0.1633 -0.5432  1.2294
  141SAPE   H8Y15448   3.137   1.709   9.729  0.9591 -0.2938 -0.2231
  141SAPE   C3915449   3.180   1.875   9.604 -0.3091  0.4689 -0.2342
  141SAPE   H9X15450   3.276   1.824   9.578 -0.8321 -0.3874 -0.5132
  141SAPE   H9Y15451   3.191   1.986   9.608 -0.2968  0.4301  1.9811
  141SAPE  C31015452   3.080   1.822   9.508  0.3124 -0.8515  0.2063
  141SAPE  H10X15453   2.977   1.850   9.539  0.1291  1.3228 -2.0916
  141SAPE  H10Y15454   3.089   1.711   9.510 -0.1704 -0.9247 -1.0800
  141SAPE  C31115455   3.123   1.847   9.365  0.4193  0.3676  0.1948
  141SAPE  H11X15456   3.234   1.844   9.359  0.3308 -1.1507 -1.7684
  141SAPE  H11Y15457   3.101   1.952   9.337  3.6150  1.2584  0.5743
  141SAPE  C31215458   3.061   1.752   9.257 -0.8941 -0.0050  0.0903
  141SAPE  H12X15459   2.957   1.726   9.286 -0.4481 -2.2056 -0.0678
  141SAPE  H12Y15460   3.111   1.654   9.274  0.5123  0.2688 -2.0298
  141SAPE  C31315461   3.085   1.799   9.116 -0.3410 -0.9356 -0.3307
  141SAPE  H13X15462   3.195   1.800   9.099 -0.6134 -1.3196 -2.3051
  141SAPE  H13Y15463   3.061   1.908   9.118  0.5338 -0.6617 -2.5161
  141SAPE  C31415464   3.027   1.731   8.986 -0.1838  0.2799 -0.2151
  141SAPE  H14X15465   2.925   1.768   8.963  0.5329  1.6285 -1.3437
  141SAPE  H14Y15466   3.025   1.624   9.016  3.1616 -0.0652 -0.8288
  141SAPE  C31515467   3.116   1.766   8.863  0.8177 -0.2886 -0.2177
  141SAPE  H15X15468   3.226   1.755   8.879  0.5378 -0.7252  1.5502
  141SAPE  H15Y15469   3.087   1.872   8.848 -1.2344 -0.8751 -0.6414
  141SAPE  C31615470   3.084   1.690   8.735 -0.1681 -0.0603 -0.5763
  141SAPE  H16X15471   2.973   1.691   8.723 -0.8586 -0.7926  3.8370
  141SAPE  H16Y15472   3.115   1.586   8.758 -1.7148 -0.9112 -2.0970
  141SAPE  C31715473   3.166   1.729   8.612 -0.6320  0.1750  0.1339
  141SAPE  H17X15474   3.155   1.653   8.531  0.8601 -0.4082  0.4449
  141SAPE  H17Y15475   3.269   1.716   8.652 -1.0073 -0.3693  0.9499
  141SAPE  C31815476   3.142   1.870   8.561  0.6432  0.4209 -0.0922
  141SAPE  H18X15477   3.043   1.888   8.513  1.4444  2.4096 -1.0972
  141SAPE  H18Y15478   3.213   1.894   8.479 -0.1351  1.0910 -0.5918
  141SAPE  H18Z15479   3.148   1.953   8.634 -0.8704  0.5092 -0.0321
  142SAPE     N15480   2.677   1.289  10.685  0.3384  0.0020  0.6129
  142SAPE   HN115481   2.605   1.363  10.696 -0.7846 -0.6928 -1.4196
  142SAPE   HN215482   2.711   1.286  10.586 -1.5283 -1.3382 -0.0478
  142SAPE   HN315483   2.620   1.209  10.719  0.9382 -1.0994 -0.8508
  142SAPE   C1215484   2.789   1.317  10.779 -0.3068 -0.2147  0.1747
  142SAPE  H12A15485   2.744   1.362  10.871  0.8030 -0.6004  0.9235
  142SAPE  H12B15486   2.854   1.390  10.726 -0.1540 -0.3306  0.2033
  142SAPE   C1115487   2.860   1.187  10.819  0.2340  0.4443  0.0963
  142SAPE  H11A15488   2.955   1.194  10.877  0.2804 -1.7193  0.3602
  142SAPE  H11B15489   2.879   1.131  10.725 -0.4449 -0.0137  0.2275
  142SAPE     P15490   2.822   0.977  10.967 -0.0176  0.0795  0.0229
  142SAPE   O1315491   2.952   1.009  11.030 -0.0537  0.3814  0.3495
  142SAPE   O1415492   2.710   0.940  11.053  0.1454 -0.2708  0.6272
  142SAPE   O1215493   2.762   1.094  10.885  0.0635 -0.5233  0.0264
  142SAPE   O1115494   2.837   0.866  10.848  0.1734  0.0286 -0.2046
  142SAPE    C115495   2.959   0.840  10.777  0.1391 -0.8210  0.1336
  142SAPE    HA15496   3.047   0.905  10.800  1.2733 -2.0509 -0.5772
  142SAPE    HB15497   3.010   0.747  10.810  1.7585  0.2500  0.7937
  142SAPE    C215498   2.945   0.824  10.621 -0.1884 -0.3231 -0.9400
  142SAPE    HS15499   2.883   0.912  10.595 -1.3135 -0.9789 -0.5298
  142SAPE   O2115500   2.871   0.699  10.597 -0.2398 -0.4596  0.4482
  142SAPE   C2115501   2.783   0.696  10.492 -0.0802 -0.2057  0.5582
  142SAPE   O2215502   2.760   0.794  10.422  0.6043  0.0484  1.0402
  142SAPE   C2215503   2.714   0.550  10.480 -0.5374  0.3779 -0.9816
  142SAPE   H2R15504   2.799   0.478  10.476 -0.3789  0.5030 -0.1187
  142SAPE   H2S15505   2.654   0.551  10.574 -0.7096  0.8540 -1.0921
  142SAPE    C315506   3.082   0.825  10.549  0.9585 -0.2286  0.6658
  142SAPE    HX15507   3.141   0.735  10.577  3.0570  0.8067 -0.1950
  142SAPE    HY15508   3.150   0.912  10.565  0.9264 -0.4364  2.1274
  142SAPE   O3115509   3.062   0.815  10.407 -0.4159  0.4323  0.3014
  142SAPE   C3115510   3.014   0.925  10.352  0.6515  0.0032  0.2108
  142SAPE   O3215511   3.012   1.037  10.408  0.0429 -0.0008  0.2564
  142SAPE   C3215512   2.977   0.892  10.212 -0.1794 -0.4912  0.2792
  142SAPE   H2X15513   2.900   0.812  10.218  0.8248 -1.4182  1.2271
  142SAPE   H2Y15514   3.068   0.854  10.162 -0.8200 -1.6881  0.0024
  142SAPE   C2315515   2.626   0.530  10.355 -0.2546 -0.2153 -0.7728
  142SAPE   H3R15516   2.572   0.621  10.322  0.5386  0.2821 -0.7001
  142SAPE   H3S15517   2.547   0.459  10.388 -2.5300  1.9985 -1.1838
  142SAPE   C2415518   2.703   0.477  10.233 -0.1179  0.7410  0.3597
  142SAPE   H4R15519   2.741   0.375  10.257 -1.4740  0.3310  0.8498
  142SAPE   H4S15520   2.794   0.538  10.214  2.3621 -1.8887  2.7787
  142SAPE   C2515521   2.617   0.457  10.108 -0.1157 -0.2202 -0.4269
  142SAPE   H5R15522   2.528   0.395  10.126  1.9475 -3.1040  0.4895
  142SAPE   C2615523   2.650   0.509   9.991  1.1235  0.2538 -0.8658
  142SAPE   H6R15524   2.597   0.460   9.908 -0.0159 -0.0793  0.0231
  142SAPE   C2715525   2.756   0.602   9.949 -0.0567  0.6320 -0.3420
  142SAPE   H7R15526   2.764   0.676  10.032 -2.2410  0.1140  0.3852
  142SAPE   H7S15527   2.721   0.671   9.870 -1.8371  1.2440  0.9296
  142SAPE   C2815528   2.891   0.535   9.918  0.4295  0.1246 -0.0533
  142SAPE   H8R15529   2.954   0.501  10.001  3.1486 -1.3516 -2.5267
  142SAPE   C2915530   2.949   0.528   9.792  0.4543 -0.1176 -0.2948
  142SAPE   H9R15531   3.054   0.495   9.789  0.9767  1.1760  1.7119
  142SAPE  C21015532   2.887   0.581   9.662  0.1435  0.8801  0.3090
  142SAPE  H10R15533   2.863   0.689   9.664 -3.5136  0.2047  0.9550
  142SAPE  H10S15534   2.784   0.542   9.643  0.4550 -0.8477  1.9365
  142SAPE  C21115535   2.973   0.532   9.548 -0.0041 -0.0402  0.4775
  142SAPE  H11R15536   2.948   0.433   9.509  2.1088 -0.3724 -0.1735
  142SAPE  C21215537   3.055   0.608   9.471  0.0994  0.4489 -0.1484
  142SAPE  H12R15538   3.109   0.549   9.395 -0.5904 -0.2614 -0.1027
  142SAPE  C21315539   3.069   0.760   9.492  0.8289 -0.0969  0.0867
  142SAPE  H13R15540   3.027   0.799   9.587  2.3160 -1.6539  1.4481
  142SAPE  H13S15541   3.023   0.815   9.406  0.2668 -0.5356  0.0986
  142SAPE  C21415542   3.220   0.792   9.497 -0.0831 -0.5505 -0.1957
  142SAPE  H14R15543   3.268   0.800   9.595  2.0632 -0.5870 -1.1879
  142SAPE  C21515544   3.311   0.800   9.395 -0.6011  0.3792 -0.0622
  142SAPE  H15R15545   3.418   0.802   9.419 -0.6231 -1.0856  0.2472
  142SAPE  C21615546   3.289   0.787   9.250  0.2003  0.3863  0.3386
  142SAPE  H16R15547   3.222   0.702   9.223  0.1905  1.2356 -2.6305
  142SAPE  H16S15548   3.373   0.777   9.179  1.1147 -0.6902  1.5228
  142SAPE  C21715549   3.211   0.908   9.197 -0.3210 -0.5166  0.4684
  142SAPE  H17R15550   3.268   0.998   9.228 -0.3696  0.4654 -2.0412
  142SAPE  H17S15551   3.110   0.920   9.242 -0.0816 -0.0906  0.9066
  142SAPE  C21815552   3.204   0.913   9.038 -0.5843  0.4132 -0.2537
  142SAPE  H18R15553   3.168   0.812   9.010  1.4219 -0.3361 -0.3215
  142SAPE  H18S15554   3.302   0.918   8.985 -0.7146  2.9921 -0.3916
  142SAPE  C21915555   3.108   1.020   8.999  1.2025  0.1949 -0.1328
  142SAPE  H19R15556   3.167   1.114   8.998  1.4859  0.2278  3.6150
  142SAPE  H19S15557   3.036   1.045   9.079 -0.7361  1.4862 -2.1710
  142SAPE  C22015558   3.040   0.993   8.865 -0.2580  0.3061 -0.1228
  142SAPE  H20R15559   2.972   1.074   8.830  1.5865  1.8018 -0.3412
  142SAPE  H20S15560   2.978   0.901   8.868  2.5014 -1.6473  0.5742
  142SAPE  H20T15561   3.119   0.993   8.787 -0.0837  0.3193  0.0549
  142SAPE   C3315562   2.919   1.024  10.140  0.1057  0.2116  0.2523
  142SAPE   H3X15563   2.991   1.107  10.152  0.3565 -0.1627  1.5767
  142SAPE   H3Y15564   2.827   1.043  10.199  1.0263  2.9890  0.9304
  142SAPE   C3415565   2.903   0.984   9.994 -0.2787  0.0825  0.9465
  142SAPE   H4X15566   2.867   0.880   9.981  1.9464 -0.7846  1.3014
  142SAPE   H4Y15567   3.009   0.986   9.961  0.4390  3.2428  2.9589
  142SAPE   C3515568   2.814   1.087   9.914  0.3497  0.0981 -0.3333
  142SAPE   H5X15569   2.859   1.187   9.931 -2.2036  1.1403  0.7923
  142SAPE   H5Y15570   2.717   1.111   9.962 -1.1401  0.0526 -3.0963
  142SAPE   C3615571   2.780   1.053   9.771 -0.4652 -0.4392 -0.7902
  142SAPE   H6X15572   2.881   1.036   9.730 -0.0389  0.9258 -0.3545
  142SAPE   H6Y15573   2.741   1.146   9.724  0.6760 -0.6553 -2.2253
  142SAPE   C3715574   2.696   0.938   9.732 -0.4636 -0.2337 -0.4261
  142SAPE   H7X15575   2.591   0.950   9.766  0.4700  0.2909  2.5688
  142SAPE   H7Y15576   2.741   0.847   9.776  0.7567  0.5830  0.0562
  142SAPE   C3815577   2.687   0.921   9.576 -0.1545 -0.0365 -0.1438
  142SAPE   H8X15578   2.794   0.901   9.554 -0.3449 -0.2315 -0.9226
  142SAPE   H8Y15579   2.660   1.019   9.534 -0.0346 -0.6807 -1.7861
  142SAPE   C3915580   2.586   0.816   9.523 -0.4224 -0.1475 -0.0034
  142SAPE   H9X15581   2.486   0.851   9.554 -0.9915 -1.5715 -0.1982
  142SAPE   H9Y15582   2.590   0.716   9.570  0.2727  0.5983  1.6157
  142SAPE  C31015583   2.572   0.823   9.371 -0.7544 -0.1706 -0.4390
  142SAPE  H10X15584   2.547   0.928   9.345  0.7010  0.3130  0.0275
  142SAPE  H10Y15585   2.485   0.761   9.341 -1.2797  0.5625 -0.4453
  142SAPE  C31115586   2.703   0.776   9.303 -0.6159  0.5802 -0.3271
  142SAPE  H11X15587   2.723   0.674   9.343 -1.0706  1.0417  1.1186
  142SAPE  H11Y15588   2.783   0.844   9.340 -2.3115  1.3651  2.1049
  142SAPE  C31215589   2.699   0.795   9.148 -0.4404 -0.1498 -0.3631
  142SAPE  H12X15590   2.674   0.901   9.127 -1.0250  0.4469  2.7607
  142SAPE  H12Y15591   2.613   0.743   9.101 -0.5156 -0.0018 -0.3882
  142SAPE  C31315592   2.820   0.755   9.066  0.3586 -0.5497 -0.4874
  142SAPE  H13X15593   2.902   0.823   9.099 -1.4163  2.4318 -1.8108
  142SAPE  H13Y15594   2.804   0.785   8.960 -1.8701  2.2307  0.5105
  142SAPE  C31415595   2.875   0.616   9.083 -0.2164  1.0490  0.7533
  142SAPE  H14X15596   2.798   0.537   9.089 -0.5861  1.2751 -0.6215
  142SAPE  H14Y15597   2.930   0.606   9.179 -1.1057 -0.4182  1.1287
  142SAPE  C31515598   2.966   0.582   8.965 -0.0953 -0.4725  1.0125
  142SAPE  H15X15599   3.050   0.654   8.961  0.4313 -1.0845  0.8557
  142SAPE  H15Y15600   2.911   0.592   8.869  0.2104  3.9195  1.1032
  142SAPE  C31615601   3.025   0.439   8.967  0.1438 -0.1374 -0.9246
  142SAPE  H16X15602   3.091   0.421   9.054 -0.3963  0.7630 -0.3146
  142SAPE  H16Y15603   3.096   0.441   8.881  1.8668 -1.1500  0.4072
  142SAPE  C31715604   2.920   0.323   8.960 -0.2987  0.3017 -0.6139
  142SAPE  H17X15605   2.856   0.342   8.871  2.3638  0.2660 -2.6682
  142SAPE  H17Y15606   2.861   0.323   9.054  1.6579 -2.2484  0.7324
  142SAPE  C31815607   2.982   0.182   8.951 -0.1290 -0.0013 -0.0484
  142SAPE  H18X15608   2.904   0.119   8.903 -1.8002  2.3329 -0.5140
  142SAPE  H18Y15609   3.016   0.140   9.048 -0.8880 -2.3821 -0.7306
  142SAPE  H18Z15610   3.071   0.179   8.885 -0.6557 -1.6437 -0.7322
  143SAPE     N15611   4.586   5.598  11.154 -0.0432  0.0556 -0.1756
  143SAPE   HN115612   4.566   5.599  11.052  2.0301 -0.4015 -0.6268
  143SAPE   HN215613   4.625   5.504  11.170 -3.0617 -0.9656  2.2612
  143SAPE   HN315614   4.493   5.604  11.201 -0.3360 -0.9634 -0.5989
  143SAPE   C1215615   4.673   5.702  11.208  0.0893 -0.4108  0.3925
  143SAPE  H12A15616   4.697   5.678  11.314 -3.5998  1.1340  1.7388
  143SAPE  H12B15617   4.619   5.799  11.202  0.7900 -0.1222 -2.0555
  143SAPE   C1115618   4.801   5.717  11.126 -0.1595 -0.3488  0.0541
  143SAPE  H11A15619   4.857   5.805  11.165  0.4765  0.0313 -1.6297
  143SAPE  H11B15620   4.768   5.746  11.024 -0.8493  1.5591  0.7671
  143SAPE     P15621   5.012   5.592  11.069 -0.1262  0.0979 -0.0773
  143SAPE   O1315622   5.099   5.689  11.145 -0.3015  0.5996 -0.6199
  143SAPE   O1415623   5.060   5.448  11.070 -0.3378  0.1111 -0.0503
  143SAPE   O1215624   4.870   5.596  11.126  0.0032 -0.0317 -0.1477
  143SAPE   O1115625   4.980   5.643  10.921 -0.6766 -0.8331 -0.2631
  143SAPE    C115626   4.956   5.552  10.813  0.5744 -0.3348  0.8095
  143SAPE    HA15627   5.047   5.489  10.802  1.0226  0.0105  2.3032
  143SAPE    HB15628   4.870   5.487  10.842  0.3478 -0.7032 -0.6107
  143SAPE    C215629   4.909   5.632  10.689 -0.0993  0.5908 -0.1245
  143SAPE    HS15630   4.838   5.566  10.634  0.0137 -0.9358  1.4811
  143SAPE   O2115631   5.019   5.670  10.615  0.2583  0.0272  0.0706
  143SAPE   C2115632   5.070   5.588  10.530  0.3738 -0.2766 -0.1504
  143SAPE   O2215633   5.039   5.470  10.517 -0.2591  0.0545 -0.1734
  143SAPE   C2215634   5.157   5.673  10.437 -0.5544  0.5808  0.2641
  143SAPE   H2R15635   5.151   5.778  10.472 -1.5659  0.4902  0.3782
  143SAPE   H2S15636   5.257   5.626  10.450  0.4110  1.7947 -2.0109
  143SAPE    C315637   4.832   5.765  10.720  0.4895  0.6544 -0.6587
  143SAPE    HX15638   4.906   5.831  10.772 -0.9479  0.8911  1.1803
  143SAPE    HY15639   4.747   5.742  10.788  0.1234 -0.8609 -1.5800
  143SAPE   O3115640   4.775   5.820  10.597  0.9481  0.6215  0.5241
  143SAPE   C3115641   4.842   5.917  10.545  0.0425  0.1592 -0.1696
  143SAPE   O3215642   4.932   5.984  10.601  0.5007  0.6319  0.2911
  143SAPE   C3215643   4.804   5.933  10.392 -0.3175 -0.1978 -0.4493
  143SAPE   H2X15644   4.702   5.978  10.391  0.3783  1.6554  1.9940
  143SAPE   H2Y15645   4.813   5.839  10.333  1.8652 -0.8190  0.7732
  143SAPE   C2315646   5.114   5.664  10.289 -0.3409  0.2211  0.1109
  143SAPE   H3R15647   5.004   5.667  10.277 -0.4455 -0.3829  0.8500
  143SAPE   H3S15648   5.138   5.565  10.245 -0.9632 -0.3103  0.9458
  143SAPE   C2415649   5.174   5.770  10.187 -0.2043 -0.2750 -0.6418
  143SAPE   H4R15650   5.153   5.876  10.211  0.7463 -0.3244  0.5035
  143SAPE   H4S15651   5.119   5.747  10.093  0.2642  0.8724 -1.2187
  143SAPE   C2515652   5.323   5.751  10.176  0.4797 -0.6358 -0.8925
  143SAPE   H5R15653   5.388   5.714  10.258  0.3768  1.7357  0.3287
  143SAPE   C2615654   5.385   5.764  10.064  0.8418  0.3265  0.3726
  143SAPE   H6R15655   5.495   5.758  10.053  0.5636 -2.1694 -1.9928
  143SAPE   C2715656   5.316   5.799   9.928  0.6426  0.5278  0.5674
  143SAPE   H7R15657   5.392   5.864   9.880  1.4425  0.4383  1.6706
  143SAPE   H7S15658   5.223   5.858   9.944 -0.2748 -0.3934 -1.1620
  143SAPE   C2815659   5.272   5.678   9.853  0.0107 -0.3051  0.9662
  143SAPE   H8R15660   5.234   5.591   9.908  2.8295 -1.5831  1.0835
  143SAPE   C2915661   5.286   5.675   9.717  0.0235 -0.5563 -1.0126
  143SAPE   H9R15662   5.263   5.580   9.668 -3.1116 -0.6319  0.3555
  143SAPE  C21015663   5.335   5.794   9.635  0.4001 -0.1739  0.0977
  143SAPE  H10R15664   5.430   5.828   9.682  0.7022  1.7264 -1.7587
  143SAPE  H10S15665   5.258   5.874   9.636  2.7719  2.2837 -1.7057
  143SAPE  C21115666   5.362   5.761   9.497 -0.4398  0.3806  0.3164
  143SAPE  H11R15667   5.468   5.740   9.479 -0.8358 -1.2260 -0.2491
  143SAPE  C21215668   5.273   5.744   9.392  0.0388  0.0356 -1.0584
  143SAPE  H12R15669   5.314   5.721   9.292 -0.3022  1.3163 -1.5048
  143SAPE  C21315670   5.123   5.751   9.397 -0.0723 -0.1978  0.0457
  143SAPE  H13R15671   5.104   5.834   9.325  0.1813 -0.8065 -0.7313
  143SAPE  H13S15672   5.091   5.779   9.500  1.5132 -1.6349  0.9802
  143SAPE  C21415673   5.060   5.616   9.362 -0.4411  0.5232  0.5982
  143SAPE  H14R15674   5.067   5.539   9.440  0.7157 -0.2957 -0.2841
  143SAPE  C21515675   5.011   5.594   9.239 -0.6162  0.0216  0.0412
  143SAPE  H15R15676   4.959   5.500   9.217  0.6812 -0.1150 -2.9828
  143SAPE  C21615677   5.008   5.687   9.121 -0.0328 -0.0008  0.2132
  143SAPE  H16R15678   5.105   5.738   9.109  1.4893 -2.5002  1.1166
  143SAPE  H16S15679   4.939   5.771   9.145 -1.7713  0.2163 -4.5133
  143SAPE  C21715680   4.966   5.623   8.984 -0.5648 -0.0235  0.3903
  143SAPE  H17R15681   4.959   5.704   8.908  0.4030 -0.2776  0.0063
  143SAPE  H17S15682   4.868   5.572   8.989 -0.4014 -0.7490 -2.2758
  143SAPE  C21815683   5.070   5.515   8.935 -0.0420 -0.1284  0.3390
  143SAPE  H18R15684   5.118   5.470   9.024  0.3131  2.7212  1.6996
  143SAPE  H18S15685   5.153   5.559   8.875 -0.2088  1.3013  1.1201
  143SAPE  C21915686   5.006   5.416   8.841 -0.1863  0.5248  0.3735
  143SAPE  H19R15687   4.943   5.465   8.764  0.2115  0.3603 -0.0562
  143SAPE  H19S15688   4.940   5.348   8.900  2.0513 -1.0981  1.1517
  143SAPE  C22015689   5.101   5.322   8.762 -0.2942  0.1654 -0.4792
  143SAPE  H20R15690   5.044   5.253   8.697 -0.7020  0.0424  0.0076
  143SAPE  H20S15691   5.153   5.256   8.835  2.9079  2.0043 -0.8756
  143SAPE  H20T15692   5.173   5.387   8.708 -1.6934  2.8561  0.6905
  143SAPE   C3315693   4.895   6.035  10.323 -0.6873 -0.1872 -0.0362
  143SAPE   H3X15694   5.001   6.005  10.334 -0.1472  1.4309 -0.5221
  143SAPE   H3Y15695   4.878   6.135  10.370 -1.0262 -0.2162 -0.0949
  143SAPE   C3415696   4.875   6.035  10.170 -0.3685 -0.0805  0.2056
  143SAPE   H4X15697   4.787   6.098  10.147 -0.4524 -0.4642 -0.5639
  143SAPE   H4Y15698   4.854   5.933  10.132  1.9942 -0.4062 -0.3810
  143SAPE   C3515699   4.996   6.091  10.092  0.5382  0.8396 -0.6989
  143SAPE   H5X15700   5.063   6.004  10.076 -2.2386 -1.3265 -1.4058
  143SAPE   H5Y15701   5.052   6.173  10.142  0.4844  1.1416 -1.1248
  143SAPE   C3615702   4.958   6.123   9.956 -0.0661  0.4313  0.6612
  143SAPE   H6X15703   4.870   6.190   9.960 -0.6663  0.0525 -3.0665
  143SAPE   H6Y15704   4.938   6.027   9.902  1.3044  0.7517 -0.4605
  143SAPE   C3715705   5.071   6.211   9.893 -0.9927 -0.3439 -0.2441
  143SAPE   H7X15706   5.164   6.150   9.886 -0.2384  0.5690  1.2836
  143SAPE   H7Y15707   5.088   6.289   9.970  0.1985 -0.5512 -0.2710
  143SAPE   C3815708   5.030   6.279   9.759 -0.3098  0.4200  0.2626
  143SAPE   H8X15709   5.118   6.342   9.732  0.1344 -0.4249 -0.3068
  143SAPE   H8Y15710   4.936   6.335   9.777  0.2763  1.7114 -0.5264
  143SAPE   C3915711   4.999   6.176   9.650  0.0231 -0.7529 -0.2841
  143SAPE   H9X15712   4.930   6.102   9.696 -1.7025  0.4642 -0.7874
  143SAPE   H9Y15713   5.094   6.126   9.622  0.9532  1.2882 -0.9014
  143SAPE  C31015714   4.935   6.235   9.526 -0.3477 -0.0894 -0.1906
  143SAPE  H10X15715   4.992   6.324   9.490  2.2886 -0.9166  1.6570
  143SAPE  H10Y15716   4.828   6.259   9.543 -0.7837 -1.0631 -1.4649
  143SAPE  C31115717   4.932   6.127   9.419  0.0522  0.5669  0.1828
  143SAPE  H11X15718   4.869   6.045   9.460  0.3215 -0.0668 -0.6607
  143SAPE  H11Y15719   5.039   6.101   9.410 -0.2164 -0.3736 -0.5047
  143SAPE  C31215720   4.885   6.182   9.279 -0.1933  0.0170  0.3320
  143SAPE  H12X15721   4.960   6.254   9.240 -2.1945  1.9248 -0.1568
  143SAPE  H12Y15722   4.794   6.245   9.286 -0.4015 -0.2951  0.4580
  143SAPE  C31315723   4.864   6.066   9.181  0.5166  0.1069  0.5950
  143SAPE  H13X15724   4.786   6.006   9.231 -1.1872  0.9842 -0.8744
  143SAPE  H13Y15725   4.965   6.020   9.168 -0.1094 -0.8880 -1.0908
  143SAPE  C31415726   4.819   6.108   9.045 -0.6964  0.0424  0.0454
  143SAPE  H14X15727   4.900   6.172   9.005  1.0410 -0.4129  2.5966
  143SAPE  H14Y15728   4.726   6.166   9.065 -1.1834  0.5801 -3.1987
  143SAPE  C31515729   4.794   5.991   8.947 -0.8435  0.4048  0.2996
  143SAPE  H15X15730   4.739   5.924   9.016 -1.8290  0.3910 -0.4726
  143SAPE  H15Y15731   4.888   5.945   8.910 -0.8359 -0.2317  1.0782
  143SAPE  C31615732   4.706   6.028   8.829 -0.0498 -0.8594 -0.4414
  143SAPE  H16X15733   4.601   6.046   8.859  0.9594  2.5604  1.5656
  143SAPE  H16Y15734   4.718   5.939   8.763  0.4562  0.7858 -2.6866
  143SAPE  C31715735   4.756   6.157   8.760 -0.4635  0.3550  0.1815
  143SAPE  H17X15736   4.862   6.148   8.731 -0.2221 -4.4218  1.5659
  143SAPE  H17Y15737   4.740   6.235   8.837  0.4823  0.5991  0.1347
  143SAPE  C31815738   4.687   6.198   8.632  0.5596  0.7700  1.0210
  143SAPE  H18X15739   4.690   6.107   8.568 -0.3949  0.6151  1.1820
  143SAPE  H18Y15740   4.743   6.281   8.584  2.0785 -0.9017 -0.2323
  143SAPE  H18Z15741   4.579   6.218   8.650 -0.1883  0.9496 -2.7763
  144SAPE     N15742   2.385   6.136  10.811 -0.6042 -0.4497  0.2502
  144SAPE   HN115743   2.440   6.201  10.752  0.2054  0.4085  1.8612
  144SAPE   HN215744   2.349   6.188  10.894 -0.1896  0.2614 -0.0068
  144SAPE   HN315745   2.439   6.057  10.851  1.2313  1.6854  2.3121
  144SAPE   C1215746   2.263   6.088  10.736  0.1350 -0.4658  0.2424
  144SAPE  H12A15747   2.299   6.026  10.651  1.8513 -0.5598  0.9981
  144SAPE  H12B15748   2.217   6.178  10.691  0.7964  0.8046  1.9572
  144SAPE   C1115749   2.169   6.008  10.820 -0.6698  0.0418 -0.5082
  144SAPE  H11A15750   2.229   5.931  10.872  0.6372  0.1545 -1.7929
  144SAPE  H11B15751   2.087   5.964  10.760 -0.4513 -0.0893 -0.7123
  144SAPE     P15752   1.982   6.170  10.917 -0.3097  0.1150  0.0354
  144SAPE   O1315753   1.877   6.095  10.992  0.0644 -0.2850  0.4709
  144SAPE   O1415754   2.009   6.311  10.961 -0.5517 -0.6832 -0.7569
  144SAPE   O1215755   2.112   6.093  10.918  0.2147  0.1482  0.0899
  144SAPE   O1115756   1.933   6.167  10.763  0.2773 -0.1847 -0.0248
  144SAPE    C115757   1.838   6.078  10.709  0.0160 -0.4545  0.0029
  144SAPE    HA15758   1.805   5.989  10.767  0.7658  0.2013  1.4687
  144SAPE    HB15759   1.750   6.142  10.690 -1.0378 -1.4399  1.3790
  144SAPE    C215760   1.879   6.029  10.567  0.3256  0.5374  0.7631
  144SAPE    HS15761   1.964   5.958  10.573  0.4165  0.3862 -1.4637
  144SAPE   O2115762   1.898   6.137  10.473  0.3935  0.4724  0.0198
  144SAPE   C2115763   2.013   6.136  10.408  0.4777  0.1276 -0.0062
  144SAPE   O2215764   2.104   6.054  10.416 -0.0859 -0.1091 -0.3630
  144SAPE   C2215765   2.010   6.260  10.318  0.0016  0.5206 -0.5292
  144SAPE   H2R15766   1.911   6.286  10.273  0.6043  1.6229 -1.2701
  144SAPE   H2S15767   2.043   6.341  10.386 -0.9599  1.6052 -1.3049
  144SAPE    C315768   1.768   5.932  10.501  0.2529 -0.1060  0.4581
  144SAPE    HX15769   1.681   5.999  10.483 -1.4487 -1.5255  2.9075
  144SAPE    HY15770   1.736   5.860  10.579  0.6792 -1.0765 -0.2426
  144SAPE   O3115771   1.791   5.864  10.379  0.9243 -0.1215 -0.7579
  144SAPE   C3115772   1.870   5.753  10.381 -0.0145  0.4828 -0.1715
  144SAPE   O3215773   1.911   5.707  10.488 -0.1835  0.2770  0.6157
  144SAPE   C3215774   1.893   5.701  10.239 -0.2688  1.0121  0.2334
  144SAPE   H2X15775   1.795   5.697  10.187  0.5561  0.5424 -1.3489
  144SAPE   H2Y15776   1.925   5.596  10.256 -0.3001  1.0085  0.2685
  144SAPE   C2315777   2.129   6.261  10.221  0.7291  0.2161 -0.2416
  144SAPE   H3R15778   2.110   6.194  10.134 -3.6033 -1.4671  1.6740
  144SAPE   H3S15779   2.218   6.212  10.264  1.9721  1.2206 -1.5826
  144SAPE   C2415780   2.172   6.400  10.178 -0.0418 -0.8496  0.3375
  144SAPE   H4R15781   2.256   6.365  10.114  0.0553 -5.0050  2.3561
  144SAPE   H4S15782   2.203   6.465  10.262 -3.5015  2.3371 -0.6224
  144SAPE   C2515783   2.053   6.464  10.110  0.4104  1.0110  0.2222
  144SAPE   H5R15784   1.974   6.494  10.179 -0.9030 -2.5735  0.4735
  144SAPE   C2615785   2.037   6.478   9.977  0.2214 -0.0679  0.7520
  144SAPE   H6R15786   1.943   6.518   9.935 -0.6879  0.0318  2.7742
  144SAPE   C2715787   2.138   6.435   9.870 -0.5564 -0.0860 -0.9369
  144SAPE   H7R15788   2.230   6.387   9.909 -1.2696 -2.0185 -1.5497
  144SAPE   H7S15789   2.167   6.529   9.819  1.6966  0.1968  0.7296
  144SAPE   C2815790   2.069   6.334   9.785  0.4909  0.0327  0.5179
  144SAPE   H8R15791   2.040   6.241   9.837 -1.3971 -0.1440 -0.7157
  144SAPE   C2915792   2.042   6.347   9.653  0.0479 -0.3260  0.5452
  144SAPE   H9R15793   1.990   6.266   9.599 -0.4475  1.7665 -2.3436
  144SAPE  C21015794   2.087   6.457   9.559 -0.2302 -0.5320 -0.5646
  144SAPE  H10R15795   2.179   6.504   9.601 -0.8785  0.0126  0.2775
  144SAPE  H10S15796   2.006   6.532   9.545 -0.0083  0.6876  3.5501
  144SAPE  C21115797   2.133   6.410   9.424  1.0168  0.2139 -0.6955
  144SAPE  H11R15798   2.240   6.384   9.427  0.8186 -0.6508 -0.8288
  144SAPE  C21215799   2.057   6.383   9.313  0.2661 -0.9468 -0.7866
  144SAPE  H12R15800   2.100   6.355   9.215 -0.3682 -1.5336 -0.9100
  144SAPE  C21315801   1.911   6.406   9.304  0.4436  0.0201 -0.1385
  144SAPE  H13R15802   1.873   6.436   9.404  1.7798  0.7517  0.1705
  144SAPE  H13S15803   1.867   6.306   9.281 -0.9864  0.1798  1.6773
  144SAPE  C21415804   1.858   6.510   9.204 -0.1703 -0.2176 -0.1724
  144SAPE  H14R15805   1.802   6.597   9.241  1.8260  1.8091 -1.6693
  144SAPE  C21515806   1.866   6.515   9.068 -0.1177  0.2600  0.0947
  144SAPE  H15R15807   1.831   6.606   9.018  1.0933  0.0444 -1.1657
  144SAPE  C21615808   1.928   6.404   8.989 -0.0424 -0.1237  0.0505
  144SAPE  H16R15809   1.941   6.313   9.051 -1.4343  0.8301  1.8092
  144SAPE  H16S15810   2.032   6.429   8.959  0.0877 -0.8886 -0.1622
  144SAPE  C21715811   1.840   6.366   8.873  1.2722 -0.3596  0.7278
  144SAPE  H17R15812   1.737   6.357   8.913  0.1310  1.0934 -1.6386
  144SAPE  H17S15813   1.868   6.261   8.849  1.0005 -0.5682  1.3010
  144SAPE  C21815814   1.845   6.458   8.748  0.2011 -0.0108  1.3243
  144SAPE  H18R15815   1.943   6.454   8.697 -0.7262 -2.3542 -0.4618
  144SAPE  H18S15816   1.832   6.561   8.786 -0.7178  0.0001  1.0255
  144SAPE  C21915817   1.736   6.419   8.651  0.6983 -1.2477  0.2011
  144SAPE  H19R15818   1.633   6.433   8.690  1.3208  1.4609  1.0594
  144SAPE  H19S15819   1.751   6.312   8.623 -2.9957 -1.6673 -0.6311
  144SAPE  C22015820   1.747   6.499   8.517 -0.1649 -0.7881 -0.4350
  144SAPE  H20R15821   1.681   6.445   8.445  0.4981  0.0583 -1.7273
  144SAPE  H20S15822   1.846   6.492   8.467  0.4647 -0.5392  0.7500
  144SAPE  H20T15823   1.719   6.605   8.531  2.4836 -0.1405  0.6248
  144SAPE   C3315824   1.985   5.786  10.151  0.7715 -0.7217 -0.1710
  144SAPE   H3X15825   2.021   5.733  10.060  1.3415 -1.0723  0.2556
  144SAPE   H3Y15826   2.074   5.804  10.214 -0.4249  0.4968  1.2376
  144SAPE   C3415827   1.903   5.906  10.096 -0.2442  0.0054  0.5834
  144SAPE   H4X15828   1.888   5.988  10.170 -0.0709 -0.3973  1.0652
  144SAPE   H4Y15829   1.800   5.870  10.074 -1.5406  2.7368  1.6035
  144SAPE   C3515830   1.959   5.977   9.968  0.1200  0.4053 -0.2776
  144SAPE   H5X15831   2.065   5.943   9.967  0.5293  1.5878  0.9108
  144SAPE   H5Y15832   1.958   6.088   9.965 -0.4512  0.4779  1.3783
  144SAPE   C3615833   1.900   5.928   9.839  0.2056  0.8584  0.3611
  144SAPE   H6X15834   1.797   5.970   9.838 -0.4356 -0.6279  1.0136
  144SAPE   H6Y15835   1.898   5.817   9.836 -1.0074  0.8788 -2.8944
  144SAPE   C3715836   1.969   5.974   9.710  0.8139 -0.0088 -0.8282
  144SAPE   H7X15837   2.051   5.898   9.705 -0.7570 -1.9467  1.0346
  144SAPE   H7Y15838   2.010   6.074   9.733  0.7466 -0.3414  0.8330
  144SAPE   C3815839   1.880   5.963   9.581 -0.1011 -0.1071 -0.0355
  144SAPE   H8X15840   1.787   6.022   9.592  0.1740  0.1040  1.3690
  144SAPE   H8Y15841   1.842   5.858   9.585  1.4276 -0.6628  0.8751
  144SAPE   C3915842   1.943   5.996   9.445  0.1472  0.4023 -0.6218
  144SAPE   H9X15843   2.042   5.945   9.445  1.1764  2.1737  2.2093
  144SAPE   H9Y15844   1.961   6.105   9.436 -0.9486  0.6054 -0.5016
  144SAPE  C31015845   1.862   5.947   9.320  0.9606  0.3263  0.0695
  144SAPE  H10X15846   1.770   6.010   9.320  1.1528  0.6203  1.0193
  144SAPE  H10Y15847   1.842   5.838   9.329  0.2363  0.5664  1.8337
  144SAPE  C31115848   1.948   5.976   9.200 -0.5925  0.3923  0.1364
  144SAPE  H11X15849   2.052   5.937   9.209 -0.5231  0.7095  0.8040
  144SAPE  H11Y15850   1.956   6.086   9.185 -0.2840  0.3372 -0.1185
  144SAPE  C31215851   1.892   5.918   9.068  0.1909 -0.2581  0.5418
  144SAPE  H12X15852   1.791   5.960   9.049 -0.2986 -1.5538  0.1702
  144SAPE  H12Y15853   1.884   5.807   9.063  2.5540 -0.4450 -0.9722
  144SAPE  C31315854   1.986   5.963   8.947 -0.1025  0.0630 -0.5573
  144SAPE  H13X15855   2.085   5.913   8.956 -1.2250 -3.0554 -3.2714
  144SAPE  H13Y15856   2.007   6.072   8.952  1.2246 -0.2274  3.6903
  144SAPE  C31415857   1.927   5.919   8.817 -0.6581 -0.8698 -0.7262
  144SAPE  H14X15858   1.819   5.947   8.815 -1.0456 -2.1832  0.4639
  144SAPE  H14Y15859   1.940   5.808   8.823 -0.8734 -0.9943 -2.1602
  144SAPE  C31515860   1.994   5.969   8.695 -0.2751  0.2694 -0.2184
  144SAPE  H15X15861   2.102   5.944   8.700 -0.3506  0.2474  1.9150
  144SAPE  H15Y15862   1.987   6.079   8.706 -0.9569  0.2180 -0.0840
  144SAPE  C31615863   1.940   5.913   8.568  0.3158 -0.2963  0.4493
  144SAPE  H16X15864   1.911   5.806   8.579 -3.3931  0.5089 -0.0274
  144SAPE  H16Y15865   2.010   5.925   8.483  0.2481 -0.3116  0.3903
  144SAPE  C31715866   1.804   5.980   8.525  1.2339 -0.6756  0.4785
  144SAPE  H17X15867   1.821   6.089   8.514 -1.0592 -0.1227  1.7646
  144SAPE  H17Y15868   1.724   5.972   8.601 -0.7346 -1.2991 -1.5583
  144SAPE  C31815869   1.756   5.928   8.389 -0.6703  0.2472  0.4664
  144SAPE  H18X15870   1.774   5.820   8.372 -1.5864  0.4339 -2.2197
  144SAPE  H18Y15871   1.806   5.974   8.302  0.3898  0.3940  1.1421
  144SAPE  H18Z15872   1.647   5.942   8.373 -0.4435  2.0871  0.3192
  145SAPE     N15873   2.980   1.171  11.241  0.6531  0.2333 -0.4690
  145SAPE   HN115874   2.922   1.176  11.327  1.3074 -1.1946  0.0880
  145SAPE   HN215875   2.974   1.251  11.174 -0.5326  0.0301 -0.6229
  145SAPE   HN315876   2.965   1.085  11.185 -2.8147 -0.1666  0.8446
  145SAPE   C1215877   3.116   1.168  11.298  0.4956 -0.0235  0.3728
  145SAPE  H12A15878   3.192   1.176  11.218 -0.3544 -0.8500 -0.5359
  145SAPE  H12B15879   3.140   1.079  11.359  1.2033 -0.4161 -0.4667
  145SAPE   C1115880   3.123   1.294  11.389 -0.0481 -0.1771 -0.0240
  145SAPE  H11A15881   3.219   1.287  11.446  0.2436 -0.7148 -0.5653
  145SAPE  H11B15882   3.043   1.283  11.464  0.2627 -3.7426 -0.0502
  145SAPE     P15883   3.220   1.501  11.260 -0.1841  0.3692 -0.2411
  145SAPE   O1315884   3.231   1.628  11.335  0.5186  0.0737 -0.3068
  145SAPE   O1415885   3.335   1.407  11.252  0.2703  0.6780  0.3094
  145SAPE   O1215886   3.100   1.419  11.325 -0.2978  0.1326  0.0933
  145SAPE   O1115887   3.156   1.521  11.112  0.1095  0.5312  0.3659
  145SAPE    C115888   3.185   1.633  11.031  0.0799  0.5445  0.4089
  145SAPE    HA15889   3.088   1.666  10.988 -1.0445 -0.8181  1.7505
  145SAPE    HB15890   3.224   1.716  11.093  0.6532 -0.0860  0.9196
  145SAPE    C215891   3.283   1.603  10.911  0.3527 -0.4637  0.5394
  145SAPE    HS15892   3.247   1.517  10.852  0.0587  0.2160 -0.3027
  145SAPE   O2115893   3.414   1.587  10.982 -0.3881  0.4467 -0.4473
  145SAPE   C2115894   3.493   1.509  10.907 -0.3557  0.3402  0.1039
  145SAPE   O2215895   3.463   1.449  10.801  0.4659  0.2764 -0.6316
  145SAPE   C2215896   3.622   1.497  10.987 -0.4200  0.4372  0.3421
  145SAPE   H2R15897   3.629   1.584  11.057 -2.3959  0.5843  0.4220
  145SAPE   H2S15898   3.622   1.405  11.049  1.7339 -1.6213 -2.4564
  145SAPE    C315899   3.290   1.724  10.809  0.5255 -0.8687  0.0613
  145SAPE    HX15900   3.333   1.809  10.867  0.6156 -1.6759  1.2160
  145SAPE    HY15901   3.187   1.762  10.793 -0.7547 -2.9461  2.5483
  145SAPE   O3115902   3.359   1.683  10.686  0.3348 -0.2572 -0.0736
  145SAPE   C3115903   3.290   1.609  10.604 -0.3868  0.0716  0.1364
  145SAPE   O3215904   3.177   1.568  10.621 -0.0386 -0.0929 -0.4542
  145SAPE   C3215905   3.369   1.588  10.475  0.8269 -0.6728  0.0174
  145SAPE   H2X15906   3.455   1.523  10.503  2.3756  1.2552  0.0223
  145SAPE   H2Y15907   3.385   1.690  10.434  1.4766 -0.4809  0.7149
  145SAPE   C2315908   3.746   1.483  10.891  0.4685 -0.4305  0.0888
  145SAPE   H3R15909   3.718   1.416  10.807 -3.0056  0.7516  0.1264
  145SAPE   H3S15910   3.823   1.444  10.961  0.5898  2.3665  1.6901
  145SAPE   C2415911   3.786   1.618  10.843  0.4130 -0.0787 -0.1342
  145SAPE   H4R15912   3.790   1.691  10.926  1.1450  0.1097 -0.3244
  145SAPE   H4S15913   3.697   1.646  10.783 -0.1468 -0.3339  0.5639
  145SAPE   C2515914   3.916   1.626  10.766  0.4295  0.3928  0.1231
  145SAPE   H5R15915   3.992   1.689  10.814 -0.3167  1.4827 -0.0711
  145SAPE   C2615916   3.946   1.570  10.645 -0.4976  0.1668  0.8608
  145SAPE   H6R15917   4.049   1.580  10.607 -0.8191 -1.6787 -0.6030
  145SAPE   C2715918   3.851   1.486  10.559 -0.2581 -0.3596  1.1661
  145SAPE   H7R15919   3.750   1.533  10.553  1.1769  3.1759  2.1424
  145SAPE   H7S15920   3.837   1.381  10.591  0.4594 -0.6657  0.4926
  145SAPE   C2815921   3.914   1.479  10.417 -0.0992 -0.4336  0.4561
  145SAPE   H8R15922   3.999   1.544  10.393 -0.3436 -0.7245 -1.3114
  145SAPE   C2915923   3.865   1.413  10.315 -0.5726 -0.0184  0.0739
  145SAPE   H9R15924   3.923   1.408  10.222  0.0970  1.5292  0.3871
  145SAPE  C21015925   3.741   1.331  10.313  0.0731  0.5915 -0.2360
  145SAPE  H10R15926   3.663   1.370  10.244 -0.6636  2.4445  1.5789
  145SAPE  H10S15927   3.676   1.352  10.400  0.0559  2.2362 -0.6114
  145SAPE  C21115928   3.759   1.177  10.304  0.7476 -0.1634  1.1341
  145SAPE  H11R15929   3.858   1.129  10.312  0.0531 -2.1342 -1.0413
  145SAPE  C21215930   3.656   1.092  10.293 -0.8422  0.1560  0.1044
  145SAPE  H12R15931   3.693   0.993  10.260  0.7004  1.3779 -2.1182
  145SAPE  C21315932   3.508   1.124  10.285 -0.3292 -0.8433 -0.0438
  145SAPE  H13R15933   3.480   1.183  10.196 -1.7630 -0.9360  0.3222
  145SAPE  H13S15934   3.481   1.180  10.377 -0.2977  0.6952 -0.9374
  145SAPE  C21415935   3.421   1.001  10.288 -0.7055  0.4824  0.1497
  145SAPE  H14R15936   3.437   0.945  10.381  0.4854 -2.1178 -1.5255
  145SAPE  C21515937   3.328   0.959  10.204 -0.6116 -0.0145 -0.0992
  145SAPE  H15R15938   3.270   0.869  10.230  0.7637 -0.2384  2.5993
  145SAPE  C21615939   3.308   1.024  10.064  0.6252 -0.1421  0.3012
  145SAPE  H16R15940   3.256   1.122  10.069 -0.0122 -0.4643  0.1508
  145SAPE  H16S15941   3.231   0.964  10.011 -1.7290  1.5207  1.6636
  145SAPE  C21715942   3.425   1.018   9.963 -0.2407  0.1937 -0.6074
  145SAPE  H17R15943   3.461   0.913   9.952  0.8705  0.6922 -2.1245
  145SAPE  H17S15944   3.507   1.075  10.012 -0.8298 -0.5946  1.3810
  145SAPE  C21815945   3.394   1.076   9.826  0.2703  0.3267 -0.2141
  145SAPE  H18R15946   3.356   1.180   9.835 -1.0341 -0.1865  0.6029
  145SAPE  H18S15947   3.305   1.027   9.780 -0.5858  0.3815  1.2993
  145SAPE  C21915948   3.521   1.064   9.730 -0.6485  0.5041  0.1456
  145SAPE  H19R15949   3.553   0.958   9.729 -1.9471  0.0915 -0.0627
  145SAPE  H19S15950   3.606   1.121   9.771  0.1126 -0.9750  0.6997
  145SAPE  C22015951   3.493   1.116   9.590  0.3798 -0.1921 -0.2672
  145SAPE  H20R15952   3.413   1.060   9.535 -1.9198  3.8132 -1.4622
  145SAPE  H20S15953   3.586   1.112   9.529  1.8641  2.8025  1.5619
  145SAPE  H20T15954   3.445   1.217   9.590 -1.8055 -1.1221 -2.3401
  145SAPE   C3315955   3.277   1.516  10.374 -0.2448 -0.1401 -0.2132
  145SAPE   H3X15956   3.185   1.579  10.363  0.6328  1.3231  0.5230
  145SAPE   H3Y15957   3.244   1.424  10.426  1.2175  0.1402  1.2844
  145SAPE   C3415958   3.334   1.496  10.231  0.4384  0.5999 -0.0006
  145SAPE   H4X15959   3.432   1.446  10.245  0.0880 -0.8355 -2.1890
  145SAPE   H4Y15960   3.342   1.591  10.174  0.3884  1.1429  0.8876
  145SAPE   C3515961   3.235   1.407  10.155  0.1594 -0.0754  0.3030
  145SAPE   H5X15962   3.130   1.444  10.156  0.3034  0.5216 -1.6104
  145SAPE   H5Y15963   3.235   1.306  10.202 -0.2630  0.4959  1.5767
  145SAPE   C3615964   3.254   1.410  10.003  1.2639 -0.4343 -0.2007
  145SAPE   H6X15965   3.340   1.347   9.971  1.7881 -1.8571  3.4874
  145SAPE   H6Y15966   3.269   1.513   9.965 -0.4211 -0.7530 -1.8770
  145SAPE   C3715967   3.126   1.363   9.921  0.1771 -0.3726 -0.1999
  145SAPE   H7X15968   3.038   1.421   9.956  1.1256  0.9610  0.0851
  145SAPE   H7Y15969   3.119   1.259   9.958  3.3929 -0.7039 -0.2739
  145SAPE   C3815970   3.142   1.370   9.764  0.0618  0.3922  1.0858
  145SAPE   H8X15971   3.246   1.354   9.728 -1.2957 -4.5991 -1.6937
  145SAPE   H8Y15972   3.100   1.469   9.738 -1.9331 -0.5236  0.6897
  145SAPE   C3915973   3.059   1.256   9.699 -0.1624  0.2720 -0.1192
  145SAPE   H9X15974   2.956   1.266   9.740 -0.3599 -1.1830 -0.2165
  145SAPE   H9Y15975   3.103   1.163   9.741 -1.2750 -0.5427 -0.6969
  145SAPE  C31015976   3.053   1.256   9.540 -0.3757 -0.3424 -1.2750
  145SAPE  H10X15977   3.140   1.199   9.502 -1.8431 -2.5461 -1.4869
  145SAPE  H10Y15978   3.069   1.360   9.503  1.4201 -0.0429  0.2125
  145SAPE  C31115979   2.922   1.187   9.501 -0.8009  0.5424  0.1444
  145SAPE  H11X15980   2.832   1.226   9.553 -1.8524 -0.6020 -0.7431
  145SAPE  H11Y15981   2.934   1.078   9.518  1.2933  0.1537 -2.9501
  145SAPE  C31215982   2.897   1.220   9.352  0.1810 -0.0076  0.0634
  145SAPE  H12X15983   2.980   1.184   9.288 -1.0330 -0.7998 -1.1281
  145SAPE  H12Y15984   2.897   1.331   9.356 -1.2065 -0.0115  1.1989
  145SAPE  C31315985   2.758   1.171   9.295 -0.2292  0.2389 -0.3734
  145SAPE  H13X15986   2.673   1.212   9.354  0.3962  0.4148  0.4260
  145SAPE  H13Y15987   2.756   1.060   9.302 -2.0248  0.2554 -0.1738
  145SAPE  C31415988   2.730   1.217   9.144 -0.4869  0.1130  0.3734
  145SAPE  H14X15989   2.808   1.170   9.082 -3.1137 -2.8995 -0.9259
  145SAPE  H14Y15990   2.744   1.326   9.130 -3.4025  0.4701 -0.5499
  145SAPE  C31515991   2.585   1.183   9.097 -0.3037  0.0039 -0.1026
  145SAPE  H15X15992   2.514   1.254   9.146 -1.2785 -1.9747  1.4700
  145SAPE  H15Y15993   2.558   1.087   9.145 -1.1024 -0.3860 -1.2722
  145SAPE  C31615994   2.563   1.178   8.945 -0.2948  0.4643  0.9923
  145SAPE  H16X15995   2.615   1.259   8.889 -2.6561 -0.5997 -3.1601
  145SAPE  H16Y15996   2.455   1.171   8.921 -0.0968 -0.5564  0.3180
  145SAPE  C31715997   2.638   1.055   8.875  0.1484 -0.8657  0.0920
  145SAPE  H17X15998   2.615   0.955   8.919 -3.6866 -0.5051 -0.7507
  145SAPE  H17Y15999   2.747   1.059   8.895  0.3274 -0.1563 -0.9725
  145SAPE  C31816000   2.604   1.046   8.731 -0.5656 -1.2176  1.1172
  145SAPE  H18X16001   2.652   1.126   8.671 -1.7322 -2.0103 -0.9997
  145SAPE  H18Y16002   2.495   1.068   8.720 -0.2287  1.1874  2.0656
  145SAPE  H18Z16003   2.633   0.951   8.681  0.8881  0.8719 -2.3531
  146SAPE     N16004   1.975   0.040  10.901 -0.1507  0.9368  0.9169
  146SAPE   HN116005   1.907  -0.013  10.958 -1.0374  0.7246 -0.2850
  146SAPE   HN216006   1.998   0.129  10.949 -0.7054  1.4110  0.3204
  146SAPE   HN316007   1.919   0.055  10.814  3.0658 -0.4149 -1.6174
  146SAPE   C1216008   2.098  -0.039  10.870  0.2364  0.7288 -0.1691
  146SAPE  H12A16009   2.075  -0.145  10.845  3.0044 -0.1507  0.6546
  146SAPE  H12B16010   2.165  -0.039  10.958  0.7516  0.2918 -0.5560
  146SAPE   C1116011   2.178   0.031  10.757  0.5286 -0.7785  0.1320
  146SAPE  H11A16012   2.118   0.017  10.664  0.4193 -3.1505  0.4992
  146SAPE  H11B16013   2.270  -0.031  10.753  1.9159  1.0312  2.0114
  146SAPE     P16014   2.341   0.206  10.862 -0.1631  0.1400 -0.4785
  146SAPE   O1316015   2.323   0.340  10.927  0.0336  0.0607 -0.2357
  146SAPE   O1416016   2.385   0.092  10.946  1.2371  0.0040  0.3354
  146SAPE   O1216017   2.207   0.167  10.791  0.1734  0.9480  0.6257
  146SAPE   O1116018   2.451   0.220  10.744 -0.0909  0.4506 -0.7040
  146SAPE    C116019   2.421   0.302  10.630  0.7474  0.5617 -0.0159
  146SAPE    HA16020   2.345   0.380  10.651  1.6601  1.2830  0.7038
  146SAPE    HB16021   2.516   0.354  10.606  2.0406 -1.1638  1.1023
  146SAPE    C216022   2.356   0.230  10.503  0.2346  0.0555  0.3452
  146SAPE    HS16023   2.276   0.161  10.537  0.0831 -0.5672 -1.2004
  146SAPE   O2116024   2.461   0.170  10.440  0.0363  0.0388 -0.1432
  146SAPE   C2116025   2.419   0.052  10.373 -1.1004 -0.5082 -0.1105
  146SAPE   O2216026   2.304   0.021  10.366 -0.7409 -0.0577  0.2925
  146SAPE   C2216027   2.538  -0.034  10.321  0.1335 -0.2582  0.3977
  146SAPE   H2R16028   2.630   0.028  10.328 -0.1168  0.1346  0.2480
  146SAPE   H2S16029   2.557  -0.127  10.378  0.0131 -1.2636 -1.1452
  146SAPE    C316030   2.290   0.343  10.421  0.0364 -0.4871 -0.8556
  146SAPE    HX16031   2.357   0.431  10.408 -1.4704  0.4452 -2.7670
  146SAPE    HY16032   2.202   0.380  10.478  0.4341 -0.0734 -0.5002
  146SAPE   O3116033   2.225   0.291  10.307 -0.2800 -0.0805  0.1046
  146SAPE   C3116034   2.105   0.235  10.313  0.2461  0.5357  0.3457
  146SAPE   O3216035   2.033   0.218  10.413 -0.7660  0.0130  0.2307
  146SAPE   C3216036   2.069   0.197  10.170 -0.1426  0.1829  0.1619
  146SAPE   H2X16037   1.968   0.151  10.182 -0.1006  0.2157  0.6581
  146SAPE   H2Y16038   2.136   0.114  10.138 -0.3340  0.4227 -0.8859
  146SAPE   C2316039   2.536  -0.066  10.174  0.3313  0.5497  0.9303
  146SAPE   H3R16040   2.433  -0.105  10.158  0.1077  1.5087 -0.1293
  146SAPE   H3S16041   2.622  -0.131  10.150  0.7899  1.5867 -0.3827
  146SAPE   C2416042   2.563   0.054  10.079  0.1857 -0.0955 -0.8945
  146SAPE   H4R16043   2.663   0.034  10.035  2.9811  2.7743  3.4036
  146SAPE   H4S16044   2.584   0.142  10.144  0.8495 -1.3862  0.7103
  146SAPE   C2516045   2.454   0.089   9.983  0.3282 -0.0611  0.3161
  146SAPE   H5R16046   2.384   0.168  10.012 -0.4423 -0.4534 -0.4192
  146SAPE   C2616047   2.432   0.021   9.871 -0.3388 -0.0219  0.2617
  146SAPE   H6R16048   2.358   0.057   9.798 -1.3375 -1.5665  0.4675
  146SAPE   C2716049   2.510  -0.097   9.814  0.3135  0.0354 -0.0023
  146SAPE   H7R16050   2.605  -0.104   9.871 -0.8478  0.6659  2.1176
  146SAPE   H7S16051   2.530  -0.065   9.710  0.4094  1.8768  0.5534
  146SAPE   C2816052   2.442  -0.230   9.820  0.0470  0.2830 -0.2451
  146SAPE   H8R16053   2.358  -0.234   9.892 -0.1817 -0.7328 -0.5470
  146SAPE   C2916054   2.471  -0.327   9.730 -0.0894  0.4031 -0.1240
  146SAPE   H9R16055   2.406  -0.416   9.726  1.1043 -0.4459 -2.4280
  146SAPE  C21016056   2.569  -0.313   9.616  0.0588  0.3608 -0.3177
  146SAPE  H10R16057   2.622  -0.410   9.607  1.3050  0.9609  0.3840
  146SAPE  H10S16058   2.649  -0.238   9.628 -0.6153  1.0418 -0.0167
  146SAPE  C21116059   2.490  -0.281   9.490  0.6523  0.6674  0.5632
  146SAPE  H11R16060   2.386  -0.245   9.495  0.3703  0.0631 -0.4988
  146SAPE  C21216061   2.536  -0.304   9.367 -0.9485 -0.6660  0.5204
  146SAPE  H12R16062   2.481  -0.271   9.278  2.9506  1.1218 -1.4814
  146SAPE  C21316063   2.678  -0.350   9.331 -0.2943  0.3618 -0.2899
  146SAPE  H13R16064   2.667  -0.422   9.247 -0.1658 -1.8280  1.4781
  146SAPE  H13S16065   2.723  -0.396   9.421 -1.3493  1.4019  0.8196
  146SAPE  C21416066   2.771  -0.235   9.297 -0.4106 -0.2193 -0.4065
  146SAPE  H14R16067   2.842  -0.215   9.378 -0.9189 -0.0632  0.0060
  146SAPE  C21516068   2.770  -0.154   9.191  0.4354 -0.2054  0.3050
  146SAPE  H15R16069   2.815  -0.054   9.201 -1.4457  0.5723  1.5173
  146SAPE  C21616070   2.672  -0.163   9.073  0.1813  0.5907  0.2891
  146SAPE  H16R16071   2.627  -0.062   9.062 -0.7288  0.3756  1.7871
  146SAPE  H16S16072   2.585  -0.232   9.079  0.2244  0.6018  1.0720
  146SAPE  C21716073   2.760  -0.193   8.951  0.1878 -0.6601 -0.5538
  146SAPE  H17R16074   2.781  -0.302   8.943 -1.9760 -0.9463 -4.3540
  146SAPE  H17S16075   2.853  -0.132   8.962  0.1741 -0.1809 -2.7197
  146SAPE  C21816076   2.687  -0.167   8.823  0.4288  0.0272 -0.7325
  146SAPE  H18R16077   2.658  -0.060   8.822 -3.1493 -0.7103  1.8055
  146SAPE  H18S16078   2.587  -0.218   8.822 -0.4890  1.7098  0.3535
  146SAPE  C21916079   2.773  -0.228   8.708  0.2753 -0.1178  0.4146
  146SAPE  H19R16080   2.877  -0.190   8.716  0.8873 -0.6871 -3.0862
  146SAPE  H19S16081   2.739  -0.192   8.609  0.0009  0.3225  0.6680
  146SAPE  C22016082   2.776  -0.386   8.711  0.2891  0.2281 -0.1636
  146SAPE  H20R16083   2.676  -0.432   8.701  0.8549 -1.0064 -0.3621
  146SAPE  H20S16084   2.828  -0.434   8.797 -0.4153 -1.2665 -0.5486
  146SAPE  H20T16085   2.828  -0.421   8.620 -2.2043 -0.0587 -1.5637
  146SAPE   C3316086   2.058   0.320  10.074 -0.4558  0.1739  0.3389
  146SAPE   H3X16087   2.066   0.279   9.972 -0.0850 -1.2356  0.9095
  146SAPE   H3Y16088   2.143   0.389  10.088 -0.7949  0.5524  0.5782
  146SAPE   C3416089   1.924   0.386  10.100 -0.3534 -0.8536 -0.3721
  146SAPE   H4X16090   1.919   0.432  10.201 -0.7961 -1.2831 -0.1927
  146SAPE   H4Y16091   1.842   0.312  10.090  0.9662 -2.2611 -1.2537
  146SAPE   C3516092   1.898   0.500  10.005  0.3581  0.6291 -0.0634
  146SAPE   H5X16093   1.899   0.457   9.903 -1.5567 -1.3582  0.6623
  146SAPE   H5Y16094   1.960   0.590  10.024 -0.2312  1.2816 -1.1182
  146SAPE   C3616095   1.758   0.557  10.026 -0.0373 -0.7767  0.2670
  146SAPE   H6X16096   1.731   0.557  10.134 -0.4197 -0.0802  0.1788
  146SAPE   H6Y16097   1.681   0.491   9.982 -2.4932  2.6619 -1.0470
  146SAPE   C3716098   1.744   0.700   9.970  0.6614  0.0554  0.1024
  146SAPE   H7X16099   1.809   0.766  10.032  0.1254  1.2029 -0.5310
  146SAPE   H7Y16100   1.640   0.732   9.991  0.5535 -0.3065  0.1205
  146SAPE   C3816101   1.775   0.703   9.826  0.3235 -0.1364 -0.4763
  146SAPE   H8X16102   1.877   0.662   9.815  1.3302  0.9373  3.4096
  146SAPE   H8Y16103   1.772   0.803   9.776 -2.4102 -0.1992 -0.5994
  146SAPE   C3916104   1.674   0.623   9.742 -0.0578 -0.1626 -0.1742
  146SAPE   H9X16105   1.574   0.669   9.751  0.6167  1.3190  0.0513
  146SAPE   H9Y16106   1.671   0.515   9.768 -3.0651  0.4235  2.5202
  146SAPE  C31016107   1.695   0.620   9.584 -0.3292 -0.2462 -0.5170
  146SAPE  H10X16108   1.772   0.543   9.562  0.2634  0.3502 -0.5818
  146SAPE  H10Y16109   1.737   0.718   9.551 -0.5926 -0.5764 -1.9052
  146SAPE  C31116110   1.562   0.600   9.505  0.0310 -1.1751 -0.6078
  146SAPE  H11X16111   1.498   0.689   9.524  0.9726 -0.9719  2.0011
  146SAPE  H11Y16112   1.508   0.509   9.538 -1.5460  0.3519  1.3081
  146SAPE  C31216113   1.599   0.593   9.355  0.0894  0.1175  0.4468
  146SAPE  H12X16114   1.672   0.672   9.329  0.6757 -0.9592 -1.3890
  146SAPE  H12Y16115   1.507   0.593   9.293 -1.1031 -2.2855  2.0367
  146SAPE  C31316116   1.657   0.458   9.318 -0.6358 -0.3609  0.0310
  146SAPE  H13X16117   1.596   0.380   9.369 -0.6624  1.4172  2.9282
  146SAPE  H13Y16118   1.762   0.454   9.355 -0.2917  3.3168 -0.1805
  146SAPE  C31416119   1.666   0.432   9.167  0.4589  0.1410  0.1278
  146SAPE  H14X16120   1.722   0.517   9.122 -2.1522  1.0211 -1.6631
  146SAPE  H14Y16121   1.565   0.431   9.121 -0.0847 -0.0846  1.2835
  146SAPE  C31516122   1.747   0.306   9.125 -0.3867 -0.5547  0.6428
  146SAPE  H15X16123   1.672   0.226   9.141 -0.4620 -0.6911 -0.3635
  146SAPE  H15Y16124   1.823   0.284   9.203 -0.5600 -4.1693 -0.0438
  146SAPE  C31616125   1.811   0.295   8.982  0.2195 -0.0506 -0.0328
  146SAPE  H16X16126   1.897   0.366   8.989  0.0917 -0.0309  1.8240
  146SAPE  H16Y16127   1.737   0.334   8.909 -0.4628 -1.9224 -0.3899
  146SAPE  C31716128   1.853   0.156   8.932  1.5863 -0.2983  0.2755
  146SAPE  H17X16129   1.897   0.164   8.831  2.2931 -2.1979  0.4011
  146SAPE  H17Y16130   1.753   0.110   8.914  1.5781 -0.1502 -0.0515
  146SAPE  C31816131   1.941   0.084   9.032  0.4155  0.1344 -0.1077
  146SAPE  H18X16132   2.035   0.141   9.051  0.7660  0.7801 -3.1998
  146SAPE  H18Y16133   1.970  -0.012   8.983  0.2314 -0.8558  1.6360
  146SAPE  H18Z16134   1.887   0.063   9.127 -0.1535  1.0128 -0.2261
  147SAPE     N16135   4.708   5.149   6.437  0.4414  0.4244 -0.4103
  147SAPE   HN116136   4.773   5.214   6.388 -0.2742 -0.7997 -3.2176
  147SAPE   HN216137   4.610   5.143   6.403 -0.2117 -2.1082  1.6378
  147SAPE   HN316138   4.702   5.169   6.539 -1.2886 -2.3901  0.1358
  147SAPE   C1216139   4.771   5.009   6.423 -0.4078  0.2924 -0.1044
  147SAPE  H12A16140   4.767   4.979   6.316  0.1361 -0.9238  0.1937
  147SAPE  H12B16141   4.716   4.936   6.486 -2.1377 -0.7504 -2.6300
  147SAPE   C1116142   4.923   5.015   6.469 -0.3097 -0.2434  0.0108
  147SAPE  H11A16143   4.959   4.910   6.479 -2.4460 -1.0332 -0.1695
  147SAPE  H11B16144   4.916   5.055   6.573 -1.5526  0.6656 -0.4051
  147SAPE     P16145   5.146   5.126   6.379  0.0846 -0.1417  0.0619
  147SAPE   O1316146   5.213   5.019   6.308  0.6348  0.2281 -0.2070
  147SAPE   O1416147   5.168   5.264   6.330  0.0630 -0.4382  0.4268
  147SAPE   O1216148   4.991   5.103   6.378 -0.7166 -0.3108 -0.3412
  147SAPE   O1116149   5.176   5.118   6.532 -0.6294  0.4740  0.1050
  147SAPE    C116150   5.228   5.002   6.601 -0.0201  0.2800  0.3660
  147SAPE    HA16151   5.192   4.913   6.544  0.8770  0.2478 -0.1768
  147SAPE    HB16152   5.338   4.987   6.591 -0.5018 -2.2344 -3.9104
  147SAPE    C216153   5.192   5.005   6.753 -0.8439  0.8182 -0.3449
  147SAPE    HS16154   5.081   5.014   6.751 -1.2058 -2.1862 -2.9841
  147SAPE   O2116155   5.262   5.118   6.806  0.6934  0.3781  0.5282
  147SAPE   C2116156   5.187   5.179   6.895  0.0620  0.3524 -0.3961
  147SAPE   O2216157   5.075   5.153   6.932  0.1202  0.2798  0.2773
  147SAPE   C2216158   5.279   5.302   6.937  0.5207  1.1100 -0.3066
  147SAPE   H2R16159   5.384   5.290   6.902 -0.8415  0.2893 -4.7449
  147SAPE   H2S16160   5.229   5.383   6.880  0.5495 -0.5028 -2.7998
  147SAPE    C316161   5.233   4.867   6.825 -0.3705 -0.0305 -0.4316
  147SAPE    HX16162   5.338   4.840   6.799  0.7013  2.4976  0.8466
  147SAPE    HY16163   5.170   4.787   6.781 -2.4770  0.6778  1.1131
  147SAPE   O3116164   5.220   4.876   6.970 -0.4798 -0.0726  0.1350
  147SAPE   C3116165   5.125   4.810   7.035 -0.2669 -0.1304 -0.2243
  147SAPE   O3216166   5.059   4.728   6.983  1.1311 -0.1384 -0.6955
  147SAPE   C3216167   5.145   4.835   7.186  0.2266  0.3839 -0.0269
  147SAPE   H2X16168   5.111   4.939   7.203  2.0830  1.1534 -0.6961
  147SAPE   H2Y16169   5.252   4.830   7.214 -0.1079 -0.0802  1.2103
  147SAPE   C2316170   5.271   5.359   7.088  0.9389  0.0770 -0.5984
  147SAPE   H3R16171   5.173   5.325   7.128 -1.8605  3.7441 -3.5139
  147SAPE   H3S16172   5.264   5.470   7.079  0.7217 -0.0555 -2.5001
  147SAPE   C2416173   5.385   5.304   7.177  0.6110 -0.0930 -0.7500
  147SAPE   H4R16174   5.383   5.365   7.270 -4.2133 -2.6215  1.1610
  147SAPE   H4S16175   5.481   5.325   7.125  1.5765 -2.0852  0.1237
  147SAPE   C2516176   5.371   5.162   7.218  0.4555 -0.1824 -0.0059
  147SAPE   H5R16177   5.361   5.096   7.131  0.3973 -0.9454  0.5666
  147SAPE   C2616178   5.373   5.101   7.339 -0.5622  0.3056  0.3806
  147SAPE   H6R16179   5.364   4.991   7.348  0.8398  0.3156  2.5709
  147SAPE   C2716180   5.394   5.163   7.474 -0.6806  0.3757  0.4353
  147SAPE   H7R16181   5.484   5.227   7.474  2.0564 -3.1697  1.0887
  147SAPE   H7S16182   5.406   5.090   7.556  1.4231  0.1711 -0.0043
  147SAPE   C2816183   5.269   5.239   7.501 -0.4700 -0.3610  0.3592
  147SAPE   H8R16184   5.200   5.246   7.416  1.6259  0.1183 -1.3935
  147SAPE   C2916185   5.241   5.303   7.617 -0.3124 -1.0524 -0.0544
  147SAPE   H9R16186   5.149   5.362   7.631  0.7939  0.5647  0.8225
  147SAPE  C21016187   5.328   5.313   7.732  0.2209 -0.2596  0.1201
  147SAPE  H10R16188   5.418   5.249   7.717 -0.5633 -1.0536 -1.5481
  147SAPE  H10S16189   5.284   5.254   7.816  2.8945  0.6664  2.3126
  147SAPE  C21116190   5.356   5.456   7.759 -0.5890 -1.1120 -0.3119
  147SAPE  H11R16191   5.316   5.532   7.690  0.4871 -1.0542 -0.8986
  147SAPE  C21216192   5.433   5.498   7.865 -0.0931 -0.1392  0.5897
  147SAPE  H12R16193   5.458   5.605   7.876  5.0080 -1.2964  2.8004
  147SAPE  C21316194   5.499   5.418   7.978 -0.0071  0.7861  0.4815
  147SAPE  H13R16195   5.435   5.330   8.002  0.2927  0.9834  2.1275
  147SAPE  H13S16196   5.506   5.486   8.065 -0.9252  2.0032 -0.3634
  147SAPE  C21416197   5.628   5.353   7.935 -0.2359 -0.3400 -0.4295
  147SAPE  H14R16198   5.654   5.345   7.829  0.7838  3.1460 -0.5663
  147SAPE  C21516199   5.728   5.318   8.014  0.0110  0.0821 -0.1553
  147SAPE  H15R16200   5.816   5.268   7.971 -1.0626 -0.8868 -1.2668
  147SAPE  C21616201   5.753   5.336   8.161  0.1833 -0.0617  0.1998
  147SAPE  H16R16202   5.673   5.388   8.219 -0.3092 -0.2537 -0.2929
  147SAPE  H16S16203   5.843   5.400   8.163  0.4664 -0.4324 -0.5116
  147SAPE  C21716204   5.770   5.197   8.229  0.5651 -0.3345  0.2360
  147SAPE  H17R16205   5.853   5.157   8.166  0.8476  1.6442 -0.7201
  147SAPE  H17S16206   5.679   5.136   8.209  0.8085 -0.5787 -0.1433
  147SAPE  C21816207   5.802   5.211   8.378  0.0917 -0.3392 -0.0145
  147SAPE  H18R16208   5.715   5.265   8.421  1.8153  3.2845 -0.6685
  147SAPE  H18S16209   5.888   5.281   8.392 -1.2529  1.5543 -0.7210
  147SAPE  C21916210   5.815   5.088   8.467  0.6617  0.9137  0.4492
  147SAPE  H19R16211   5.761   5.002   8.422 -0.3152  1.4428  0.5747
  147SAPE  H19S16212   5.769   5.111   8.565  0.7805 -0.2261  0.7782
  147SAPE  C22016213   5.964   5.040   8.497  0.3939  0.3799  0.5219
  147SAPE  H20R16214   5.964   4.941   8.548  0.8653 -0.8295 -1.6664
  147SAPE  H20S16215   6.023   5.109   8.561  0.1103  0.9722  0.1479
  147SAPE  H20T16216   6.025   5.035   8.404 -1.1524  1.7284 -0.6226
  147SAPE   C3316217   5.043   4.750   7.268  0.4795 -0.2381 -0.8972
  147SAPE   H3X16218   5.060   4.641   7.254 -2.0223 -0.6881 -1.0340
  147SAPE   H3Y16219   4.937   4.766   7.238  0.2268 -1.2046 -0.5918
  147SAPE   C3416220   5.061   4.785   7.417  0.8339  0.4252 -0.5610
  147SAPE   H4X16221   5.004   4.707   7.473 -0.4307  0.5047 -1.6718
  147SAPE   H4Y16222   5.019   4.884   7.446 -0.4892  0.0933 -1.2429
  147SAPE   C3516223   5.208   4.774   7.469  0.6384 -0.1326  0.2348
  147SAPE   H5X16224   5.254   4.866   7.427 -0.7337  0.3272 -0.2959
  147SAPE   H5Y16225   5.259   4.684   7.426  1.6722  0.8607 -0.6773
  147SAPE   C3616226   5.219   4.774   7.617  0.7789 -0.9043 -0.7179
  147SAPE   H6X16227   5.325   4.780   7.649  0.5957 -2.1904  0.2305
  147SAPE   H6Y16228   5.195   4.671   7.653 -0.0019  0.0143  1.5508
  147SAPE   C3716229   5.121   4.858   7.705  0.0934  0.3581 -0.3923
  147SAPE   H7X16230   5.031   4.804   7.742  1.7866 -0.2838  3.3200
  147SAPE   H7Y16231   5.081   4.932   7.633  0.4416  0.0598 -0.9015
  147SAPE   C3816232   5.191   4.910   7.829 -0.1355  0.2916  0.3268
  147SAPE   H8X16233   5.274   4.978   7.800 -0.7400  0.8947 -0.0260
  147SAPE   H8Y16234   5.227   4.821   7.883 -2.1011 -0.6343  0.2108
  147SAPE   C3916235   5.104   4.983   7.927 -0.5627 -0.4588 -0.7749
  147SAPE   H9X16236   5.012   4.932   7.960 -2.0537  2.4208 -0.1247
  147SAPE   H9Y16237   5.063   5.074   7.877 -0.6613 -1.5736 -2.8248
  147SAPE  C31016238   5.193   5.021   8.060 -0.3146  0.7607 -0.0242
  147SAPE  H10X16239   5.269   5.098   8.038 -0.4192  0.5886 -1.0646
  147SAPE  H10Y16240   5.240   4.922   8.078  1.1210  1.2015 -1.2004
  147SAPE  C31116241   5.098   5.069   8.174 -0.3794 -0.0024  0.2877
  147SAPE  H11X16242   5.130   5.029   8.272  0.8047 -3.1738 -1.2680
  147SAPE  H11Y16243   5.000   5.021   8.158 -0.3507  0.1268 -0.3410
  147SAPE  C31216244   5.082   5.224   8.176  0.3540 -0.0453  0.0138
  147SAPE  H12X16245   4.979   5.258   8.201  0.2018 -1.3581  1.2658
  147SAPE  H12Y16246   5.105   5.270   8.077  1.7154 -0.6346  0.0335
  147SAPE  C31316247   5.163   5.301   8.288 -0.4404  0.8660  0.0721
  147SAPE  H13X16248   5.162   5.238   8.380  0.5887  3.4249  1.9730
  147SAPE  H13Y16249   5.106   5.388   8.326 -0.9341 -0.1463  1.8014
  147SAPE  C31416250   5.302   5.344   8.251  0.7403 -0.1269 -0.2500
  147SAPE  H14X16251   5.283   5.426   8.178 -3.0398  0.8892  1.6146
  147SAPE  H14Y16252   5.355   5.269   8.188 -2.1387 -2.1784 -0.3923
  147SAPE  C31516253   5.399   5.372   8.370  0.1036 -0.0980 -0.5269
  147SAPE  H15X16254   5.504   5.383   8.336  0.3507 -2.1420 -0.5077
  147SAPE  H15Y16255   5.404   5.285   8.438  0.3362  0.3270  0.0085
  147SAPE  C31616256   5.352   5.485   8.461 -0.6701  0.1651 -1.2223
  147SAPE  H16X16257   5.247   5.456   8.483  0.0846 -1.0643  1.1116
  147SAPE  H16Y16258   5.360   5.585   8.413 -0.3149 -0.3720 -2.3257
  147SAPE  C31716259   5.432   5.499   8.592 -0.2274 -0.1147  0.7961
  147SAPE  H17X16260   5.424   5.406   8.652 -1.3621 -1.9692 -1.9802
  147SAPE  H17Y16261   5.388   5.579   8.655 -1.8091 -0.4345  0.1476
  147SAPE  C31816262   5.582   5.532   8.566  0.8214 -0.3560 -0.2886
  147SAPE  H18X16263   5.645   5.532   8.657 -0.1286 -0.0250  0.3881
  147SAPE  H18Y16264   5.572   5.638   8.534  0.0873 -0.2997  0.0851
  147SAPE  H18Z16265   5.635   5.472   8.489  0.2628 -1.6177  0.2705
  148SAPE     N16266   0.676   2.423   6.168 -0.1713  0.3774 -0.4882
  148SAPE   HN116267   0.679   2.384   6.072  1.6422  1.3347 -0.8656
  148SAPE   HN216268   0.593   2.378   6.212 -1.4755  2.2147 -0.9819
  148SAPE   HN316269   0.659   2.525   6.161 -2.7379  0.0937  0.5409
  148SAPE   C1216270   0.808   2.396   6.240  0.4924  0.6024 -0.0606
  148SAPE  H12A16271   0.803   2.424   6.347 -1.0306 -0.0893  0.0710
  148SAPE  H12B16272   0.877   2.461   6.181  1.1558 -0.6311 -0.6809
  148SAPE   C1116273   0.854   2.248   6.224 -0.2610 -0.3271 -0.3240
  148SAPE  H11A16274   0.940   2.215   6.287 -0.7184 -1.1009 -0.0937
  148SAPE  H11B16275   0.895   2.246   6.121 -1.9734  1.1358 -1.0895
  148SAPE     P16276   0.737   2.062   6.358 -0.0415 -0.1072  0.3874
  148SAPE   O1316277   0.597   2.036   6.399  0.5719 -0.1302  0.2533
  148SAPE   O1416278   0.826   1.945   6.348 -0.0083  0.1055 -0.2217
  148SAPE   O1216279   0.744   2.158   6.229 -0.0087  0.6231  0.1493
  148SAPE   O1116280   0.789   2.156   6.470 -0.1522 -0.2390 -0.3847
  148SAPE    C116281   0.760   2.127   6.608 -0.0599 -0.0810 -0.1829
  148SAPE    HA16282   0.655   2.156   6.628 -0.9627 -1.9997 -1.8118
  148SAPE    HB16283   0.782   2.023   6.638 -4.1412 -0.7126  1.2144
  148SAPE    C216284   0.851   2.211   6.701 -0.0474  0.1033 -0.2093
  148SAPE    HS16285   0.956   2.189   6.670  0.1590 -2.1646  1.8300
  148SAPE   O2116286   0.830   2.177   6.844 -0.5389 -0.0399 -0.0796
  148SAPE   C2116287   0.931   2.197   6.922  0.3045  0.2147 -0.2387
  148SAPE   O2216288   1.039   2.231   6.874  0.1460  0.7651 -0.6667
  148SAPE   C2216289   0.896   2.172   7.073 -0.5530 -0.0577  0.6158
  148SAPE   H2R16290   0.833   2.257   7.106 -0.8860 -0.2364  0.4425
  148SAPE   H2S16291   0.827   2.086   7.084 -0.2581 -0.1746  1.6377
  148SAPE    C316292   0.831   2.367   6.664  0.0364  0.7325 -0.0146
  148SAPE    HX16293   0.874   2.373   6.561 -0.0609 -0.1948 -0.1183
  148SAPE    HY16294   0.889   2.416   6.744 -1.5406 -1.9272  2.9900
  148SAPE   O3116295   0.686   2.389   6.667  0.1597  0.1913 -0.7851
  148SAPE   C3116296   0.643   2.402   6.796  0.4755 -0.1768  0.6671
  148SAPE   O3216297   0.720   2.406   6.892  0.1394  0.2495 -0.7057
  148SAPE   C3216298   0.494   2.422   6.797  0.0756 -0.9074 -0.0369
  148SAPE   H2X16299   0.450   2.383   6.703 -0.5379 -0.0458 -0.1159
  148SAPE   H2Y16300   0.480   2.532   6.804 -2.6636 -1.1194 -1.2312
  148SAPE   C2316301   1.007   2.183   7.180 -0.1699  0.1255  0.5174
  148SAPE   H3R16302   1.070   2.269   7.149  0.1676  0.1815  1.3387
  148SAPE   H3S16303   1.075   2.095   7.178 -0.3696 -0.0169 -1.0465
  148SAPE   C2416304   0.963   2.217   7.321  0.3624  0.1174 -0.3259
  148SAPE   H4R16305   1.055   2.211   7.382  0.4966 -1.6038 -0.6432
  148SAPE   H4S16306   0.895   2.137   7.359  1.3963 -0.6123  0.0448
  148SAPE   C2516307   0.901   2.356   7.328 -0.2350 -0.2161 -0.5770
  148SAPE   H5R16308   0.921   2.420   7.240 -1.4374 -0.1876 -0.8524
  148SAPE   C2616309   0.794   2.389   7.412  0.3294 -0.4109  0.5947
  148SAPE   H6R16310   0.770   2.495   7.429  3.0954  0.3585  0.1151
  148SAPE   C2716311   0.730   2.312   7.518  0.5707 -0.0049 -0.5852
  148SAPE   H7R16312   0.722   2.208   7.481 -0.6088 -0.2475  0.2642
  148SAPE   H7S16313   0.623   2.336   7.535  0.2753 -1.1154 -0.8019
  148SAPE   C2816314   0.808   2.306   7.645  0.0086  0.8427 -0.1472
  148SAPE   H8R16315   0.887   2.230   7.634 -0.4353  0.4838 -0.9545
  148SAPE   C2916316   0.800   2.374   7.763  0.4739 -0.4715  0.7301
  148SAPE   H9R16317   0.864   2.359   7.851  0.1402  1.8218  1.4459
  148SAPE  C21016318   0.700   2.488   7.778 -0.3508 -0.2636 -0.0425
  148SAPE  H10R16319   0.600   2.442   7.761  0.8616 -2.1462 -2.8266
  148SAPE  H10S16320   0.712   2.550   7.687 -1.2224 -2.3515 -1.6704
  148SAPE  C21116321   0.692   2.568   7.904  0.0392  0.1791  0.0674
  148SAPE  H11R16322   0.666   2.501   7.987 -0.1555 -0.9542 -0.8751
  148SAPE  C21216323   0.706   2.698   7.912  0.5168 -0.1437 -0.3604
  148SAPE  H12R16324   0.700   2.742   8.013  1.2867  0.3258 -0.5062
  148SAPE  C21316325   0.729   2.794   7.795 -0.4507 -0.4586 -0.0281
  148SAPE  H13R16326   0.703   2.749   7.697 -1.6298  0.7622 -0.3118
  148SAPE  H13S16327   0.836   2.824   7.784 -1.0502  1.2080 -1.7320
  148SAPE  C21416328   0.662   2.932   7.794  0.6345  0.2342  0.6803
  148SAPE  H14R16329   0.556   2.929   7.766  0.7756 -1.3611  0.2010
  148SAPE  C21516330   0.716   3.046   7.835 -0.1356 -0.4394  0.6431
  148SAPE  H15R16331   0.653   3.134   7.816  0.9952 -0.1162 -2.1023
  148SAPE  C21616332   0.853   3.070   7.901  0.1253 -0.3191  0.3605
  148SAPE  H16R16333   0.919   3.115   7.824  1.9852 -0.1309  1.9931
  148SAPE  H16S16334   0.905   2.977   7.933  3.0036  1.3061  0.7583
  148SAPE  C21716335   0.851   3.166   8.024  0.2309 -0.4963  0.4932
  148SAPE  H17R16336   0.828   3.270   7.993  2.6296  0.1321  0.6354
  148SAPE  H17S16337   0.950   3.171   8.075  2.3167 -0.5706 -3.2076
  148SAPE  C21816338   0.750   3.109   8.126 -0.4449 -0.1514 -0.3257
  148SAPE  H18R16339   0.755   2.999   8.141 -0.4603  0.0635  1.4149
  148SAPE  H18S16340   0.650   3.128   8.082 -0.3254 -0.5563 -0.7838
  148SAPE  C21916341   0.749   3.173   8.271 -0.0951 -0.1050  0.2690
  148SAPE  H19R16342   0.837   3.136   8.327  0.9821 -1.4662 -2.1516
  148SAPE  H19S16343   0.653   3.129   8.306 -1.7272  0.6155 -2.9254
  148SAPE  C22016344   0.744   3.322   8.279  0.1019 -0.4206 -0.2086
  148SAPE  H20R16345   0.722   3.363   8.379 -0.2263  2.5614 -1.4132
  148SAPE  H20S16346   0.665   3.354   8.208 -0.4819  1.3219  1.1691
  148SAPE  H20T16347   0.836   3.367   8.235  1.0026 -0.4651  1.5466
  148SAPE   C3316348   0.432   2.352   6.919 -0.0371  0.2138 -0.4001
  148SAPE   H3X16349   0.322   2.366   6.915  0.0296  1.1777  0.6310
  148SAPE   H3Y16350   0.477   2.399   7.009  2.8891  0.0902 -1.6896
  148SAPE   C3416351   0.444   2.204   6.916  0.0219  0.0006  0.8865
  148SAPE   H4X16352   0.551   2.188   6.938  0.0757  2.0522  2.3803
  148SAPE   H4Y16353   0.422   2.158   6.817  0.8306 -3.1001  2.0073
  148SAPE   C3516354   0.356   2.127   7.030 -0.0399 -0.1652 -0.3947
  148SAPE   H5X16355   0.376   2.021   7.002  0.3956 -0.6184  1.5076
  148SAPE   H5Y16356   0.251   2.160   7.013  0.4085  1.5726 -0.0367
  148SAPE   C3616357   0.414   2.158   7.167  0.2295 -0.0341 -0.2279
  148SAPE   H6X16358   0.417   2.269   7.172 -0.7446  0.0862 -1.5456
  148SAPE   H6Y16359   0.519   2.127   7.181  0.7229  2.3137  1.8561
  148SAPE   C3716360   0.324   2.106   7.277 -0.1839  0.0412  0.3653
  148SAPE   H7X16361   0.310   1.996   7.265  1.7708 -0.0371 -2.0647
  148SAPE   H7Y16362   0.224   2.154   7.272  0.6637  2.0450  1.4948
  148SAPE   C3816363   0.384   2.150   7.413 -0.4099 -0.1432 -0.1293
  148SAPE   H8X16364   0.394   2.261   7.407  0.3371 -0.2371 -0.8054
  148SAPE   H8Y16365   0.484   2.107   7.436 -0.6347 -0.6927 -0.1608
  148SAPE   C3916366   0.286   2.149   7.531  0.2538 -0.0338  0.0428
  148SAPE   H9X16367   0.260   2.042   7.545  1.0055 -1.0344 -4.5522
  148SAPE   H9Y16368   0.195   2.202   7.498  2.0020  3.2717  0.1722
  148SAPE  C31016369   0.337   2.225   7.653 -0.5384 -0.0597 -0.8008
  148SAPE  H10X16370   0.246   2.253   7.710 -2.2058 -3.4534 -1.5595
  148SAPE  H10Y16371   0.396   2.308   7.607  0.8593 -0.8078 -0.4368
  148SAPE  C31116372   0.429   2.144   7.759  0.9977 -0.6580  1.1515
  148SAPE  H11X16373   0.509   2.217   7.783 -0.4745  2.3382 -2.2404
  148SAPE  H11Y16374   0.462   2.048   7.714 -2.2581 -2.1542  1.6143
  148SAPE  C31216375   0.352   2.103   7.887 -0.7047 -0.6704 -0.7051
  148SAPE  H12X16376   0.270   2.035   7.857 -1.1412  0.3198 -1.7966
  148SAPE  H12Y16377   0.308   2.189   7.942  1.6677 -0.0597  0.3660
  148SAPE  C31316378   0.445   2.031   7.995  1.0146  0.2015  0.5277
  148SAPE  H13X16379   0.516   2.107   8.034  1.5356  0.2455 -0.4741
  148SAPE  H13Y16380   0.502   1.960   7.932 -0.3065 -2.4965  2.1961
  148SAPE  C31416381   0.360   1.963   8.102 -0.0807 -0.1961 -0.1957
  148SAPE  H14X16382   0.269   1.930   8.047 -0.1418 -0.3967  0.0236
  148SAPE  H14Y16383   0.318   2.031   8.179 -1.2182  1.6868 -2.3773
  148SAPE  C31516384   0.421   1.844   8.174 -0.1777 -0.1941 -0.1965
  148SAPE  H15X16385   0.509   1.882   8.230 -2.2875  0.6249  2.8415
  148SAPE  H15Y16386   0.458   1.778   8.093 -1.0169  2.6296 -3.0939
  148SAPE  C31616387   0.326   1.790   8.273  0.2588  0.5976  0.0998
  148SAPE  H16X16388   0.230   1.768   8.221  0.6668  1.5415 -1.0903
  148SAPE  H16Y16389   0.302   1.864   8.352 -2.2727 -1.0106  0.9711
  148SAPE  C31716390   0.383   1.672   8.359  0.2056  0.4548  0.6325
  148SAPE  H17X16391   0.482   1.701   8.398  0.5990 -1.5428  1.2527
  148SAPE  H17Y16392   0.378   1.575   8.305  2.5900 -0.5867  2.1277
  148SAPE  C31816393   0.300   1.637   8.479  0.0757  0.2792 -0.3843
  148SAPE  H18X16394   0.210   1.580   8.447  1.6834 -0.8260 -3.3132
  148SAPE  H18Y16395   0.269   1.732   8.527  0.6182  2.1182 -3.4082
  148SAPE  H18Z16396   0.360   1.581   8.554  0.8209  3.8067  1.8822
  149SAPE     N16397   6.465   2.843   6.323 -0.4988 -0.1834 -0.6431
  149SAPE   HN116398   6.395   2.913   6.290 -2.0310 -0.8602  1.0057
  149SAPE   HN216399   6.553   2.849   6.268 -0.5838  1.6108 -0.6529
  149SAPE   HN316400   6.419   2.752   6.305  0.4083 -0.6881 -0.4312
  149SAPE   C1216401   6.464   2.869   6.468  0.1117  0.2515 -0.3159
  149SAPE  H12A16402   6.536   2.796   6.511  0.5386  0.9483  0.1540
  149SAPE  H12B16403   6.360   2.858   6.506  0.7913 -3.3229  0.9758
  149SAPE   C1116404   6.512   3.008   6.513  0.7114 -0.4417 -0.6875
  149SAPE  H11A16405   6.617   3.023   6.483  0.2745  0.4690 -1.8182
  149SAPE  H11B16406   6.496   3.001   6.623 -1.1299  2.1702 -0.7047
  149SAPE     P16407   6.456   3.258   6.488  0.1182 -0.1910  0.3995
  149SAPE   O1316408   6.524   3.312   6.369 -0.3248 -0.3779  0.2457
  149SAPE   O1416409   6.331   3.328   6.517  0.6022  0.2861 -0.4890
  149SAPE   O1216410   6.417   3.108   6.458 -0.6904 -0.4452  0.1781
  149SAPE   O1116411   6.552   3.248   6.617 -0.6643  0.0169 -0.5502
  149SAPE    C116412   6.676   3.316   6.599 -0.6207  0.4049  0.4305
  149SAPE    HA16413   6.743   3.273   6.521  1.8069  2.7054  1.0844
  149SAPE    HB16414   6.659   3.420   6.564  0.7730  0.3342 -0.5489
  149SAPE    C216415   6.748   3.337   6.738  0.3090  0.2888 -0.0881
  149SAPE    HS16416   6.847   3.385   6.725  0.5412 -0.4701 -1.2206
  149SAPE   O2116417   6.763   3.213   6.809  0.1194 -0.4982 -0.1926
  149SAPE   C2116418   6.864   3.147   6.771 -0.8292  0.3282 -0.1233
  149SAPE   O2216419   6.935   3.171   6.674  0.0232 -0.2610  0.0140
  149SAPE   C2216420   6.853   3.012   6.834  0.6850  0.1822  0.0984
  149SAPE   H2R16421   6.794   3.024   6.927 -2.0192 -2.8672 -0.9911
  149SAPE   H2S16422   6.791   2.947   6.767  3.1100 -1.4518 -0.7147
  149SAPE    C316423   6.665   3.429   6.824  0.5311  0.2169 -0.8799
  149SAPE    HX16424   6.643   3.524   6.771  0.1201  1.1777  0.9390
  149SAPE    HY16425   6.735   3.461   6.904  0.1406 -1.2219  0.0777
  149SAPE   O3116426   6.544   3.359   6.876 -0.7272 -0.5910  0.3708
  149SAPE   C3116427   6.432   3.418   6.857  0.1318 -0.0345 -0.4828
  149SAPE   O3216428   6.413   3.528   6.803 -0.6890  0.2400 -0.1057
  149SAPE   C3216429   6.329   3.327   6.929 -0.0018  0.2568  0.7868
  149SAPE   H2X16430   6.381   3.276   7.013 -0.4306  0.6540  1.2995
  149SAPE   H2Y16431   6.301   3.249   6.854  1.1123  1.8926 -1.4494
  149SAPE   C2316432   6.987   2.944   6.861  0.2548 -0.0256  0.1883
  149SAPE   H3R16433   7.041   3.007   6.935 -0.0825 -0.0068  0.4237
  149SAPE   H3S16434   7.039   2.920   6.766  2.5456  0.5626  1.2331
  149SAPE   C2416435   6.971   2.810   6.921  0.2602  0.2412  0.1526
  149SAPE   H4R16436   6.898   2.754   6.859  0.2593  0.2327  0.1611
  149SAPE   H4S16437   6.931   2.812   7.024 -0.3528  1.2139 -0.0960
  149SAPE   C2516438   7.098   2.729   6.913  0.5851  0.6834  0.6843
  149SAPE   H5R16439   7.113   2.689   6.812 -1.1609  0.2702  0.5546
  149SAPE   C2616440   7.177   2.696   7.017 -0.5272 -0.0489 -0.3616
  149SAPE   H6R16441   7.276   2.652   6.997  1.1493  2.9649  0.5829
  149SAPE   C2716442   7.176   2.746   7.161  0.5253  0.6150  0.8649
  149SAPE   H7R16443   7.070   2.761   7.189 -0.6015 -2.8241 -0.9542
  149SAPE   H7S16444   7.243   2.834   7.170  1.1254  0.3221 -0.4678
  149SAPE   C2816445   7.222   2.638   7.253  0.4453  0.6640  0.0563
  149SAPE   H8R16446   7.195   2.544   7.204  0.2945  0.6006  0.2566
  149SAPE   C2916447   7.277   2.651   7.377  0.9342  0.0605 -0.4069
  149SAPE   H9R16448   7.296   2.559   7.434 -1.7610 -0.4099 -0.1696
  149SAPE  C21016449   7.309   2.778   7.442 -1.1817 -0.6157  0.1492
  149SAPE  H10R16450   7.296   2.864   7.373  1.2416  0.7451  1.2459
  149SAPE  H10S16451   7.415   2.765   7.472 -0.4132 -2.1728 -2.8138
  149SAPE  C21116452   7.223   2.790   7.574 -0.3573 -0.1504  0.3872
  149SAPE  H11R16453   7.234   2.706   7.645 -1.6022 -0.0133  0.7710
  149SAPE  C21216454   7.146   2.897   7.612  0.7796 -0.3668  0.4568
  149SAPE  H12R16455   7.097   2.903   7.710  2.0703 -0.2570  1.1132
  149SAPE  C21316456   7.127   3.020   7.525  0.8866 -0.5037  1.1423
  149SAPE  H13R16457   7.130   2.992   7.417 -0.8023 -3.2138  1.7048
  149SAPE  H13S16458   7.198   3.103   7.547 -0.2539  1.2516 -1.4260
  149SAPE  C21416459   6.993   3.077   7.564  0.6861  0.3156  0.0364
  149SAPE  H14R16460   6.950   3.057   7.663 -1.6288  0.1102 -0.9392
  149SAPE  C21516461   6.919   3.152   7.482 -0.2517 -0.1172 -0.1784
  149SAPE  H15R16462   6.818   3.178   7.518 -1.3339 -3.6992 -0.2273
  149SAPE  C21616463   6.953   3.199   7.340  0.2428 -0.5111  0.2408
  149SAPE  H16R16464   6.877   3.162   7.267 -0.3788  1.2088 -0.0270
  149SAPE  H16S16465   7.052   3.157   7.313  0.7331 -1.9878  3.6860
  149SAPE  C21716466   6.930   3.353   7.320 -0.6888  0.6856 -0.5573
  149SAPE  H17R16467   7.015   3.406   7.368 -1.0740  1.6940 -0.9545
  149SAPE  H17S16468   6.837   3.380   7.373 -0.8029 -1.1209  0.2295
  149SAPE  C21816469   6.934   3.395   7.175  0.1669 -0.3898  0.0351
  149SAPE  H18R16470   6.923   3.506   7.173  0.1588 -0.3947 -0.1871
  149SAPE  H18S16471   6.844   3.347   7.130 -0.1333  0.3227 -0.1513
  149SAPE  C21916472   7.067   3.377   7.101 -0.4945 -0.4048  0.2574
  149SAPE  H19R16473   7.094   3.269   7.098 -2.1975 -0.8420 -0.4074
  149SAPE  H19S16474   7.143   3.426   7.165 -1.8268 -1.3548  2.7011
  149SAPE  C22016475   7.060   3.428   6.961 -0.5035  0.9229  0.7385
  149SAPE  H20R16476   7.042   3.538   6.958 -0.4843  0.9188  0.4542
  149SAPE  H20S16477   6.972   3.382   6.912 -0.0705  1.1958 -0.3194
  149SAPE  H20T16478   7.146   3.400   6.897 -1.7975  1.0008 -1.1261
  149SAPE   C3316479   6.194   3.404   6.960 -0.5853  0.1618 -0.7787
  149SAPE   H3X16480   6.115   3.358   6.896 -0.4363 -1.3369  0.0864
  149SAPE   H3Y16481   6.198   3.513   6.941 -0.0416  0.4026  0.5831
  149SAPE   C3416482   6.158   3.369   7.108  0.9478  0.6927  0.9838
  149SAPE   H4X16483   6.161   3.258   7.116  1.4689  0.7878  2.5605
  149SAPE   H4Y16484   6.057   3.415   7.117  1.4464  1.9243  0.4075
  149SAPE   C3516485   6.248   3.418   7.218  0.1429 -0.9467 -0.3615
  149SAPE   H5X16486   6.278   3.518   7.180 -0.1286 -1.2007 -1.2705
  149SAPE   H5Y16487   6.343   3.361   7.219  1.4006  1.0396 -0.0157
  149SAPE   C3616488   6.188   3.423   7.362  0.2043 -0.2960 -0.1200
  149SAPE   H6X16489   6.183   3.322   7.406  0.3764 -0.1297  0.2876
  149SAPE   H6Y16490   6.085   3.465   7.359  0.0468 -0.6961 -0.4041
  149SAPE   C3716491   6.264   3.505   7.465 -0.1842 -0.1636 -0.0010
  149SAPE   H7X16492   6.283   3.603   7.416  0.5581  0.3073  1.1818
  149SAPE   H7Y16493   6.357   3.449   7.490 -0.3872 -1.3907 -1.8134
  149SAPE   C3816494   6.207   3.546   7.602 -0.3208  0.1002 -0.2569
  149SAPE   H8X16495   6.128   3.625   7.597  1.0140  1.5084 -0.0369
  149SAPE   H8Y16496   6.294   3.594   7.651  0.2551  1.6287 -2.5989
  149SAPE   C3916497   6.143   3.429   7.679  0.8316  0.1112  0.9903
  149SAPE   H9X16498   6.221   3.353   7.698  0.5064  0.0578  2.1666
  149SAPE   H9Y16499   6.077   3.373   7.609 -0.4289  0.7575  1.6207
  149SAPE  C31016500   6.065   3.471   7.806 -0.1190 -0.5382  0.4359
  149SAPE  H10X16501   5.992   3.550   7.779  0.5673  0.2408  0.7868
  149SAPE  H10Y16502   6.136   3.515   7.880  1.9634 -2.0146 -0.5718
  149SAPE  C31116503   5.991   3.355   7.884  0.1611  0.3613  0.0245
  149SAPE  H11X16504   6.058   3.270   7.908  0.4587  0.3646 -0.7548
  149SAPE  H11Y16505   5.905   3.309   7.829 -0.1685 -0.4399  1.1737
  149SAPE  C31216506   5.918   3.413   8.018 -0.4508 -0.5562 -0.4899
  149SAPE  H12X16507   5.835   3.480   7.987  0.2132 -0.3248 -1.8308
  149SAPE  H12Y16508   6.003   3.462   8.070  0.1548 -0.0069 -1.9407
  149SAPE  C31316509   5.862   3.306   8.114  0.0672  0.0820  0.1322
  149SAPE  H13X16510   5.797   3.339   8.197  0.0261 -2.3986  1.1767
  149SAPE  H13Y16511   5.949   3.270   8.173 -1.1431  0.0541  1.9908
  149SAPE  C31416512   5.784   3.191   8.042 -0.2791  0.6355 -0.5877
  149SAPE  H14X16513   5.866   3.145   7.983  0.0655 -0.4767  0.7082
  149SAPE  H14Y16514   5.709   3.239   7.975  0.9561  0.5395 -2.0910
  149SAPE  C31516515   5.723   3.070   8.124  0.0194 -0.1450 -1.0686
  149SAPE  H15X16516   5.797   3.001   8.170  0.3561  0.1588 -1.1495
  149SAPE  H15Y16517   5.652   3.013   8.061 -0.4973  1.1435 -1.6885
  149SAPE  C31616518   5.655   3.107   8.259 -0.2757 -0.4617 -0.0192
  149SAPE  H16X16519   5.595   3.199   8.247  1.0229  0.5724  1.0377
  149SAPE  H16Y16520   5.730   3.113   8.341 -0.5829 -0.2099  0.2466
  149SAPE  C31716521   5.564   3.000   8.320 -0.2534  0.6128 -0.0795
  149SAPE  H17X16522   5.490   2.969   8.243 -1.0440  1.3752  0.3477
  149SAPE  H17Y16523   5.510   3.032   8.411 -2.2236 -0.0629 -0.9511
  149SAPE  C31816524   5.638   2.873   8.344 -0.3435  0.3798  0.0871
  149SAPE  H18X16525   5.719   2.881   8.420 -0.1133  2.0466 -0.3026
  149SAPE  H18Y16526   5.688   2.838   8.251 -1.5739  2.1356 -1.3174
  149SAPE  H18Z16527   5.576   2.784   8.369  0.1145  0.0896  0.1980
  150SAPE     N16528   4.411   4.204   6.301  0.2653  0.0163 -0.2968
  150SAPE   HN116529   4.489   4.227   6.236  0.4178 -1.8133 -0.8305
  150SAPE   HN216530   4.347   4.138   6.254  0.1303 -0.1282  0.0861
  150SAPE   HN316531   4.369   4.297   6.319  0.5250 -0.0771  0.8816
  150SAPE   C1216532   4.479   4.142   6.418 -0.0856 -0.4677  0.4202
  150SAPE  H12A16533   4.512   4.039   6.397 -1.8787 -1.1194  0.6513
  150SAPE  H12B16534   4.396   4.136   6.492 -0.1016 -0.1547  0.4327
  150SAPE   C1116535   4.589   4.237   6.471  0.1161 -0.0339 -0.5065
  150SAPE  H11A16536   4.634   4.191   6.561 -0.0503 -0.0572 -0.4345
  150SAPE  H11B16537   4.542   4.334   6.498 -3.1527 -2.0381  1.7495
  150SAPE     P16538   4.799   4.341   6.363 -0.2366  0.3471 -0.2891
  150SAPE   O1316539   4.891   4.296   6.249  0.7590  0.0188  0.2203
  150SAPE   O1416540   4.751   4.479   6.351 -0.1414  0.1535  0.0444
  150SAPE   O1216541   4.678   4.250   6.359 -0.5169  0.1293  0.1695
  150SAPE   O1116542   4.853   4.300   6.511 -0.6868 -0.0975  0.0261
  150SAPE    C116543   4.910   4.167   6.528 -0.1298  0.7426 -0.3158
  150SAPE    HA16544   4.879   4.126   6.626 -0.1228 -2.0016 -1.3736
  150SAPE    HB16545   4.868   4.095   6.455  0.4268  0.9482 -0.8513
  150SAPE    C216546   5.058   4.169   6.497 -0.0864 -0.2421  0.1667
  150SAPE    HS16547   5.065   4.203   6.392 -0.6283  0.8962  0.4836
  150SAPE   O2116548   5.111   4.031   6.517  0.1410 -1.1101  0.7659
  150SAPE   C2116549   5.224   4.001   6.461 -0.7891  0.0127  0.3735
  150SAPE   O2216550   5.273   4.066   6.368 -0.2326  0.0481 -0.2974
  150SAPE   C2216551   5.288   3.885   6.533 -0.3746  1.1244 -0.2091
  150SAPE   H2R16552   5.268   3.881   6.642  2.3557 -3.0749  0.3532
  150SAPE   H2S16553   5.242   3.791   6.494  1.1616 -0.2367  1.1301
  150SAPE    C316554   5.139   4.270   6.587 -0.0088 -0.1393  0.2231
  150SAPE    HX16555   5.082   4.365   6.585  1.1361  0.5769  0.6100
  150SAPE    HY16556   5.238   4.293   6.542  0.9172 -3.1760  0.4482
  150SAPE   O3116557   5.152   4.219   6.721 -0.4973 -0.5538  0.1020
  150SAPE   C3116558   5.164   4.312   6.823  0.3671  0.0342  0.1963
  150SAPE   O3216559   5.184   4.433   6.806  0.2779  0.9234  0.5674
  150SAPE   C3216560   5.137   4.249   6.959  0.0345  0.0020  0.2725
  150SAPE   H2X16561   5.187   4.150   6.954  4.0038  1.7570  1.6443
  150SAPE   H2Y16562   5.029   4.222   6.961  0.0048  0.1320  0.4096
  150SAPE   C2316563   5.441   3.865   6.523  0.4398 -0.0171  0.3342
  150SAPE   H3R16564   5.489   3.964   6.540 -1.4885  0.8491  1.1123
  150SAPE   H3S16565   5.468   3.827   6.422 -1.3842  0.3080 -0.3109
  150SAPE   C2416566   5.496   3.771   6.634  0.7984 -0.8220 -0.5557
  150SAPE   H4R16567   5.489   3.665   6.600 -0.5626 -0.2288 -2.3027
  150SAPE   H4S16568   5.420   3.783   6.714 -2.0580  1.2423 -3.3188
  150SAPE   C2516569   5.633   3.821   6.660  0.0024  1.1130 -0.5150
  150SAPE   H5R16570   5.708   3.791   6.585  1.1647 -2.5459  1.8725
  150SAPE   C2616571   5.669   3.884   6.773  0.2562 -0.6169  0.3614
  150SAPE   H6R16572   5.776   3.906   6.785 -0.1196  1.0730  0.9413
  150SAPE   C2716573   5.580   3.929   6.886 -0.5894  0.8403 -0.5770
  150SAPE   H7R16574   5.471   3.936   6.868 -1.1370  0.1805  2.0538
  150SAPE   H7S16575   5.615   4.031   6.911 -3.0398  1.6738 -0.2552
  150SAPE   C2816576   5.601   3.847   7.011 -0.4633  0.3936 -0.6400
  150SAPE   H8R16577   5.635   3.744   6.994  0.9739  0.5478  1.0390
  150SAPE   C2916578   5.579   3.900   7.135 -0.0104  0.1570 -0.2135
  150SAPE   H9R16579   5.591   3.835   7.223 -0.0523 -0.8764 -0.9471
  150SAPE  C21016580   5.540   4.042   7.164  0.1955 -0.5507 -0.0010
  150SAPE  H10R16581   5.479   4.041   7.257  1.5204 -1.4826  0.9058
  150SAPE  H10S16582   5.488   4.086   7.077  2.3218  0.0837 -1.0050
  150SAPE  C21116583   5.665   4.132   7.184  0.0123  0.0643 -0.5828
  150SAPE  H11R16584   5.741   4.117   7.105 -0.8470  1.6262 -1.7488
  150SAPE  C21216585   5.684   4.215   7.283  0.7112 -0.5618  0.1517
  150SAPE  H12R16586   5.782   4.266   7.278  1.4834 -2.1101 -1.2281
  150SAPE  C21316587   5.574   4.258   7.384 -0.7396 -0.1473 -1.2163
  150SAPE  H13R16588   5.476   4.207   7.371 -0.4954 -1.0385  0.2476
  150SAPE  H13S16589   5.550   4.363   7.357  2.5898  0.9375 -0.4682
  150SAPE  C21416590   5.625   4.267   7.528  0.1698 -0.6671  0.1722
  150SAPE  H14R16591   5.632   4.369   7.570 -1.2021 -0.8890  0.9794
  150SAPE  C21516592   5.640   4.167   7.617 -0.3912 -0.2281  0.4013
  150SAPE  H15R16593   5.691   4.186   7.713  0.5093 -1.8884  0.2883
  150SAPE  C21616594   5.623   4.024   7.591 -0.3125 -0.2079 -0.3281
  150SAPE  H16R16595   5.595   4.005   7.485  1.2145 -2.7095 -0.3669
  150SAPE  H16S16596   5.542   3.978   7.652 -1.0079  0.0956 -1.0100
  150SAPE  C21716597   5.750   3.945   7.630 -0.9084  0.2527 -0.9267
  150SAPE  H17R16598   5.834   3.997   7.580 -0.9108 -0.4108 -1.6205
  150SAPE  H17S16599   5.745   3.839   7.598 -0.1241 -0.5952  1.5325
  150SAPE  C21816600   5.779   3.953   7.784  0.1040  0.5287  0.6710
  150SAPE  H18R16601   5.711   3.883   7.837  0.6059 -0.5428 -0.0646
  150SAPE  H18S16602   5.766   4.057   7.820  0.3808  0.0758  2.1470
  150SAPE  C21916603   5.929   3.922   7.814  0.1415 -0.0360  0.2294
  150SAPE  H19R16604   5.991   3.983   7.745 -1.6392  0.5423 -0.9209
  150SAPE  H19S16605   5.958   3.815   7.807  0.7287  0.1242  0.1831
  150SAPE  C22016606   5.966   3.954   7.960 -0.7005  0.1326 -0.4299
  150SAPE  H20R16607   5.966   4.065   7.974  2.1996  0.2519 -0.8768
  150SAPE  H20S16608   6.065   3.914   7.988 -0.6972  1.7069  2.1932
  150SAPE  H20T16609   5.880   3.914   8.018 -0.9500  0.6439 -0.4330
  150SAPE   C3316610   5.173   4.341   7.080  0.3426  0.5462  0.4424
  150SAPE   H3X16611   5.103   4.427   7.077  0.9897  1.0417 -1.1089
  150SAPE   H3Y16612   5.275   4.383   7.064  0.6925 -0.7998 -1.0427
  150SAPE   C3416613   5.150   4.275   7.211  0.4504  0.0898 -0.3538
  150SAPE   H4X16614   5.220   4.189   7.207 -0.1890 -0.4104 -2.4792
  150SAPE   H4Y16615   5.050   4.227   7.220  0.9173 -0.7165  0.6643
  150SAPE   C3516616   5.183   4.363   7.338  0.2130  0.9853  0.4296
  150SAPE   H5X16617   5.107   4.444   7.347  1.0592  1.6551  1.8231
  150SAPE   H5Y16618   5.278   4.417   7.323  2.4100 -2.7462 -0.4640
  150SAPE   C3616619   5.190   4.284   7.464  0.0390 -0.2903 -0.3685
  150SAPE   H6X16620   5.253   4.193   7.468 -1.2942 -1.2652 -0.7640
  150SAPE   H6Y16621   5.087   4.260   7.499  1.0236 -2.9178  0.9981
  150SAPE   C3716622   5.236   4.375   7.582 -0.3771 -0.5789  0.2512
  150SAPE   H7X16623   5.212   4.481   7.558  1.7403 -0.4354 -1.6025
  150SAPE   H7Y16624   5.347   4.364   7.589 -0.2754 -0.2862 -0.7728
  150SAPE   C3816625   5.171   4.345   7.716 -0.3697 -0.2440 -0.7866
  150SAPE   H8X16626   5.176   4.238   7.747  0.0701  0.3221  1.2454
  150SAPE   H8Y16627   5.066   4.380   7.731 -0.0961 -0.1057  1.1042
  150SAPE   C3916628   5.239   4.414   7.842  0.2505  0.4100 -0.2294
  150SAPE   H9X16629   5.181   4.392   7.934 -0.3163  0.2682 -0.6166
  150SAPE   H9Y16630   5.254   4.524   7.833  2.7756  0.1526 -0.1187
  150SAPE  C31016631   5.384   4.369   7.868  0.1888  0.0463  0.3332
  150SAPE  H10X16632   5.448   4.449   7.825 -0.1069 -0.2236 -0.6382
  150SAPE  H10Y16633   5.395   4.271   7.816  1.6207  0.3349  0.0581
  150SAPE  C31116634   5.417   4.339   8.016 -0.3049  0.3197  0.1010
  150SAPE  H11X16635   5.348   4.262   8.057 -0.2204 -0.2866 -0.8602
  150SAPE  H11Y16636   5.409   4.432   8.077  0.3436  1.8193 -1.9600
  150SAPE  C31216637   5.561   4.279   8.027  0.0056 -0.1590  0.6070
  150SAPE  H12X16638   5.643   4.346   7.992  0.3363 -0.7260  0.2870
  150SAPE  H12Y16639   5.550   4.193   7.958  0.0200 -2.1863  2.9888
  150SAPE  C31316640   5.589   4.220   8.164  0.0122  0.3108  0.2543
  150SAPE  H13X16641   5.499   4.168   8.203 -0.2020  1.6341  1.5922
  150SAPE  H13Y16642   5.621   4.298   8.237  3.0601 -0.5656  0.0125
  150SAPE  C31416643   5.709   4.124   8.155  0.4724  0.5446 -0.1739
  150SAPE  H14X16644   5.790   4.188   8.114  0.7738 -0.2819 -0.9155
  150SAPE  H14Y16645   5.710   4.057   8.067  2.4050  0.0109  0.2056
  150SAPE  C31516646   5.742   4.047   8.280  0.2586 -0.2013 -0.0398
  150SAPE  H15X16647   5.835   3.992   8.252 -0.7755 -1.2244 -1.6297
  150SAPE  H15Y16648   5.668   3.977   8.324 -0.4995  1.5388  1.6137
  150SAPE  C31616649   5.788   4.145   8.391  1.1036 -0.0089 -0.4311
  150SAPE  H16X16650   5.702   4.201   8.434 -0.0569 -1.7061 -0.4405
  150SAPE  H16Y16651   5.857   4.216   8.341 -0.4597  0.3983 -2.1266
  150SAPE  C31716652   5.865   4.076   8.506 -0.1256  0.1950 -0.1641
  150SAPE  H17X16653   5.795   4.025   8.575  1.2638  0.4359  1.4738
  150SAPE  H17Y16654   5.903   4.164   8.562  0.1554 -0.1852  0.2483
  150SAPE  C31816655   5.993   3.990   8.473  0.8667 -0.0629  0.7376
  150SAPE  H18X16656   6.063   3.974   8.558 -0.0017 -1.8503  1.1730
  150SAPE  H18Y16657   6.046   4.019   8.380 -0.6523 -0.9383 -0.4457
  150SAPE  H18Z16658   5.951   3.888   8.459 -0.9324  0.6149  0.9342
  151SAPE     N16659   6.599   2.061   6.153 -0.1142 -0.0040 -0.1108
  151SAPE   HN116660   6.683   2.016   6.196  0.0157  0.9258  0.6534
  151SAPE   HN216661   6.515   2.002   6.169  0.2892 -0.6109 -0.2066
  151SAPE   HN316662   6.614   2.086   6.053 -1.2263  0.7603 -0.0988
  151SAPE   C1216663   6.574   2.178   6.233 -0.4551 -0.9375  1.0007
  151SAPE  H12A16664   6.570   2.161   6.343 -1.8915  0.0015  1.1093
  151SAPE  H12B16665   6.479   2.221   6.197  0.5795 -0.3150 -1.1491
  151SAPE   C1116666   6.681   2.290   6.207 -0.9979  0.6348  0.6141
  151SAPE  H11A16667   6.640   2.376   6.264  0.8129  1.7711  0.3023
  151SAPE  H11B16668   6.683   2.319   6.100  1.2432 -1.6140 -0.0696
  151SAPE     P16669   6.920   2.357   6.299 -0.0528 -0.0757 -0.0313
  151SAPE   O1316670   7.050   2.297   6.281  0.1216  0.2466 -0.2038
  151SAPE   O1416671   6.893   2.484   6.235  0.0111 -0.6928  0.4155
  151SAPE   O1216672   6.814   2.255   6.249  0.2494 -0.4095 -0.2513
  151SAPE   O1116673   6.892   2.372   6.459  0.0388  0.3693  0.0998
  151SAPE    C116674   6.855   2.254   6.533  0.6406 -0.2471 -0.2676
  151SAPE    HA16675   6.744   2.255   6.534  0.5560  3.1542 -1.1350
  151SAPE    HB16676   6.889   2.164   6.478  1.9371 -0.3744  0.7019
  151SAPE    C216677   6.897   2.261   6.684  0.3731  0.2326 -0.0241
  151SAPE    HS16678   7.007   2.253   6.673  0.8354  1.8689  2.4238
  151SAPE   O2116679   6.844   2.157   6.767 -0.1128  0.1793 -0.1214
  151SAPE   C2116680   6.903   2.037   6.752  0.2901  0.3069 -0.4416
  151SAPE   O2216681   6.989   2.006   6.667 -0.0834 -0.4335  0.0717
  151SAPE   C2216682   6.842   1.940   6.857 -0.1542  0.3934 -0.0931
  151SAPE   H2R16683   6.826   2.003   6.947  2.0535  0.9660 -0.0335
  151SAPE   H2S16684   6.753   1.897   6.807  0.7006 -1.6075  0.0396
  151SAPE    C316685   6.851   2.403   6.739 -0.2553  0.3395  0.2232
  151SAPE    HX16686   6.744   2.421   6.715 -0.5622 -0.0349  1.2703
  151SAPE    HY16687   6.900   2.477   6.672  0.8398  3.2244  3.8863
  151SAPE   O3116688   6.901   2.420   6.871  0.1863  0.0340 -0.3541
  151SAPE   C3116689   6.804   2.424   6.959  0.2761  0.0511  0.2726
  151SAPE   O3216690   6.684   2.418   6.931 -0.0805  0.6270 -0.0155
  151SAPE   C3216691   6.863   2.433   7.096  0.0174  0.1927  0.0355
  151SAPE   H2X16692   6.894   2.539   7.102  0.3826  0.0607  0.5299
  151SAPE   H2Y16693   6.948   2.365   7.120 -0.6196  0.2489  2.7290
  151SAPE   C2316694   6.933   1.816   6.897  0.4043 -0.6268 -0.0994
  151SAPE   H3R16695   7.037   1.835   6.863 -0.0886  0.2074 -1.2028
  151SAPE   H3S16696   6.904   1.719   6.852  0.4800 -0.5246 -0.3755
  151SAPE   C2416697   6.951   1.794   7.051 -0.5470 -0.5342 -0.3104
  151SAPE   H4R16698   6.981   1.888   7.103 -0.8795 -0.2437 -0.6386
  151SAPE   H4S16699   7.038   1.728   7.070 -0.3367 -0.0742  0.3723
  151SAPE   C2516700   6.827   1.733   7.111  0.2674 -0.7316  0.1567
  151SAPE   H5R16701   6.801   1.638   7.062 -1.0523 -0.6228  0.6095
  151SAPE   C2616702   6.750   1.771   7.209  0.1129 -0.6176 -0.6242
  151SAPE   H6R16703   6.648   1.734   7.226 -0.3452  0.4545 -0.9378
  151SAPE   C2716704   6.766   1.909   7.283 -0.0516 -0.2121  0.0892
  151SAPE   H7R16705   6.836   1.983   7.239 -1.7952  0.5338 -1.6057
  151SAPE   H7S16706   6.820   1.892   7.379  1.7796  0.2766 -0.8094
  151SAPE   C2816707   6.633   1.983   7.295 -0.7532 -0.5567 -0.0870
  151SAPE   H8R16708   6.581   2.004   7.200 -2.0252 -0.8988  0.5173
  151SAPE   C2916709   6.573   2.018   7.407  0.3304  0.3862 -0.2052
  151SAPE   H9R16710   6.480   2.078   7.411  1.1774  1.7197  2.2500
  151SAPE  C21016711   6.629   1.983   7.540 -0.1697 -0.1464  0.0237
  151SAPE  H10R16712   6.674   1.881   7.544 -0.5987 -0.3686 -0.7351
  151SAPE  H10S16713   6.545   1.972   7.612  0.4389 -0.5010  0.7037
  151SAPE  C21116714   6.727   2.078   7.600 -0.3914  0.4882 -0.1187
  151SAPE  H11R16715   6.811   2.116   7.540 -1.4521  3.0115 -0.1422
  151SAPE  C21216716   6.742   2.134   7.721 -0.1754  0.2012 -0.6625
  151SAPE  H12R16717   6.816   2.215   7.732  0.2320 -0.4291  2.2516
  151SAPE  C21316718   6.657   2.105   7.845  0.0269 -0.5187 -0.1474
  151SAPE  H13R16719   6.584   2.023   7.832 -0.9795  0.4196 -0.5539
  151SAPE  H13S16720   6.603   2.198   7.875  0.2007  0.0996 -1.6578
  151SAPE  C21416721   6.748   2.047   7.953 -0.0774  0.1305  0.1536
  151SAPE  H14R16722   6.807   1.960   7.921 -1.7957 -1.1519  0.3459
  151SAPE  C21516723   6.757   2.094   8.081 -0.4892 -0.3033  0.5040
  151SAPE  H15R16724   6.821   2.037   8.149 -0.6179  1.1801  1.9421
  151SAPE  C21616725   6.686   2.215   8.142  0.0659 -0.1840 -0.2231
  151SAPE  H16R16726   6.587   2.199   8.190 -0.2796  0.6615 -0.6368
  151SAPE  H16S16727   6.676   2.289   8.059 -0.3102 -1.1268 -1.0404
  151SAPE  C21716728   6.801   2.274   8.238 -0.2113  0.5771 -0.1996
  151SAPE  H17R16729   6.793   2.383   8.261  0.0697  0.6197 -0.3012
  151SAPE  H17S16730   6.899   2.264   8.186  0.7219  0.6709  1.4870
  151SAPE  C21816731   6.807   2.198   8.375  0.0453 -0.6078  0.3094
  151SAPE  H18R16732   6.709   2.147   8.388 -0.9649  0.8252 -1.3087
  151SAPE  H18S16733   6.818   2.276   8.453 -0.8726 -1.1286  0.9895
  151SAPE  C21916734   6.932   2.109   8.383 -0.9160  0.4563 -0.6126
  151SAPE  H19R16735   7.020   2.156   8.334 -0.6786  2.4715  1.5507
  151SAPE  H19S16736   6.914   2.010   8.336  2.7753  0.2316 -1.8505
  151SAPE  C22016737   6.976   2.098   8.530  0.0315  0.2633 -0.0991
  151SAPE  H20R16738   7.072   2.041   8.529  0.0197  0.1671  1.7698
  151SAPE  H20S16739   7.001   2.198   8.570 -0.0187  0.1479  0.2216
  151SAPE  H20T16740   6.902   2.047   8.595  0.9524 -0.3836  0.4819
  151SAPE   C3316741   6.759   2.399   7.201 -0.0916  0.5142  0.0878
  151SAPE   H3X16742   6.738   2.290   7.195 -0.5685  0.5213  1.4646
  151SAPE   H3Y16743   6.659   2.447   7.188 -1.8757 -2.7329  0.8238
  151SAPE   C3416744   6.805   2.421   7.345  0.3208  0.5361  0.6985
  151SAPE   H4X16745   6.892   2.357   7.373 -1.0006 -1.3162  0.8108
  151SAPE   H4Y16746   6.721   2.382   7.406 -1.5829 -0.2480 -2.2159
  151SAPE   C3516747   6.838   2.567   7.383 -0.8032 -0.4338 -0.7771
  151SAPE   H5X16748   6.747   2.630   7.387 -0.6099 -0.2206  1.3515
  151SAPE   H5Y16749   6.915   2.603   7.311  0.1280 -1.9597 -0.5934
  151SAPE   C3616750   6.902   2.578   7.525 -0.2276  0.1085 -0.1281
  151SAPE   H6X16751   6.919   2.687   7.540 -0.8075  0.2140 -0.2019
  151SAPE   H6Y16752   7.006   2.547   7.549  1.1116  2.1627 -2.6637
  151SAPE   C3716753   6.800   2.533   7.633  0.6160  0.1131 -0.0175
  151SAPE   H7X16754   6.802   2.422   7.642 -1.1143  0.1619  1.6165
  151SAPE   H7Y16755   6.704   2.569   7.591 -0.2754 -1.3581  0.6644
  151SAPE   C3816756   6.836   2.571   7.777 -0.1475 -0.3773 -0.6177
  151SAPE   H8X16757   6.761   2.519   7.841  0.6871 -2.2044 -1.0347
  151SAPE   H8Y16758   6.835   2.681   7.789 -0.6448 -0.6353  2.4951
  151SAPE   C3916759   6.971   2.514   7.820 -0.2651 -0.0585  1.2606
  151SAPE   H9X16760   7.047   2.564   7.757 -1.8623  0.1696 -0.5762
  151SAPE   H9Y16761   6.978   2.405   7.797 -0.3127  0.4996 -1.7583
  151SAPE  C31016762   7.012   2.538   7.965  0.5999  0.5961  0.0657
  151SAPE  H10X16763   6.947   2.468   8.021 -0.2232 -1.0540 -2.7439
  151SAPE  H10Y16764   6.994   2.645   7.991 -0.8912  0.1645  0.9331
  151SAPE  C31116765   7.165   2.494   7.988 -0.1167  0.1505  0.2912
  151SAPE  H11X16766   7.217   2.547   7.905  0.9308 -1.0205  0.1621
  151SAPE  H11Y16767   7.181   2.384   7.988  2.7332  0.4884 -0.4259
  151SAPE  C31216768   7.232   2.553   8.108 -0.9356  0.2558 -0.5223
  151SAPE  H12X16769   7.242   2.664   8.102  0.9209  0.4779  3.2853
  151SAPE  H12Y16770   7.336   2.515   8.116 -0.6522  1.0142 -0.4621
  151SAPE  C31316771   7.164   2.527   8.244 -0.6629 -0.6816 -0.3107
  151SAPE  H13X16772   7.161   2.417   8.251 -1.8256 -0.6753 -0.6352
  151SAPE  H13Y16773   7.067   2.580   8.248  0.9040  2.4041  0.3269
  151SAPE  C31416774   7.236   2.584   8.370  0.3263 -0.3287 -0.3138
  151SAPE  H14X16775   7.236   2.695   8.366  2.7811 -0.2694 -0.0185
  151SAPE  H14Y16776   7.341   2.549   8.367  0.0252 -1.3220  0.3071
  151SAPE  C31516777   7.159   2.545   8.499  0.0863 -0.2360  0.4422
  151SAPE  H15X16778   7.129   2.439   8.485 -1.4216 -0.1918  2.7869
  151SAPE  H15Y16779   7.069   2.610   8.506  0.6789  0.9274 -1.7067
  151SAPE  C31616780   7.252   2.537   8.629  0.3585  0.1229  0.2502
  151SAPE  H16X16781   7.264   2.644   8.657 -0.6862  0.1486  0.6436
  151SAPE  H16Y16782   7.351   2.498   8.597  0.0608 -1.7002  1.3903
  151SAPE  C31716783   7.182   2.455   8.742  0.4129 -0.0357  0.4154
  151SAPE  H17X16784   7.175   2.345   8.723 -2.4637 -0.3536  2.5147
  151SAPE  H17Y16785   7.078   2.494   8.737  0.0699 -0.3024  3.5846
  151SAPE  C31816786   7.243   2.471   8.884 -0.5461 -0.3241  0.7185
  151SAPE  H18X16787   7.207   2.392   8.954 -1.0364 -0.5270  0.2473
  151SAPE  H18Y16788   7.226   2.576   8.914  4.8512  2.3303 -3.8145
  151SAPE  H18Z16789   7.352   2.454   8.876 -0.4606  0.2432  0.7061
  152SAPE     N16790   3.284   6.239   6.182  0.7336  0.1612 -0.2352
  152SAPE   HN116791   3.225   6.167   6.137 -0.1490  0.9619 -0.3764
  152SAPE   HN216792   3.231   6.328   6.191  0.6699  0.1920 -0.9106
  152SAPE   HN316793   3.364   6.265   6.120  0.1878  1.4588 -0.4220
  152SAPE   C1216794   3.329   6.201   6.320  0.4290  0.3915 -0.0724
  152SAPE  H12A16795   3.366   6.097   6.312  2.0318  1.0442 -2.0720
  152SAPE  H12B16796   3.238   6.191   6.383  0.4040  1.4991  0.0871
  152SAPE   C1116797   3.426   6.295   6.377 -0.7429 -0.3269 -0.1674
  152SAPE  H11A16798   3.460   6.257   6.476  1.6483  1.4287 -0.2384
  152SAPE  H11B16799   3.390   6.393   6.415  0.0522  1.0371 -2.7197
  152SAPE     P16800   3.678   6.246   6.294 -0.1759  0.0131 -0.0982
  152SAPE   O1316801   3.668   6.104   6.255  0.0495 -0.4237  0.4500
  152SAPE   O1416802   3.792   6.325   6.243 -0.0555 -0.2993  0.1367
  152SAPE   O1216803   3.535   6.325   6.283 -1.3615 -0.3844  0.1074
  152SAPE   O1116804   3.694   6.249   6.454  0.3824  0.2688 -0.0873
  152SAPE    C116805   3.779   6.156   6.530  0.5680  0.6773  0.1027
  152SAPE    HA16806   3.716   6.070   6.562 -1.0051  1.4450 -0.8209
  152SAPE    HB16807   3.865   6.121   6.468 -0.0608  1.0366 -0.9979
  152SAPE    C216808   3.826   6.224   6.659 -0.1769  0.5097 -0.0020
  152SAPE    HS16809   3.895   6.311   6.656 -1.0243  1.5830  4.3445
  152SAPE   O2116810   3.885   6.134   6.756  0.0996 -0.0740  0.4112
  152SAPE   C2116811   4.003   6.079   6.732 -0.5731  0.7248 -0.0107
  152SAPE   O2216812   4.088   6.118   6.656 -0.7662  0.5524  0.9212
  152SAPE   C2216813   4.020   5.953   6.813 -0.5093 -0.6348 -0.3514
  152SAPE   H2R16814   3.961   5.869   6.771 -0.7393 -0.8978  0.4682
  152SAPE   H2S16815   4.126   5.926   6.798 -0.1081  1.1247 -0.9923
  152SAPE    C316816   3.705   6.293   6.724 -0.3416  0.3093  0.1964
  152SAPE    HX16817   3.631   6.210   6.733 -2.0631  1.5781 -1.4374
  152SAPE    HY16818   3.670   6.373   6.655  0.6770  3.1611  2.7805
  152SAPE   O3116819   3.736   6.358   6.847 -0.4261  0.1260 -0.2045
  152SAPE   C3116820   3.627   6.380   6.924 -0.2116  0.2125 -0.9757
  152SAPE   O3216821   3.513   6.341   6.898 -0.9569 -0.1999  0.4058
  152SAPE   C3216822   3.649   6.464   7.054  0.4851  0.7790 -0.8504
  152SAPE   H2X16823   3.754   6.499   7.060  1.4888 -2.0794  2.4245
  152SAPE   H2Y16824   3.638   6.393   7.140  2.7744 -0.6400 -1.6237
  152SAPE   C2316825   4.004   5.975   6.966 -0.2056  0.3119 -0.1864
  152SAPE   H3R16826   4.022   5.886   7.031 -2.2740  0.4191  0.6179
  152SAPE   H3S16827   3.897   5.997   6.987 -0.3621 -2.2612  2.2481
  152SAPE   C2416828   4.082   6.098   7.026 -0.1797  0.3264  0.0787
  152SAPE   H4R16829   4.028   6.119   7.121  0.9425  1.1505  0.5456
  152SAPE   H4S16830   4.072   6.181   6.952  0.6151  0.0226 -0.3781
  152SAPE   C2516831   4.231   6.072   7.042  0.4869 -0.3043  0.0351
  152SAPE   H5R16832   4.285   6.044   6.950 -1.0278 -1.0386 -0.6516
  152SAPE   C2616833   4.302   6.076   7.155  1.1292  0.3696 -0.1848
  152SAPE   H6R16834   4.410   6.054   7.159  0.7583 -1.8197 -0.9648
  152SAPE   C2716835   4.247   6.104   7.296 -0.5393 -0.6099 -0.6450
  152SAPE   H7R16836   4.237   6.008   7.350  2.8428 -0.2052  0.9222
  152SAPE   H7S16837   4.145   6.150   7.294 -0.4735 -0.4771 -1.3308
  152SAPE   C2816838   4.355   6.184   7.372 -0.9109 -0.5023  0.7200
  152SAPE   H8R16839   4.410   6.251   7.304 -0.9770 -2.6799 -1.6411
  152SAPE   C2916840   4.389   6.175   7.504 -0.1456  0.2767  0.6870
  152SAPE   H9R16841   4.478   6.232   7.536 -0.5827  1.2853  0.1186
  152SAPE  C21016842   4.329   6.067   7.592 -0.6322 -0.1225  0.7009
  152SAPE  H10R16843   4.223   6.054   7.560  0.1711  0.1448 -2.4889
  152SAPE  H10S16844   4.319   6.119   7.690 -0.6302  1.4259 -0.0779
  152SAPE  C21116845   4.399   5.936   7.591 -0.1636  0.4581 -0.8775
  152SAPE  H11R16846   4.444   5.906   7.495  0.6633 -0.7133 -0.1497
  152SAPE  C21216847   4.412   5.845   7.691 -0.8183 -0.3538  0.7090
  152SAPE  H12R16848   4.486   5.767   7.669 -1.1939  0.1200 -2.7618
  152SAPE  C21316849   4.360   5.849   7.835  0.4985 -0.6106  0.0551
  152SAPE  H13R16850   4.321   5.952   7.849 -0.7417 -0.8744 -1.2056
  152SAPE  H13S16851   4.438   5.828   7.911  0.9374 -1.7539 -0.6791
  152SAPE  C21416852   4.248   5.755   7.860  0.2832  0.5142 -0.4561
  152SAPE  H14R16853   4.171   5.749   7.781  0.6982 -3.8532 -0.7592
  152SAPE  C21516854   4.240   5.671   7.965  0.2000  0.3313 -0.5683
  152SAPE  H15R16855   4.160   5.596   7.968 -3.0862  3.5727  0.7139
  152SAPE  C21616856   4.339   5.663   8.080 -0.0159  0.2551 -0.6935
  152SAPE  H16R16857   4.442   5.658   8.039  0.6394  1.8453  0.6917
  152SAPE  H16S16858   4.305   5.571   8.133  0.5345  0.0740 -0.6510
  152SAPE  C21716859   4.348   5.781   8.177 -0.0498 -0.1699 -0.0067
  152SAPE  H17R16860   4.249   5.829   8.196 -0.3302 -0.9171  0.4543
  152SAPE  H17S16861   4.410   5.862   8.132  1.4370 -0.4873  1.3885
  152SAPE  C21816862   4.414   5.739   8.308 -0.6463 -0.4095 -0.9169
  152SAPE  H18R16863   4.514   5.700   8.278  0.6005  1.0866  1.0506
  152SAPE  H18S16864   4.358   5.660   8.362 -2.9414  1.1258 -0.9365
  152SAPE  C21916865   4.434   5.854   8.406 -0.0424  0.5259 -0.1542
  152SAPE  H19R16866   4.343   5.895   8.454  1.6101  2.0151  1.9340
  152SAPE  H19S16867   4.491   5.942   8.367  3.4377  0.1971  3.4168
  152SAPE  C22016868   4.520   5.805   8.520  0.1862  0.5589  0.1072
  152SAPE  H20R16869   4.461   5.729   8.575 -3.1849  2.4283 -0.6627
  152SAPE  H20S16870   4.541   5.882   8.598  0.3486 -0.0552  0.6821
  152SAPE  H20T16871   4.614   5.758   8.485 -0.8869 -1.4372 -0.1885
  152SAPE   C3316872   3.557   6.584   7.085 -0.2027  0.1479 -0.3004
  152SAPE   H3X16873   3.450   6.552   7.088 -0.2779  0.4782  2.0058
  152SAPE   H3Y16874   3.556   6.662   7.006 -1.6281  0.9880  0.4953
  152SAPE   C3416875   3.588   6.640   7.226  0.2122  0.6672 -0.0997
  152SAPE   H4X16876   3.693   6.668   7.245  0.4747 -2.0515  3.5875
  152SAPE   H4Y16877   3.560   6.568   7.307 -1.8041  3.3467  1.7441
  152SAPE   C3516878   3.505   6.767   7.259  0.4176 -0.2692  0.0548
  152SAPE   H5X16879   3.402   6.729   7.277  0.7106 -0.3484  1.7123
  152SAPE   H5Y16880   3.498   6.824   7.164  1.7018 -0.5525 -0.2424
  152SAPE   C3616881   3.559   6.847   7.380 -0.5433 -0.4171 -0.4691
  152SAPE   H6X16882   3.480   6.925   7.386  0.6009  0.6803  1.1570
  152SAPE   H6Y16883   3.659   6.892   7.364  0.2185 -1.3170  1.4347
  152SAPE   C3716884   3.556   6.776   7.520 -0.6029  0.5060  0.1720
  152SAPE   H7X16885   3.572   6.855   7.596 -0.8022 -0.0646  0.8261
  152SAPE   H7Y16886   3.653   6.723   7.534 -1.5010 -1.0891  0.7457
  152SAPE   C3816887   3.434   6.699   7.557  1.0179  0.3730  0.5543
  152SAPE   H8X16888   3.394   6.632   7.478  0.2747  1.6370 -0.1754
  152SAPE   H8Y16889   3.351   6.772   7.573  0.4115  0.2461 -1.6761
  152SAPE   C3916890   3.440   6.621   7.692 -0.1978  0.7879 -0.3676
  152SAPE   H9X16891   3.539   6.571   7.689 -0.4097  0.3923 -2.6023
  152SAPE   H9Y16892   3.365   6.538   7.693 -0.3835  0.9331  1.3048
  152SAPE  C31016893   3.413   6.711   7.815 -0.4755  0.1299 -0.3318
  152SAPE  H10X16894   3.311   6.755   7.818  1.0020  3.9606  2.4735
  152SAPE  H10Y16895   3.486   6.795   7.821  0.3850 -0.6190 -0.1271
  152SAPE  C31116896   3.424   6.628   7.942 -0.2232  0.1356 -0.8277
  152SAPE  H11X16897   3.522   6.576   7.936 -0.5978 -0.8575  1.0769
  152SAPE  H11Y16898   3.343   6.552   7.930 -0.1844 -0.7218  3.1373
  152SAPE  C31216899   3.420   6.699   8.072 -0.6994 -0.0388  0.7179
  152SAPE  H12X16900   3.497   6.778   8.078  0.2965 -0.9798  0.5336
  152SAPE  H12Y16901   3.442   6.624   8.151 -1.7026 -1.3352 -0.2050
  152SAPE  C31316902   3.275   6.759   8.101  0.0032  0.7921  0.2691
  152SAPE  H13X16903   3.196   6.681   8.106 -0.3022  1.1031  0.3320
  152SAPE  H13Y16904   3.252   6.830   8.019 -0.7155 -2.4000 -2.5439
  152SAPE  C31416905   3.276   6.822   8.236  0.1002 -0.4069 -0.5050
  152SAPE  H14X16906   3.196   6.899   8.239  0.6321  0.1507  2.5987
  152SAPE  H14Y16907   3.368   6.883   8.251 -1.4669  2.1037 -0.5242
  152SAPE  C31516908   3.259   6.726   8.351  0.0483 -0.2388 -0.7412
  152SAPE  H15X16909   3.330   6.727   8.437 -0.8175 -2.0447  0.0594
  152SAPE  H15Y16910   3.281   6.623   8.315  0.2605 -2.0411  3.8623
  152SAPE  C31616911   3.110   6.716   8.400 -0.7605  0.2700  0.5406
  152SAPE  H16X16912   3.041   6.710   8.313 -0.5478 -2.4381  0.4930
  152SAPE  H16Y16913   3.079   6.814   8.443 -0.7230  0.5294 -0.0137
  152SAPE  C31716914   3.078   6.600   8.490  0.4205  0.1679 -0.7969
  152SAPE  H17X16915   3.051   6.512   8.428 -1.0274  0.9602 -1.3357
  152SAPE  H17Y16916   2.982   6.627   8.538  0.7306  1.8316 -1.0337
  152SAPE  C31816917   3.182   6.585   8.599 -1.1216 -0.1259  0.4120
  152SAPE  H18X16918   3.279   6.539   8.571 -2.4257 -2.2733 -0.9545
  152SAPE  H18Y16919   3.151   6.526   8.688  1.5635 -1.9048  0.2900
  152SAPE  H18Z16920   3.207   6.687   8.635 -0.8039 -0.1139  0.1590
  153SAPE     N16921   0.937   5.835   5.988  0.4933 -0.5717 -0.6552
  153SAPE   HN116922   0.876   5.909   5.948 -1.3554 -2.1852 -0.9559
  153SAPE   HN216923   1.031   5.832   5.944  0.2491 -1.1351 -1.1509
  153SAPE   HN316924   0.888   5.745   5.968 -1.1503 -0.2805  1.6688
  153SAPE   C1216925   0.959   5.858   6.133  0.4757  0.7302 -0.4929
  153SAPE  H12A16926   0.863   5.858   6.189 -0.7285  1.5957 -2.4696
  153SAPE  H12B16927   1.001   5.961   6.139  2.6263 -0.1333  0.8473
  153SAPE   C1116928   1.064   5.753   6.196 -0.4058 -0.0321 -0.6144
  153SAPE  H11A16929   1.072   5.770   6.305 -2.4807  0.8018 -0.5307
  153SAPE  H11B16930   1.164   5.773   6.152  0.8852 -1.1530  1.6663
  153SAPE     P16931   0.907   5.544   6.254  0.0443  0.1905  0.3265
  153SAPE   O1316932   0.793   5.642   6.240 -0.0128  0.6162 -0.1929
  153SAPE   O1416933   0.884   5.405   6.205 -0.0002  0.3824 -0.0777
  153SAPE   O1216934   1.026   5.617   6.172 -0.0994 -0.0344 -0.4084
  153SAPE   O1116935   0.958   5.542   6.406  0.0066 -0.5981  0.0913
  153SAPE    C116936   1.088   5.501   6.450  0.8152 -0.1184  0.3674
  153SAPE    HA16937   1.165   5.506   6.369  0.4591 -0.6957 -0.0153
  153SAPE    HB16938   1.130   5.573   6.523  2.6691  0.2356 -0.9532
  153SAPE    C216939   1.082   5.358   6.512  0.2518  0.1119 -0.5168
  153SAPE    HS16940   1.022   5.291   6.447 -0.3385 -1.3499  1.4359
  153SAPE   O2116941   1.046   5.357   6.647  0.1086 -0.3815  0.1256
  153SAPE   C2116942   0.917   5.390   6.691  0.0205  0.3016 -0.4407
  153SAPE   O2216943   0.823   5.399   6.615  0.1406 -0.0615  0.1110
  153SAPE   C2216944   0.918   5.386   6.847  0.5634  0.1292 -0.3646
  153SAPE   H2R16945   0.929   5.276   6.863  0.7587  0.1032 -0.6718
  153SAPE   H2S16946   1.008   5.435   6.890  2.2887 -1.0927 -2.3965
  153SAPE    C316947   1.227   5.282   6.506  0.9172  0.3912 -0.0977
  153SAPE    HX16948   1.276   5.290   6.406 -1.6036 -0.4315 -1.4912
  153SAPE    HY16949   1.209   5.176   6.534 -2.3695  1.3837  2.1349
  153SAPE   O3116950   1.307   5.351   6.603  0.2690 -0.7652  0.2313
  153SAPE   C3116951   1.330   5.284   6.715 -0.2108  0.2150  0.4907
  153SAPE   O3216952   1.303   5.168   6.734 -0.5866  0.1934 -0.9071
  153SAPE   C3216953   1.383   5.378   6.825  0.3965 -1.3645  0.6508
  153SAPE   H2X16954   1.299   5.443   6.858  1.0659 -0.9965  1.6614
  153SAPE   H2Y16955   1.466   5.438   6.781  0.1592 -1.9433 -0.6286
  153SAPE   C2316956   0.781   5.444   6.889  0.0738 -0.1113 -0.0017
  153SAPE   H3R16957   0.693   5.388   6.850  0.2010  0.0913 -0.5850
  153SAPE   H3S16958   0.776   5.549   6.856 -0.4118 -0.7427 -2.0976
  153SAPE   C2416959   0.766   5.433   7.046  0.2812  0.7016 -0.0087
  153SAPE   H4R16960   0.670   5.479   7.079 -1.8482 -2.7942 -0.8727
  153SAPE   H4S16961   0.848   5.489   7.096 -0.8325  0.8749  1.7297
  153SAPE   C2516962   0.767   5.295   7.100  0.6734 -0.3819  1.3617
  153SAPE   H5R16963   0.744   5.213   7.031 -1.1158  0.1701  1.2532
  153SAPE   C2616964   0.797   5.255   7.229  0.7712 -0.0223  0.0948
  153SAPE   H6R16965   0.784   5.148   7.252 -5.7693  0.6618  1.5831
  153SAPE   C2716966   0.840   5.333   7.352 -0.3378  0.8085  0.2983
  153SAPE   H7R16967   0.908   5.411   7.311  0.0537 -0.6410 -1.9953
  153SAPE   H7S16968   0.907   5.269   7.414  0.5964  1.9346  0.4880
  153SAPE   C2816969   0.734   5.390   7.438 -0.1659 -0.5257  1.0421
  153SAPE   H8R16970   0.667   5.464   7.393  2.2257  1.5738  0.7185
  153SAPE   C2916971   0.712   5.376   7.571  0.4841  0.1266  0.6154
  153SAPE   H9R16972   0.626   5.436   7.603 -0.1302  1.1083 -2.5559
  153SAPE  C21016973   0.796   5.295   7.675 -0.0845  0.5730  0.3027
  153SAPE  H10R16974   0.851   5.361   7.746 -2.6807  1.2508  1.7844
  153SAPE  H10S16975   0.883   5.249   7.622  0.4131  1.8071  0.0194
  153SAPE  C21116976   0.710   5.196   7.754  0.2262  0.2734  0.1538
  153SAPE  H11R16977   0.704   5.092   7.716 -3.1142 -0.1693  1.5917
  153SAPE  C21216978   0.633   5.228   7.861  0.5134 -0.0244  0.3830
  153SAPE  H12R16979   0.582   5.140   7.905  0.8022 -1.9340 -2.7818
  153SAPE  C21316980   0.630   5.372   7.910  0.6791  0.1178  0.6576
  153SAPE  H13R16981   0.574   5.435   7.837  0.9866  0.6690  0.8944
  153SAPE  H13S16982   0.738   5.398   7.906  0.8629 -0.5164  1.2249
  153SAPE  C21416983   0.553   5.389   8.044 -0.3759  0.8320  0.8189
  153SAPE  H14R16984   0.446   5.375   8.024  0.0748 -1.9800 -0.0278
  153SAPE  C21516985   0.606   5.412   8.168 -0.2351  0.6275  0.1446
  153SAPE  H15R16986   0.538   5.423   8.254 -0.2833  0.3699  0.1415
  153SAPE  C21616987   0.756   5.425   8.203 -0.1091  0.6100  0.4861
  153SAPE  H16R16988   0.833   5.403   8.126 -0.3580  0.7495  0.1971
  153SAPE  H16S16989   0.778   5.358   8.289  1.7316  0.6632  0.0925
  153SAPE  C21716990   0.776   5.566   8.255 -0.1029 -1.1199  0.1871
  153SAPE  H17R16991   0.879   5.577   8.295  1.0065 -0.6730 -2.5622
  153SAPE  H17S16992   0.701   5.589   8.334 -0.9403  1.9306 -1.3668
  153SAPE  C21816993   0.775   5.667   8.140 -1.2933 -1.3489 -0.0271
  153SAPE  H18R16994   0.668   5.687   8.118 -0.8846 -0.8624 -1.7639
  153SAPE  H18S16995   0.815   5.628   8.043  1.1601  4.5184 -1.8162
  153SAPE  C21916996   0.856   5.795   8.158 -0.5757 -0.3590 -0.4361
  153SAPE  H19R16997   0.853   5.855   8.064 -0.0875  2.1759  1.0806
  153SAPE  H19S16998   0.964   5.767   8.162 -0.8411 -1.3685  0.0197
  153SAPE  C22016999   0.819   5.880   8.282  0.0021  0.0836 -0.2716
  153SAPE  H20R17000   0.811   5.819   8.374 -0.5676  1.4086  0.5920
  153SAPE  H20S17001   0.722   5.933   8.267 -0.5606 -0.7063  0.5174
  153SAPE  H20T17002   0.891   5.962   8.302 -1.6783  0.9797  2.5942
  153SAPE   C3317003   1.441   5.304   6.946  0.2011  0.4120  0.2927
  153SAPE   H3X17004   1.517   5.236   6.903  0.6988  1.2099 -0.0959
  153SAPE   H3Y17005   1.351   5.248   6.982 -0.4065  0.0767 -1.6218
  153SAPE   C3417006   1.498   5.397   7.050  0.0308  1.0057  0.2338
  153SAPE   H4X17007   1.592   5.433   7.004  1.2728 -2.2132 -0.0021
  153SAPE   H4Y17008   1.538   5.331   7.131 -0.2703  1.1818  0.5318
  153SAPE   C3517009   1.400   5.504   7.108  0.1679 -0.1677 -0.5255
  153SAPE   H5X17010   1.369   5.578   7.032  0.2837  0.3783 -0.0432
  153SAPE   H5Y17011   1.450   5.563   7.188 -1.1347  0.0695  0.1346
  153SAPE   C3617012   1.268   5.445   7.171 -0.0299 -0.6554  0.4403
  153SAPE   H6X17013   1.215   5.389   7.092  2.0209 -0.4707 -1.1433
  153SAPE   H6Y17014   1.196   5.525   7.200 -0.0408 -0.5155  0.0316
  153SAPE   C3717015   1.287   5.349   7.286  0.3076  0.1847  0.4944
  153SAPE   H7X17016   1.361   5.272   7.256  0.6686  0.1273  1.5001
  153SAPE   H7Y17017   1.195   5.287   7.293 -0.9379  1.6239 -1.9028
  153SAPE   C3817018   1.340   5.408   7.417 -0.2234 -0.0890 -0.3563
  153SAPE   H8X17019   1.262   5.468   7.469  0.0518 -1.5247  1.8935
  153SAPE   H8Y17020   1.429   5.472   7.401 -0.7997  0.9931  0.6314
  153SAPE   C3917021   1.380   5.298   7.520  0.0328  0.0035 -0.0073
  153SAPE   H9X17022   1.480   5.258   7.491 -0.1450 -0.4210 -0.0398
  153SAPE   H9Y17023   1.310   5.212   7.512  0.5539 -0.6029  1.5008
  153SAPE  C31017024   1.366   5.342   7.667  0.3683  0.5417 -0.4493
  153SAPE  H10X17025   1.257   5.348   7.690  0.3016 -2.0713  0.2235
  153SAPE  H10Y17026   1.419   5.436   7.693  1.7672 -0.5890  0.9961
  153SAPE  C31117027   1.434   5.242   7.761 -0.2729  0.5345 -0.2214
  153SAPE  H11X17028   1.542   5.261   7.741 -0.2600 -0.1475 -0.8614
  153SAPE  H11Y17029   1.392   5.145   7.725 -0.8036  1.2564 -1.6276
  153SAPE  C31217030   1.400   5.282   7.905 -0.2492  0.2621  0.4427
  153SAPE  H12X17031   1.391   5.393   7.912  3.6637  0.6408  1.6147
  153SAPE  H12Y17032   1.488   5.251   7.965 -1.6896  0.0686  2.6075
  153SAPE  C31317033   1.279   5.215   7.961  0.3134 -0.5190 -0.5245
  153SAPE  H13X17034   1.285   5.104   7.966 -0.8234 -0.5722  0.1482
  153SAPE  H13Y17035   1.192   5.235   7.896  0.2751 -1.7558 -0.8806
  153SAPE  C31417036   1.255   5.266   8.109  0.8469  0.7747 -0.2695
  153SAPE  H14X17037   1.255   5.377   8.112 -2.7453  0.8849 -0.3017
  153SAPE  H14Y17038   1.335   5.222   8.172 -0.8707  0.7910  2.0151
  153SAPE  C31517039   1.114   5.204   8.145 -0.8072 -0.0494 -0.5836
  153SAPE  H15X17040   1.119   5.096   8.120 -0.5096 -0.3309  0.6384
  153SAPE  H15Y17041   1.038   5.236   8.070 -4.2019 -1.7255  1.8995
  153SAPE  C31617042   1.071   5.229   8.289 -0.0034  0.0945  0.9119
  153SAPE  H16X17043   1.120   5.162   8.363  0.1110  0.3312  1.0504
  153SAPE  H16Y17044   0.961   5.214   8.300  0.0484 -0.2933  0.9256
  153SAPE  C31717045   1.097   5.362   8.348 -0.2081  0.4363  0.0930
  153SAPE  H17X17046   1.043   5.438   8.287  0.5278  2.1270  1.4728
  153SAPE  H17Y17047   1.205   5.384   8.333  0.1693 -0.4647  1.3792
  153SAPE  C31817048   1.055   5.377   8.491  0.1303 -0.0844 -0.6432
  153SAPE  H18X17049   1.125   5.313   8.549  0.3687  0.8194  0.0752
  153SAPE  H18Y17050   0.955   5.327   8.498  0.5232 -0.7028  0.9889
  153SAPE  H18Z17051   1.061   5.480   8.531 -1.1540 -0.5221  0.7840
  154SAPE     N17052   5.680   5.850   6.113  0.5120 -0.1240 -0.4741
  154SAPE   HN117053   5.641   5.856   6.016 -0.3107 -1.0346 -0.2127
  154SAPE   HN217054   5.714   5.948   6.124 -1.8313  0.9742 -2.1224
  154SAPE   HN317055   5.759   5.783   6.123  1.0258  0.7021  1.3297
  154SAPE   C1217056   5.571   5.813   6.213 -0.7815 -0.6385  0.9385
  154SAPE  H12A17057   5.530   5.710   6.204 -0.6887 -0.4572 -2.6474
  154SAPE  H12B17058   5.484   5.868   6.170 -0.0406 -0.8356 -0.8860
  154SAPE   C1117059   5.605   5.853   6.359  0.5941  0.4633  0.1376
  154SAPE  H11A17060   5.684   5.788   6.403 -1.7103 -1.8329  1.2115
  154SAPE  H11B17061   5.509   5.829   6.410  0.8298 -0.7445  0.0566
  154SAPE     P17062   5.781   6.023   6.413  0.1076  0.2293 -0.1170
  154SAPE   O1317063   5.877   5.965   6.311 -0.6742 -0.2197 -0.1817
  154SAPE   O1417064   5.776   6.169   6.430  0.5231 -0.8600  0.0433
  154SAPE   O1217065   5.635   5.983   6.369 -0.4665  0.1243  0.1083
  154SAPE   O1117066   5.806   5.958   6.557  0.3158 -0.3036 -0.1759
  154SAPE    C117067   5.713   5.993   6.660 -0.7128  0.1890  0.0928
  154SAPE    HA17068   5.656   6.086   6.637 -0.0470  0.1338 -2.0117
  154SAPE    HB17069   5.649   5.904   6.678  1.9396 -1.6270  1.0091
  154SAPE    C217070   5.790   6.006   6.789  0.3400 -0.1941 -0.3377
  154SAPE    HS17071   5.868   6.083   6.770  1.9619 -1.9421 -1.1223
  154SAPE   O2117072   5.859   5.880   6.823  0.5151 -0.6814 -0.0605
  154SAPE   C2117073   5.973   5.899   6.891  0.1034 -0.0864 -0.5297
  154SAPE   O2217074   6.041   5.998   6.878  0.2506  0.8843 -0.0891
  154SAPE   C2217075   6.016   5.772   6.966  1.3094  0.5220 -0.4927
  154SAPE   H2R17076   5.966   5.679   6.933  3.9626 -1.4459  0.6834
  154SAPE   H2S17077   6.125   5.754   6.959  1.2296  0.0955 -0.6469
  154SAPE    C317078   5.701   6.052   6.908  0.9350  0.1136  0.2710
  154SAPE    HX17079   5.613   5.985   6.923  0.4749  0.4583 -0.7899
  154SAPE    HY17080   5.666   6.154   6.883  0.2353  0.4938  2.5171
  154SAPE   O3117081   5.781   6.057   7.034  0.2818  0.5704  0.3218
  154SAPE   C3117082   5.725   6.128   7.129  0.7897  0.4378  0.1685
  154SAPE   O3217083   5.615   6.178   7.123 -0.1193 -0.0150  0.5655
  154SAPE   C3217084   5.807   6.107   7.256  0.5044 -0.0041 -0.5112
  154SAPE   H2X17085   5.916   6.104   7.238  0.8498  2.0687  0.8690
  154SAPE   H2Y17086   5.772   6.018   7.312 -0.7943  1.5442  1.2423
  154SAPE   C2317087   5.981   5.788   7.116  1.1334  0.4088 -0.5531
  154SAPE   H3R17088   5.877   5.828   7.119  1.2104  0.5610  0.2332
  154SAPE   H3S17089   6.045   5.866   7.163 -1.4171  1.3061  1.7159
  154SAPE   C2417090   5.994   5.663   7.199  0.3544 -0.3894  0.6033
  154SAPE   H4R17091   5.985   5.574   7.134 -0.8953  0.2433 -0.1252
  154SAPE   H4S17092   5.903   5.659   7.264  0.9967  0.0369  1.5593
  154SAPE   C2517093   6.127   5.647   7.269 -0.3668  0.1995 -0.7076
  154SAPE   H5R17094   6.217   5.613   7.215  0.8285 -2.7282  2.7618
  154SAPE   C2617095   6.137   5.678   7.403  0.3342 -0.7808 -0.0253
  154SAPE   H6R17096   6.241   5.684   7.439  0.9316 -1.2458 -1.5557
  154SAPE   C2717097   6.024   5.720   7.504 -0.8669 -0.0588 -0.1539
  154SAPE   H7R17098   6.047   5.672   7.602  0.1684 -2.1972 -1.3725
  154SAPE   H7S17099   5.925   5.676   7.481 -0.5176 -0.5673 -0.7139
  154SAPE   C2817100   6.000   5.871   7.505  0.8167  0.3659  0.3605
  154SAPE   H8R17101   5.986   5.923   7.409 -1.1606 -0.3215  0.2284
  154SAPE   C2917102   5.989   5.951   7.612  0.3254  0.3865 -0.2704
  154SAPE   H9R17103   5.970   6.059   7.601  0.7123  0.5071  0.2164
  154SAPE  C21017104   5.998   5.922   7.762  0.9327 -0.2088  0.1197
  154SAPE  H10R17105   6.059   6.002   7.812 -1.0110  0.6750  1.2029
  154SAPE  H10S17106   6.056   5.828   7.778  1.6041  0.1854  0.0614
  154SAPE  C21117107   5.859   5.926   7.826 -0.2451 -0.1255  0.5865
  154SAPE  H11R17108   5.768   5.915   7.764  0.4846  1.1576 -0.7730
  154SAPE  C21217109   5.838   5.957   7.959  0.1564 -0.0869  0.5653
  154SAPE  H12R17110   5.731   5.965   7.986 -0.3421 -3.4159 -0.0696
  154SAPE  C21317111   5.935   5.984   8.067 -0.1936 -0.3839 -0.2217
  154SAPE  H13R17112   5.916   6.087   8.106  0.0562 -0.0510 -0.9496
  154SAPE  H13S17113   6.038   6.012   8.036 -0.1943  0.8596  0.7828
  154SAPE  C21417114   5.954   5.864   8.155 -0.0124 -0.1432 -0.5764
  154SAPE  H14R17115   5.942   5.765   8.109  0.1850 -1.0771  1.2898
  154SAPE  C21517116   5.962   5.864   8.289  0.0213  0.2647 -0.4012
  154SAPE  H15R17117   5.964   5.766   8.339 -2.5782  1.0972  1.5464
  154SAPE  C21617118   5.951   5.975   8.393 -0.0066 -0.4202 -0.1208
  154SAPE  H16R17119   5.982   6.073   8.352  1.3242  0.1839  2.1272
  154SAPE  H16S17120   6.015   5.962   8.483 -2.0452  1.7984  1.7937
  154SAPE  C21717121   5.810   5.995   8.469 -0.2520  0.2244 -0.0257
  154SAPE  H17R17122   5.777   5.890   8.483 -2.3295 -0.2689 -5.8514
  154SAPE  H17S17123   5.736   6.043   8.402  0.1029 -1.6297 -1.8489
  154SAPE  C21817124   5.826   6.087   8.585  0.2035 -0.1673  0.0169
  154SAPE  H18R17125   5.898   6.046   8.659  2.6083 -0.5938 -2.4262
  154SAPE  H18S17126   5.728   6.114   8.632  0.9444  1.7871  0.5190
  154SAPE  C21917127   5.896   6.222   8.548  0.3405  0.2597  0.7419
  154SAPE  H19R17128   5.856   6.250   8.448  1.1279 -0.1993  0.2900
  154SAPE  H19S17129   6.005   6.200   8.542  0.6375  1.6707  0.6656
  154SAPE  C22017130   5.875   6.333   8.648  0.3024  0.1292 -0.3205
  154SAPE  H20R17131   5.930   6.307   8.741 -1.1766  1.4329  0.9847
  154SAPE  H20S17132   5.769   6.359   8.668  0.3091  0.2012 -0.3770
  154SAPE  H20T17133   5.926   6.428   8.619  0.1938 -0.0711 -1.1829
  154SAPE   C3317134   5.793   6.211   7.365 -0.3458 -0.0186 -1.1057
  154SAPE   H3X17135   5.812   6.316   7.331 -0.7508  0.2108 -0.6420
  154SAPE   H3Y17136   5.872   6.185   7.438  0.4056 -1.3121 -2.3411
  154SAPE   C3417137   5.654   6.199   7.429  0.3201 -0.7162 -0.2526
  154SAPE   H4X17138   5.632   6.096   7.461 -1.0344 -0.4120 -0.1303
  154SAPE   H4Y17139   5.579   6.231   7.353  0.1520 -0.6127 -0.0439
  154SAPE   C3517140   5.636   6.289   7.548 -0.3949  0.5898 -0.1025
  154SAPE   H5X17141   5.530   6.273   7.577 -0.3713  1.8534  0.7535
  154SAPE   H5Y17142   5.637   6.398   7.527 -2.2286  1.0574  1.8840
  154SAPE   C3617143   5.740   6.253   7.651 -0.0324  0.4658 -0.4712
  154SAPE   H6X17144   5.846   6.251   7.618  0.6004 -1.1723  1.4428
  154SAPE   H6Y17145   5.724   6.146   7.679  0.7023  0.5498  0.3084
  154SAPE   C3717146   5.725   6.337   7.778 -0.4053 -0.2127 -0.4856
  154SAPE   H7X17147   5.768   6.438   7.761 -2.0205  0.5445 -0.2546
  154SAPE   H7Y17148   5.785   6.286   7.857 -0.7548  0.9537  0.5711
  154SAPE   C3817149   5.580   6.357   7.829  0.4583 -0.5798  0.2425
  154SAPE   H8X17150   5.506   6.275   7.816 -1.3884  0.9195  0.9099
  154SAPE   H8Y17151   5.542   6.443   7.771 -0.6109 -0.4614  1.1001
  154SAPE   C3917152   5.567   6.411   7.968  0.9946 -1.1815  0.3320
  154SAPE   H9X17153   5.461   6.438   7.991  0.7361 -0.9588 -1.0601
  154SAPE   H9Y17154   5.621   6.508   7.972  0.1606 -0.7393  2.2317
  154SAPE  C31017155   5.606   6.321   8.079  0.4692  1.1478 -1.1130
  154SAPE  H10X17156   5.716   6.310   8.078  0.3546 -0.1751 -0.9953
  154SAPE  H10Y17157   5.569   6.219   8.054 -0.1787  1.5760 -1.9608
  154SAPE  C31117158   5.556   6.381   8.219 -0.1866 -0.1241  0.1104
  154SAPE  H11X17159   5.550   6.301   8.296 -0.8882 -0.2011 -0.0238
  154SAPE  H11Y17160   5.449   6.409   8.220  0.5981  3.6526 -2.1498
  154SAPE  C31217161   5.629   6.507   8.272 -0.0198  0.5869  0.3303
  154SAPE  H12X17162   5.624   6.581   8.189  0.9567 -1.4538 -1.6527
  154SAPE  H12Y17163   5.736   6.482   8.284 -0.0677 -0.5554 -1.2687
  154SAPE  C31317164   5.567   6.563   8.404 -0.1345  0.4277 -0.2897
  154SAPE  H13X17165   5.561   6.481   8.479  5.3135  2.6030  3.1591
  154SAPE  H13Y17166   5.474   6.617   8.377 -0.4762 -1.0443 -2.2868
  154SAPE  C31417167   5.673   6.664   8.456  0.3108 -0.4849 -0.5001
  154SAPE  H14X17168   5.684   6.749   8.385  0.1473 -1.0400 -1.2043
  154SAPE  H14Y17169   5.768   6.608   8.469  1.3993  1.3305 -0.3713
  154SAPE  C31517170   5.631   6.723   8.596  0.0034 -0.1208  0.5901
  154SAPE  H15X17171   5.605   6.651   8.676 -0.3176 -1.2553 -0.5055
  154SAPE  H15Y17172   5.538   6.784   8.587  0.4187  0.3688 -0.5155
  154SAPE  C31617173   5.735   6.808   8.661  0.6190 -0.5200 -1.0534
  154SAPE  H16X17174   5.704   6.912   8.638  4.1270  0.7998 -0.4125
  154SAPE  H16Y17175   5.837   6.804   8.618  1.9266  1.9136  1.4757
  154SAPE  C31717176   5.749   6.810   8.818  0.2490 -0.3309  0.4577
  154SAPE  H17X17177   5.820   6.893   8.839 -2.4323  3.0835 -2.5022
  154SAPE  H17Y17178   5.796   6.712   8.840  0.1729 -0.6303 -0.6526
  154SAPE  C31817179   5.614   6.836   8.883 -0.1308  0.5654 -0.1992
  154SAPE  H18X17180   5.539   6.757   8.861  0.8356 -0.5310  0.2905
  154SAPE  H18Y17181   5.567   6.934   8.859 -1.0984  1.0426  3.0953
  154SAPE  H18Z17182   5.624   6.850   8.993 -0.6554  1.2037 -0.2270
  155SAPE     N17183   5.338   5.055   6.069 -0.3863  0.2605  0.1484
  155SAPE   HN117184   5.374   4.961   6.044 -0.0136  0.0427  1.4358
  155SAPE   HN217185   5.280   5.029   6.151  1.2689 -4.1914  0.1653
  155SAPE   HN317186   5.279   5.091   5.992  0.3717  0.9258 -0.1363
  155SAPE   C1217187   5.450   5.156   6.099 -0.0689 -0.5937  0.6866
  155SAPE  H12A17188   5.405   5.240   6.156  0.8827 -0.8900  1.9257
  155SAPE  H12B17189   5.493   5.196   6.005 -0.1836 -2.5344 -0.2264
  155SAPE   C1117190   5.566   5.096   6.175 -0.0108  0.0503 -0.0793
  155SAPE  H11A17191   5.629   5.025   6.118  0.1556 -0.7800  1.0973
  155SAPE  H11B17192   5.523   5.025   6.249 -1.0094 -0.2923 -0.9677
  155SAPE     P17193   5.775   5.175   6.308  0.0297 -0.1187  0.0789
  155SAPE   O1317194   5.867   5.089   6.231  0.8151  0.1968  0.2819
  155SAPE   O1417195   5.831   5.307   6.354  0.1867  0.1132 -0.2067
  155SAPE   O1217196   5.642   5.200   6.222 -0.1933  0.0121  0.0449
  155SAPE   O1117197   5.720   5.095   6.430 -0.2758  0.6375  0.1596
  155SAPE    C117198   5.594   5.125   6.494 -0.5090  0.6779 -0.5200
  155SAPE    HA17199   5.545   5.214   6.450  0.7880  1.5277 -0.3065
  155SAPE    HB17200   5.527   5.038   6.477 -0.1919  0.6480 -1.7226
  155SAPE    C217201   5.615   5.143   6.645  0.5115  0.4287 -0.9317
  155SAPE    HS17202   5.522   5.133   6.705  2.5126 -0.3335  2.2808
  155SAPE   O2117203   5.685   5.258   6.672  0.4130 -0.8064 -0.5478
  155SAPE   C2117204   5.597   5.355   6.665 -0.5005 -0.1504 -0.1060
  155SAPE   O2217205   5.479   5.358   6.640 -0.6720 -0.9263  0.2260
  155SAPE   C2217206   5.673   5.487   6.688 -0.6075  0.1308  0.0984
  155SAPE   H2R17207   5.763   5.489   6.624 -0.4564  3.9777  0.2118
  155SAPE   H2S17208   5.606   5.570   6.658 -0.0854  0.3851 -0.3874
  155SAPE    C317209   5.706   5.024   6.698 -0.7741  0.1154  0.4477
  155SAPE    HX17210   5.800   5.039   6.640 -0.6110 -2.9704 -0.3016
  155SAPE    HY17211   5.661   4.927   6.665 -0.1617 -0.1770  0.4575
  155SAPE   O3117212   5.741   5.026   6.838 -0.2735  0.1477 -0.1994
  155SAPE   C3117213   5.645   5.002   6.919  0.5847 -0.4050  0.3037
  155SAPE   O3217214   5.538   4.956   6.889  0.5333 -0.4561  0.3937
  155SAPE   C3217215   5.684   5.040   7.062  0.2596  0.4757 -0.3090
  155SAPE   H2X17216   5.759   4.963   7.091  0.3696  0.4767 -0.5904
  155SAPE   H2Y17217   5.595   5.031   7.127  0.9979 -1.2232  0.5534
  155SAPE   C2317218   5.709   5.503   6.832 -0.3377  0.1400 -0.4769
  155SAPE   H3R17219   5.783   5.585   6.840 -0.0939 -0.0973 -0.2502
  155SAPE   H3S17220   5.766   5.424   6.886  0.1434  1.2327  0.6662
  155SAPE   C2417221   5.587   5.546   6.925 -0.1649  0.2999  0.9555
  155SAPE   H4R17222   5.629   5.548   7.028  1.0805 -0.7687  0.5070
  155SAPE   H4S17223   5.512   5.464   6.925 -0.3230  0.3309 -2.0250
  155SAPE   C2517224   5.524   5.677   6.888  0.4016 -0.0809 -0.2463
  155SAPE   H5R17225   5.543   5.715   6.787  0.1301 -0.1940 -0.3392
  155SAPE   C2617226   5.461   5.762   6.979  0.5431  0.0851  0.2988
  155SAPE   H6R17227   5.411   5.848   6.932  0.4130 -1.0763 -1.8074
  155SAPE   C2717228   5.430   5.734   7.126  0.2881  0.5517  1.1587
  155SAPE   H7R17229   5.453   5.627   7.145  0.5556  0.1344 -1.1992
  155SAPE   H7S17230   5.323   5.748   7.153 -0.4646 -2.7462  0.2478
  155SAPE   C2817231   5.512   5.832   7.214  0.1540  0.7475  0.5369
  155SAPE   H8R17232   5.541   5.927   7.167 -0.2236  1.1076  1.0240
  155SAPE   C2917233   5.547   5.809   7.340  0.6379  0.5993  0.6131
  155SAPE   H9R17234   5.591   5.893   7.397 -0.3043  1.2266  0.4480
  155SAPE  C21017235   5.508   5.685   7.415  0.0898  0.3407  0.4493
  155SAPE  H10R17236   5.524   5.592   7.356 -0.4779 -0.0500  0.8933
  155SAPE  H10S17237   5.399   5.689   7.437  0.5977  0.3010  3.4419
  155SAPE  C21117238   5.583   5.691   7.543  0.4149  0.3518 -0.3255
  155SAPE  H11R17239   5.683   5.644   7.550 -0.6312 -1.8552  0.8369
  155SAPE  C21217240   5.553   5.754   7.659  0.1178  0.0322 -0.1795
  155SAPE  H12R17241   5.614   5.733   7.748  1.6590 -0.0046 -1.2157
  155SAPE  C21317242   5.429   5.829   7.679 -0.2773 -0.3900 -0.0225
  155SAPE  H13R17243   5.354   5.758   7.722  1.5134 -1.9635  0.6483
  155SAPE  H13S17244   5.376   5.869   7.590 -1.1443  0.1170  0.6979
  155SAPE  C21417245   5.465   5.942   7.777  0.3785  0.2782  0.2795
  155SAPE  H14R17246   5.519   6.024   7.728  1.2462 -1.3866 -1.7135
  155SAPE  C21517247   5.431   5.950   7.908 -0.3193 -0.0598  0.4518
  155SAPE  H15R17248   5.448   6.045   7.960 -0.1877  0.0995  0.1200
  155SAPE  C21617249   5.354   5.848   7.993  0.1823 -0.1373  0.2629
  155SAPE  H16R17250   5.323   5.766   7.924 -0.2330  0.4539 -0.2653
  155SAPE  H16S17251   5.258   5.891   8.029 -0.3000 -1.9731  1.3585
  155SAPE  C21717252   5.424   5.780   8.105 -0.6014  0.3040  0.4662
  155SAPE  H17R17253   5.523   5.743   8.072 -0.3131  0.5311  1.0668
  155SAPE  H17S17254   5.370   5.692   8.147  1.1756 -1.5132 -0.8556
  155SAPE  C21817255   5.461   5.872   8.218  0.2758 -0.0961 -0.5305
  155SAPE  H18R17256   5.514   5.957   8.170  0.3148  0.1259 -0.1015
  155SAPE  H18S17257   5.540   5.825   8.281 -0.3361 -1.6042 -0.8454
  155SAPE  C21917258   5.340   5.933   8.291 -0.1043  0.5372  0.4175
  155SAPE  H19R17259   5.279   5.848   8.328  0.2306 -0.6654 -1.6798
  155SAPE  H19S17260   5.281   5.986   8.213 -3.7618 -1.8772  1.3186
  155SAPE  C22017261   5.379   6.030   8.407 -0.2833 -0.7585 -0.3655
  155SAPE  H20R17262   5.290   6.086   8.443  1.3832  0.3260  2.3181
  155SAPE  H20S17263   5.451   6.109   8.377 -1.9223  2.2060  2.8757
  155SAPE  H20T17264   5.419   5.974   8.494  0.7742 -0.1541 -0.4473
  155SAPE   C3317265   5.735   5.186   7.087  0.1870  0.3072  0.0874
  155SAPE   H3X17266   5.667   5.260   7.040  0.8539  1.0529  0.2694
  155SAPE   H3Y17267   5.833   5.209   7.040 -1.0838  2.3377 -1.7254
  155SAPE   C3417268   5.741   5.225   7.237  0.2444  0.2634 -0.3382
  155SAPE   H4X17269   5.821   5.168   7.289  0.4582  0.4588 -0.4504
  155SAPE   H4Y17270   5.641   5.203   7.279  0.0768  2.0688  0.2976
  155SAPE   C3517271   5.768   5.374   7.258 -0.7029  1.5323  0.0358
  155SAPE   H5X17272   5.682   5.429   7.213 -2.1171  2.1992  3.2921
  155SAPE   H5Y17273   5.868   5.408   7.225  0.5854 -0.5556  1.5141
  155SAPE   C3617274   5.775   5.404   7.416  0.0744 -0.0959 -0.0401
  155SAPE   H6X17275   5.682   5.356   7.453 -0.7755  0.6559 -1.1402
  155SAPE   H6Y17276   5.761   5.514   7.414 -1.4286 -0.1876  2.2581
  155SAPE   C3717277   5.901   5.355   7.477 -0.4280 -0.2402  0.1976
  155SAPE   H7X17278   5.988   5.403   7.427  1.8244 -3.0462  1.1462
  155SAPE   H7Y17279   5.923   5.246   7.475 -3.8503 -1.0352 -0.4933
  155SAPE   C3817280   5.914   5.409   7.625 -0.0638  0.2130 -0.1561
  155SAPE   H8X17281   5.827   5.378   7.686  0.7153 -0.3421  0.7183
  155SAPE   H8Y17282   5.900   5.518   7.637 -4.8878 -0.4292  3.0265
  155SAPE   C3917283   6.047   5.350   7.682  0.2391  0.0027 -0.0096
  155SAPE   H9X17284   6.134   5.391   7.626  1.1819 -0.3729  1.1521
  155SAPE   H9Y17285   6.036   5.241   7.665  2.2257  0.2910 -5.3368
  155SAPE  C31017286   6.071   5.365   7.832 -0.2108 -0.0668  0.9219
  155SAPE  H10X17287   6.140   5.287   7.871  1.9426  0.3617 -1.7403
  155SAPE  H10Y17288   5.973   5.357   7.883 -0.6265  0.6882  0.2564
  155SAPE  C31117289   6.107   5.509   7.880  0.0459 -0.0327  0.0007
  155SAPE  H11X17290   6.047   5.585   7.825  1.2898 -0.2865 -1.7911
  155SAPE  H11Y17291   6.212   5.531   7.850  0.1225  1.9986  1.5564
  155SAPE  C31217292   6.084   5.525   8.035 -0.3593  0.0094  0.7947
  155SAPE  H12X17293   5.976   5.528   8.057 -0.8054  1.7926 -1.2608
  155SAPE  H12Y17294   6.118   5.627   8.063  0.9171  0.4446 -2.0113
  155SAPE  C31317295   6.148   5.406   8.116  0.3046 -0.6019  0.0723
  155SAPE  H13X17296   6.257   5.405   8.095 -0.0691 -2.4303 -2.0916
  155SAPE  H13Y17297   6.100   5.310   8.087 -1.9603 -0.0071  1.5327
  155SAPE  C31417298   6.117   5.418   8.271 -0.2988  0.4587 -0.3719
  155SAPE  H14X17299   6.009   5.414   8.296  0.1707 -0.4089  1.7201
  155SAPE  H14Y17300   6.145   5.520   8.304 -1.0330  0.9341 -1.1948
  155SAPE  C31517301   6.180   5.302   8.361  0.7760 -0.6052  0.5338
  155SAPE  H15X17302   6.152   5.201   8.325 -1.9284 -0.2726  1.5442
  155SAPE  H15Y17303   6.140   5.308   8.464 -0.6116 -0.7023  0.0256
  155SAPE  C31617304   6.336   5.315   8.361 -0.0712 -0.1425 -0.6880
  155SAPE  H16X17305   6.365   5.400   8.427 -2.2895  1.3108 -1.4608
  155SAPE  H16Y17306   6.385   5.315   8.261 -0.4590 -1.6013 -0.8949
  155SAPE  C31717307   6.393   5.182   8.425  1.0416 -0.3197  0.1158
  155SAPE  H17X17308   6.503   5.192   8.419  1.2385 -0.8261  2.2597
  155SAPE  H17Y17309   6.358   5.097   8.363 -0.7546  1.9052 -2.1487
  155SAPE  C31817310   6.356   5.168   8.576 -0.2572 -0.1369 -0.3279
  155SAPE  H18X17311   6.380   5.069   8.622  1.3793  0.5136  0.2921
  155SAPE  H18Y17312   6.248   5.186   8.593  0.3504  2.3708  1.5076
  155SAPE  H18Z17313   6.414   5.238   8.640 -2.1615 -0.2090  1.6015
  156SAPE     N17314   4.042   1.463   6.431 -0.2385  0.1014  0.0664
  156SAPE   HN117315   4.014   1.396   6.505  0.9490 -0.6838 -0.1618
  156SAPE   HN217316   4.146   1.457   6.431 -0.0960  0.6853  3.3238
  156SAPE   HN317317   4.031   1.564   6.455  0.0195 -0.1101  1.1382
  156SAPE   C1217318   3.963   1.420   6.309 -1.2396  0.6049  0.1746
  156SAPE  H12A17319   3.968   1.309   6.307 -1.2604  0.6084 -0.7344
  156SAPE  H12B17320   4.029   1.439   6.221 -1.2460 -3.5956 -0.9708
  156SAPE   C1117321   3.824   1.479   6.296 -0.0373 -0.1978  0.0381
  156SAPE  H11A17322   3.787   1.432   6.202  1.2291  0.5620 -0.8645
  156SAPE  H11B17323   3.825   1.588   6.278  0.0309 -0.2324 -0.1669
  156SAPE     P17324   3.591   1.491   6.406 -0.3673  0.2299  0.3560
  156SAPE   O1317325   3.585   1.631   6.461  0.0511  0.1272 -0.1882
  156SAPE   O1417326   3.528   1.471   6.270  0.0860  1.0530  0.0643
  156SAPE   O1217327   3.741   1.440   6.408  0.3762  0.1072 -0.3336
  156SAPE   O1117328   3.521   1.399   6.513  0.6262  0.1805 -0.0089
  156SAPE    C117329   3.556   1.252   6.518 -0.5113  0.1459 -0.4178
  156SAPE    HA17330   3.457   1.202   6.515  0.0622 -1.2216  1.3234
  156SAPE    HB17331   3.616   1.208   6.436  1.5011  1.9510 -0.0254
  156SAPE    C217332   3.610   1.219   6.658  0.2763  0.2754 -0.6894
  156SAPE    HS17333   3.618   1.110   6.675  0.0044  0.6082  2.0580
  156SAPE   O2117334   3.537   1.277   6.772  0.1143 -0.3255  0.3071
  156SAPE   C2117335   3.426   1.224   6.810  0.2071 -0.0534  0.0899
  156SAPE   O2217336   3.366   1.125   6.761 -0.3216  0.0863 -0.1667
  156SAPE   C2217337   3.359   1.315   6.925  0.3836 -0.2015  1.1316
  156SAPE   H2R17338   3.366   1.421   6.894 -0.9981 -0.8893 -1.8034
  156SAPE   H2S17339   3.253   1.285   6.917  0.0889  0.9298  0.5430
  156SAPE    C317340   3.754   1.270   6.664 -0.5093 -0.3600  0.6283
  156SAPE    HX17341   3.751   1.381   6.669  0.7791 -0.3344  1.0551
  156SAPE    HY17342   3.806   1.238   6.572 -0.2766  0.3957  0.4863
  156SAPE   O3117343   3.826   1.215   6.774 -0.2661 -0.1824  0.5993
  156SAPE   C3117344   3.902   1.299   6.839 -0.7979 -0.0249  0.7115
  156SAPE   O3217345   3.920   1.419   6.811  0.2443 -0.1819  0.1174
  156SAPE   C3217346   3.968   1.219   6.966  0.6389 -0.4790  0.0804
  156SAPE   H2X17347   4.054   1.163   6.925  1.2216 -0.2484  0.9573
  156SAPE   H2Y17348   3.890   1.147   6.999 -0.9587  1.0412 -0.2232
  156SAPE   C2317349   3.436   1.293   7.060 -0.3431  0.2556 -0.1441
  156SAPE   H3R17350   3.442   1.184   7.081 -0.2342 -0.0114 -1.5093
  156SAPE   H3S17351   3.380   1.339   7.145  1.2695  0.3952  0.8780
  156SAPE   C2417352   3.578   1.351   7.058 -0.9150  0.1571 -1.0034
  156SAPE   H4R17353   3.574   1.450   7.007 -1.5317  2.0291  2.4260
  156SAPE   H4S17354   3.645   1.282   7.001 -0.3842 -2.7227  2.7456
  156SAPE   C2517355   3.645   1.366   7.192 -0.6344  0.1445 -0.2156
  156SAPE   H5R17356   3.678   1.274   7.242 -0.2422  0.0577 -0.6311
  156SAPE   C2617357   3.669   1.478   7.261 -0.2815 -0.6699 -0.2788
  156SAPE   H6R17358   3.711   1.478   7.363  0.8409 -0.4993 -0.7250
  156SAPE   C2717359   3.628   1.622   7.225  0.0866  0.1726 -0.5927
  156SAPE   H7R17360   3.559   1.656   7.305  0.5775 -1.4113  0.5487
  156SAPE   H7S17361   3.575   1.629   7.127  0.6409  0.6631 -0.8661
  156SAPE   C2817362   3.748   1.712   7.214  0.2992  0.4308 -0.0733
  156SAPE   H8R17363   3.810   1.703   7.124  1.6154  0.9521  0.7496
  156SAPE   C2917364   3.804   1.778   7.315  0.0845  0.2589 -0.3581
  156SAPE   H9R17365   3.889   1.844   7.293 -1.3057  1.6279 -1.8617
  156SAPE  C21017366   3.749   1.777   7.465 -0.1310 -0.1046  0.2831
  156SAPE  H10R17367   3.640   1.756   7.470 -0.6044  1.5542 -1.4914
  156SAPE  H10S17368   3.732   1.878   7.509 -1.4934 -0.4196  0.5118
  156SAPE  C21117369   3.830   1.677   7.539  0.3115 -0.8896  0.3262
  156SAPE  H11R17370   3.939   1.694   7.536  0.1480  0.4275 -3.0464
  156SAPE  C21217371   3.789   1.577   7.613 -0.3164  0.4040 -0.2822
  156SAPE  H12R17372   3.872   1.512   7.647  0.8820  1.9261 -0.2114
  156SAPE  C21317373   3.654   1.528   7.648  0.0430 -0.3430 -0.4020
  156SAPE  H13R17374   3.653   1.417   7.650 -1.9167 -0.3607 -0.5068
  156SAPE  H13S17375   3.581   1.562   7.571 -0.8361 -0.5343  0.3253
  156SAPE  C21417376   3.603   1.600   7.775 -0.4073  0.2604 -0.2307
  156SAPE  H14R17377   3.635   1.705   7.783 -0.5784  0.3824 -1.0338
  156SAPE  C21517378   3.509   1.547   7.861  1.0331 -0.3744  0.0859
  156SAPE  H15R17379   3.490   1.606   7.952 -0.4581 -4.0353  2.3809
  156SAPE  C21617380   3.444   1.413   7.858  0.1128  0.2176 -0.2984
  156SAPE  H16R17381   3.462   1.361   7.761 -1.8265 -0.7966 -0.1588
  156SAPE  H16S17382   3.336   1.421   7.879  0.0375 -1.5322  0.1503
  156SAPE  C21717383   3.497   1.330   7.972  0.2839  0.2769  0.1730
  156SAPE  H17R17384   3.480   1.371   8.073  1.1869 -0.5790  0.6821
  156SAPE  H17S17385   3.605   1.321   7.949  0.0532  0.4351 -1.0430
  156SAPE  C21817386   3.449   1.182   7.992 -0.0919  0.1322  0.3637
  156SAPE  H18R17387   3.494   1.125   7.907  0.2412  1.3619 -0.2985
  156SAPE  H18S17388   3.341   1.165   7.973  0.0473  0.7523 -1.1121
  156SAPE  C21917389   3.487   1.132   8.136  0.0188 -0.0142  0.0436
  156SAPE  H19R17390   3.406   1.171   8.202 -1.2162 -0.1861 -1.3071
  156SAPE  H19S17391   3.586   1.179   8.155 -0.3956  1.6421 -1.5911
  156SAPE  C22017392   3.490   0.976   8.141  0.2662  0.0138  0.4869
  156SAPE  H20R17393   3.392   0.925   8.135  0.2617  0.0655  0.1069
  156SAPE  H20S17394   3.526   0.947   8.242 -1.4170 -0.9316  0.8498
  156SAPE  H20T17395   3.569   0.947   8.068 -1.7203  2.5733 -2.9951
  156SAPE   C3317396   3.990   1.299   7.096 -0.0304  0.0836 -0.0165
  156SAPE   H3X17397   3.900   1.363   7.110 -0.9653 -1.4777  1.6173
  156SAPE   H3Y17398   4.080   1.363   7.085 -0.9863  1.4188 -0.4293
  156SAPE   C3417399   3.993   1.214   7.222  1.0202  0.1504  0.3746
  156SAPE   H4X17400   4.090   1.160   7.214  1.7746  1.5019  0.0555
  156SAPE   H4Y17401   3.914   1.136   7.213  0.7451  0.3190  1.2379
  156SAPE   C3517402   3.985   1.282   7.365 -0.0136  0.0388  1.1845
  156SAPE   H5X17403   3.896   1.348   7.365  0.9796  1.4643 -0.4700
  156SAPE   H5Y17404   4.069   1.354   7.377 -0.7992  1.0441  0.8325
  156SAPE   C3617405   3.970   1.174   7.468  0.0596 -0.3812 -0.1098
  156SAPE   H6X17406   4.065   1.118   7.480  0.3127  0.0088 -0.2677
  156SAPE   H6Y17407   3.897   1.093   7.448  0.3545 -0.8028  0.5081
  156SAPE   C3717408   3.938   1.239   7.599 -0.1471 -0.1250  0.5468
  156SAPE   H7X17409   3.837   1.283   7.588  0.0633 -0.0411 -1.4830
  156SAPE   H7Y17410   4.003   1.328   7.616  2.0439 -1.2681 -1.1822
  156SAPE   C3817411   3.935   1.130   7.712 -0.2645 -0.0544  0.0676
  156SAPE   H8X17412   3.941   1.027   7.671 -0.9972 -0.6634  1.3988
  156SAPE   H8Y17413   3.829   1.130   7.748 -0.0240 -1.0739  0.8254
  156SAPE   C3917414   4.037   1.159   7.821 -0.4486 -0.1632 -0.3898
  156SAPE   H9X17415   4.027   1.268   7.837 -0.9226 -0.4921  1.8352
  156SAPE   H9Y17416   4.145   1.149   7.800  0.0913 -0.5973  2.3106
  156SAPE  C31017417   4.004   1.084   7.958 -0.1966  0.3161 -0.8226
  156SAPE  H10X17418   4.038   0.980   7.938  0.2065 -0.1272  1.8857
  156SAPE  H10Y17419   3.895   1.084   7.976  0.2223  1.4502  2.4225
  156SAPE  C31117420   4.072   1.152   8.073  0.5541 -0.6245  0.0984
  156SAPE  H11X17421   4.016   1.247   8.080 -0.0453 -0.4225 -4.4506
  156SAPE  H11Y17422   4.177   1.169   8.041  0.1604 -2.0133 -2.2105
  156SAPE  C31217423   4.062   1.070   8.207  0.1045 -0.3281  0.3652
  156SAPE  H12X17424   4.116   0.973   8.199  2.2952  0.6212  2.3722
  156SAPE  H12Y17425   3.954   1.053   8.228  0.2922 -2.4148 -0.1191
  156SAPE  C31317426   4.127   1.161   8.311 -0.8226  0.4633 -0.0149
  156SAPE  H13X17427   4.094   1.264   8.333  1.1796  0.9498  0.9999
  156SAPE  H13Y17428   4.233   1.176   8.278 -1.5243 -0.4114 -2.9825
  156SAPE  C31417429   4.140   1.099   8.455 -0.2874 -0.5389  0.7395
  156SAPE  H14X17430   4.207   1.011   8.468  1.4277  0.4024 -1.0461
  156SAPE  H14Y17431   4.037   1.073   8.487  0.1476 -0.8327  1.9720
  156SAPE  C31517432   4.186   1.207   8.548  0.1025  0.1044  0.4693
  156SAPE  H15X17433   4.283   1.243   8.509 -0.3137  1.4039  0.5903
  156SAPE  H15Y17434   4.207   1.159   8.647 -3.2543  1.2224  1.8900
  156SAPE  C31617435   4.088   1.315   8.593  0.1347 -0.5552  0.3913
  156SAPE  H16X17436   4.053   1.373   8.505 -0.1992  0.3277  1.0955
  156SAPE  H16Y17437   4.148   1.387   8.652  1.1889 -1.1983  0.1439
  156SAPE  C31717438   3.966   1.274   8.681  0.2612  0.1279  0.0296
  156SAPE  H17X17439   4.002   1.220   8.771 -0.4962 -1.4601 -0.5942
  156SAPE  H17Y17440   3.892   1.204   8.637  1.6594 -0.4771 -1.4581
  156SAPE  C31817441   3.872   1.389   8.733  0.8007 -0.1996  0.5832
  156SAPE  H18X17442   3.945   1.446   8.793  0.5265  0.8165 -0.0338
  156SAPE  H18Y17443   3.792   1.342   8.795  0.5192  1.4943  1.5771
  156SAPE  H18Z17444   3.831   1.453   8.652  0.8556 -1.0136 -0.0995
  157SAPE     N17445   1.111   0.771   5.979  0.1176 -0.3036 -0.0299
  157SAPE   HN117446   1.055   0.855   5.952 -2.9183 -2.3158 -0.5869
  157SAPE   HN217447   1.188   0.805   6.039  1.3531 -2.8877 -0.0458
  157SAPE   HN317448   1.153   0.717   5.901  0.4247  0.6531 -0.5488
  157SAPE   C1217449   1.007   0.689   6.041  0.3600  0.1216 -0.0515
  157SAPE  H12A17450   1.045   0.593   6.082 -2.2805 -1.5470 -1.2356
  157SAPE  H12B17451   0.929   0.657   5.969  1.5608 -0.4130 -1.1586
  157SAPE   C1117452   0.937   0.777   6.150 -0.0957 -0.5702 -0.3392
  157SAPE  H11A17453   0.999   0.811   6.236 -2.6270  1.4825  0.7738
  157SAPE  H11B17454   0.864   0.715   6.206 -1.6311  1.6655  0.2310
  157SAPE     P17455   0.753   0.953   6.143  0.2778  0.1053  0.0075
  157SAPE   O1317456   0.739   1.090   6.093 -0.4761  0.5274 -0.5152
  157SAPE   O1417457   0.647   0.854   6.105 -0.3744  0.0359  0.1536
  157SAPE   O1217458   0.887   0.892   6.094  0.1311 -0.2708  0.3601
  157SAPE   O1117459   0.778   0.955   6.296 -0.1686 -0.2729  0.9776
  157SAPE    C117460   0.703   0.878   6.397  0.2918 -0.2381  0.4550
  157SAPE    HA17461   0.683   0.773   6.366 -1.8807  0.3037 -0.1984
  157SAPE    HB17462   0.755   0.875   6.495 -1.2527  1.5463  1.4047
  157SAPE    C217463   0.569   0.935   6.441  0.6833 -0.2682 -1.0294
  157SAPE    HS17464   0.505   0.929   6.350 -1.1433  2.9456 -0.1087
  157SAPE   O2117465   0.580   1.072   6.479 -0.4003 -0.9569 -0.4605
  157SAPE   C2117466   0.474   1.153   6.456 -0.6549 -0.4706  1.0506
  157SAPE   O2217467   0.382   1.127   6.380 -0.2299 -0.1547 -0.2889
  157SAPE   C2217468   0.487   1.279   6.541  0.4046 -0.5668 -0.3227
  157SAPE   H2R17469   0.585   1.318   6.505 -0.8463  1.4714 -1.7225
  157SAPE   H2S17470   0.401   1.345   6.518  2.4409  1.2233 -3.5076
  157SAPE    C317471   0.496   0.855   6.555  0.1344  0.4529 -0.5551
  157SAPE    HX17472   0.471   0.748   6.538  1.8439 -0.5295  2.3805
  157SAPE    HY17473   0.397   0.905   6.560 -0.0853 -0.0894  1.1815
  157SAPE   O3117474   0.572   0.871   6.681  0.6039 -0.4590  0.2497
  157SAPE   C3117475   0.648   0.762   6.711  0.7266 -0.7864 -0.1055
  157SAPE   O3217476   0.656   0.667   6.640 -0.2269  0.1761 -0.2741
  157SAPE   C3217477   0.720   0.791   6.842 -0.6966  0.5949 -0.2751
  157SAPE   H2X17478   0.651   0.832   6.918  0.1453  6.2464 -2.0708
  157SAPE   H2Y17479   0.797   0.869   6.828  0.2145 -0.0009  1.1962
  157SAPE   C2317480   0.502   1.245   6.692 -0.5462 -0.0443 -0.9468
  157SAPE   H3R17481   0.560   1.328   6.739  0.1098 -0.3227 -1.2471
  157SAPE   H3S17482   0.564   1.153   6.696 -1.2600 -0.5617 -1.5146
  157SAPE   C2417483   0.364   1.241   6.767  0.0982  0.2323  0.3118
  157SAPE   H4R17484   0.388   1.208   6.870 -0.5405 -0.8749  0.1221
  157SAPE   H4S17485   0.299   1.162   6.724  0.0937  0.8961 -0.9420
  157SAPE   C2517486   0.296   1.378   6.774 -0.1711 -1.0499  0.1671
  157SAPE   H5R17487   0.253   1.416   6.680 -1.6333 -1.0172  0.8327
  157SAPE   C2617488   0.279   1.457   6.882 -0.2089  0.0401  0.5070
  157SAPE   H6R17489   0.228   1.554   6.870  0.4049  0.2582 -0.4130
  157SAPE   C2717490   0.316   1.423   7.023  0.9151  0.0244  0.2745
  157SAPE   H7R17491   0.307   1.314   7.040  0.8526 -0.2108 -1.1360
  157SAPE   H7S17492   0.246   1.473   7.093  2.5944  0.0725  2.0046
  157SAPE   C2817493   0.458   1.451   7.067  0.4901 -0.0018  0.9675
  157SAPE   H8R17494   0.518   1.503   6.991  1.5259  1.6422  2.8108
  157SAPE   C2917495   0.517   1.430   7.189 -0.1829 -0.7509 -0.6861
  157SAPE   H9R17496   0.622   1.461   7.194 -0.4705  0.4605 -1.6615
  157SAPE  C21017497   0.436   1.381   7.307  0.5347  0.3100 -0.1794
  157SAPE  H10R17498   0.448   1.271   7.310  1.3167  0.4150  0.8702
  157SAPE  H10S17499   0.328   1.395   7.288  0.6082 -1.5286 -2.3748
  157SAPE  C21117500   0.490   1.414   7.442 -0.1067 -0.0593  0.0850
  157SAPE  H11R17501   0.571   1.350   7.478 -1.3822 -1.7374  0.0788
  157SAPE  C21217502   0.487   1.536   7.503  0.1062 -1.0217  0.1284
  157SAPE  H12R17503   0.551   1.562   7.588  0.8358  1.9382 -1.1660
  157SAPE  C21317504   0.401   1.657   7.464  0.4787 -0.2479 -0.4911
  157SAPE  H13R17505   0.424   1.675   7.357 -2.5408  0.7505 -1.0877
  157SAPE  H13S17506   0.423   1.751   7.519 -1.4540  1.0099 -1.7332
  157SAPE  C21417507   0.253   1.631   7.487  0.2956  0.7010  0.4163
  157SAPE  H14R17508   0.200   1.565   7.417 -2.7114  0.4904  2.6442
  157SAPE  C21517509   0.177   1.687   7.590 -0.5651 -0.2746 -0.4242
  157SAPE  H15R17510   0.068   1.670   7.590 -0.4975 -0.7207 -0.6808
  157SAPE  C21617511   0.229   1.776   7.703  0.3076  0.0424 -0.6485
  157SAPE  H16R17512   0.177   1.873   7.692  0.9744  0.7832  2.1142
  157SAPE  H16S17513   0.337   1.801   7.708  0.6125 -1.4109  0.7193
  157SAPE  C21717514   0.191   1.712   7.840 -0.6064  1.0216 -0.3054
  157SAPE  H17R17515   0.100   1.651   7.826  0.4527 -0.4620 -1.0059
  157SAPE  H17S17516   0.184   1.797   7.912  0.7450  1.2843 -0.4390
  157SAPE  C21817517   0.300   1.608   7.883  0.0763  0.2892  0.0330
  157SAPE  H18R17518   0.397   1.659   7.903 -1.0985  1.3681  3.6412
  157SAPE  H18S17519   0.299   1.526   7.808 -0.5422 -0.7487  1.1428
  157SAPE  C21917520   0.237   1.541   8.004  0.0905 -0.1452 -0.5795
  157SAPE  H19R17521   0.136   1.500   7.985 -0.0781  1.2799 -3.4048
  157SAPE  H19S17522   0.222   1.609   8.090  0.9287 -3.1144  2.1089
  157SAPE  C22017523   0.326   1.430   8.052  0.4370 -0.5849 -0.0649
  157SAPE  H20R17524   0.278   1.355   8.119 -0.9052 -0.1664 -0.5315
  157SAPE  H20S17525   0.418   1.467   8.102  0.2273  0.5416 -0.4948
  157SAPE  H20T17526   0.358   1.374   7.960  2.5998  1.2888 -0.5566
  157SAPE   C3317527   0.791   0.665   6.907 -0.3500 -0.9649 -0.0670
  157SAPE   H3X17528   0.864   0.628   6.832 -0.8901 -1.0639 -0.5563
  157SAPE   H3Y17529   0.719   0.586   6.937  0.0095 -1.1703  0.2537
  157SAPE   C3417530   0.866   0.720   7.033 -0.0577 -0.0582  0.3978
  157SAPE   H4X17531   0.924   0.807   6.994  1.2131 -1.2575 -0.4573
  157SAPE   H4Y17532   0.931   0.636   7.061 -0.8247 -1.3630 -1.4984
  157SAPE   C3517533   0.769   0.766   7.145 -0.5133  0.0279  0.3614
  157SAPE   H5X17534   0.700   0.679   7.155  0.3120 -0.5153  1.5233
  157SAPE   H5Y17535   0.706   0.855   7.127  0.6427  0.9038  0.4987
  157SAPE   C3617536   0.853   0.783   7.270  0.2359  0.4899 -0.7973
  157SAPE   H6X17537   0.916   0.875   7.264 -0.6529  1.4842  2.6426
  157SAPE   H6Y17538   0.915   0.690   7.268 -2.3013 -1.4084  1.7645
  157SAPE   C3717539   0.768   0.794   7.401  0.2002  0.3417  0.1375
  157SAPE   H7X17540   0.681   0.725   7.406  1.3266 -1.1577 -0.1646
  157SAPE   H7Y17541   0.730   0.897   7.388  0.2296  0.1495 -1.6025
  157SAPE   C3817542   0.857   0.770   7.522  0.3846  0.4101  0.9269
  157SAPE   H8X17543   0.939   0.843   7.532  0.9573 -0.0246 -0.3784
  157SAPE   H8Y17544   0.914   0.675   7.508 -1.3199 -0.5135 -0.1626
  157SAPE   C3917545   0.792   0.748   7.664 -0.3763  0.2458  0.8178
  157SAPE   H9X17546   0.703   0.681   7.659 -1.1937  1.1786  2.0953
  157SAPE   H9Y17547   0.739   0.839   7.701 -2.2687 -0.7771  0.7442
  157SAPE  C31017548   0.906   0.716   7.765  0.6082  0.4318  0.7027
  157SAPE  H10X17549   1.001   0.765   7.738 -0.0616  0.4175 -1.8685
  157SAPE  H10Y17550   0.914   0.607   7.744 -1.6902  0.6346 -1.6954
  157SAPE  C31117551   0.871   0.727   7.917  0.4083  0.0884 -0.2786
  157SAPE  H11X17552   0.790   0.652   7.930 -0.3321  0.7254 -0.9737
  157SAPE  H11Y17553   0.825   0.826   7.940  0.1986 -0.3261  1.1732
  157SAPE  C31217554   0.984   0.698   8.009  0.3173 -0.2713 -0.4052
  157SAPE  H12X17555   1.045   0.788   8.029  0.8390 -0.8987  0.9738
  157SAPE  H12Y17556   1.042   0.614   7.964 -1.7465 -1.7584 -0.4654
  157SAPE  C31317557   0.941   0.646   8.148 -0.1253 -0.3888 -0.0158
  157SAPE  H13X17558   0.889   0.548   8.144 -2.3217  0.7584 -1.3928
  157SAPE  H13Y17559   0.868   0.724   8.180  0.7617  1.1319 -1.5191
  157SAPE  C31417560   1.063   0.649   8.246 -0.7312 -0.3338 -0.2556
  157SAPE  H14X17561   1.101   0.753   8.253 -1.0938 -0.3011  1.6326
  157SAPE  H14Y17562   1.149   0.583   8.222  1.3100  1.3932  1.8891
  157SAPE  C31517563   1.019   0.610   8.393 -0.1792 -0.2998  0.1176
  157SAPE  H15X17564   0.909   0.624   8.383  0.1167  1.0297 -1.9283
  157SAPE  H15Y17565   1.067   0.681   8.464 -0.5204  0.4617 -0.3968
  157SAPE  C31617566   1.060   0.466   8.418 -0.1825  0.9642 -0.5662
  157SAPE  H16X17567   1.170   0.469   8.432 -0.1258 -1.1355 -0.3250
  157SAPE  H16Y17568   1.038   0.387   8.343 -1.1426 -0.7537  1.4264
  157SAPE  C31717569   1.006   0.414   8.553 -0.9084 -0.0094 -0.2121
  157SAPE  H17X17570   0.895   0.412   8.555 -0.9052  0.0740  0.0182
  157SAPE  H17Y17571   1.039   0.486   8.631  0.0991  0.9922 -1.5028
  157SAPE  C31817572   1.050   0.274   8.593 -0.4732 -0.6948  0.2547
  157SAPE  H18X17573   1.161   0.269   8.588 -0.4910 -0.0581 -1.5647
  157SAPE  H18Y17574   1.010   0.205   8.515  0.8903  1.9631 -3.0323
  157SAPE  H18Z17575   1.013   0.252   8.695  0.1627 -0.1767  0.6022
  158SAPE     N17576   2.192   5.472   6.119  0.6232  0.1830  0.9103
  158SAPE   HN117577   2.275   5.413   6.094  0.4032 -0.0648  0.7617
  158SAPE   HN217578   2.186   5.502   6.218 -1.4674  0.5364  0.7104
  158SAPE   HN317579   2.104   5.419   6.103 -0.7493  1.9736  2.1558
  158SAPE   C1217580   2.200   5.597   6.035 -0.0702  0.6552 -0.6242
  158SAPE  H12A17581   2.107   5.654   6.057 -0.5465  0.1260 -1.2251
  158SAPE  H12B17582   2.180   5.561   5.932 -1.0682 -0.7365  0.0060
  158SAPE   C1117583   2.334   5.662   6.055 -0.9537 -0.6137  0.2924
  158SAPE  H11A17584   2.357   5.740   5.980  0.5552 -2.5686 -1.3823
  158SAPE  H11B17585   2.415   5.594   6.023 -1.9804 -0.7924 -2.1244
  158SAPE     P17586   2.336   5.864   6.220  0.0529  0.0684  0.0369
  158SAPE   O1317587   2.391   5.897   6.355  0.1106  0.3404  0.1067
  158SAPE   O1417588   2.408   5.930   6.102  0.8087 -0.5387 -0.6044
  158SAPE   O1217589   2.341   5.707   6.190 -0.1111 -0.2983 -0.4991
  158SAPE   O1117590   2.179   5.887   6.229 -0.1463 -0.3695  0.5223
  158SAPE    C117591   2.109   5.865   6.347  0.0747  0.4303 -0.6012
  158SAPE    HA17592   2.004   5.842   6.319  0.9042 -2.2338 -1.8666
  158SAPE    HB17593   2.151   5.776   6.397 -1.3496 -0.2939 -0.6497
  158SAPE    C217594   2.112   5.983   6.453  0.2602  0.9155 -0.3832
  158SAPE    HS17595   2.215   5.997   6.493  1.0219 -1.3284 -1.3976
  158SAPE   O2117596   2.019   5.971   6.560  0.0243  0.4988 -0.5623
  158SAPE   C2117597   2.055   5.886   6.653 -0.2765  0.2643 -0.0922
  158SAPE   O2217598   2.152   5.814   6.643 -0.0199 -0.4522  0.2396
  158SAPE   C2217599   1.963   5.882   6.769  0.1369 -0.6146  0.0677
  158SAPE   H2R17600   1.872   5.939   6.740  0.1634 -0.5282  0.1554
  158SAPE   H2S17601   1.949   5.778   6.804 -0.4909 -0.7270 -0.4764
  158SAPE    C317602   2.095   6.110   6.376  0.5180 -0.1731 -0.4535
  158SAPE    HX17603   1.994   6.097   6.333  0.0766  0.3093  0.4137
  158SAPE    HY17604   2.176   6.121   6.301  2.6396 -1.0845  1.5756
  158SAPE   O3117605   2.109   6.222   6.466 -0.1011 -0.0238 -0.3543
  158SAPE   C3117606   2.045   6.336   6.428  0.2739 -0.6101 -0.1692
  158SAPE   O3217607   1.981   6.345   6.324  0.5016  0.2625  0.2979
  158SAPE   C3217608   2.069   6.443   6.522 -0.1974  0.6827 -0.1920
  158SAPE   H2X17609   2.158   6.495   6.480  1.8830 -3.1213 -0.9548
  158SAPE   H2Y17610   2.098   6.398   6.620 -3.4136 -1.1285  0.0562
  158SAPE   C2317611   2.012   5.973   6.883 -0.6329 -0.3312  0.5068
  158SAPE   H3R17612   1.941   5.991   6.967  0.6534  1.0756  1.3333
  158SAPE   H3S17613   2.034   6.069   6.831  1.1240 -0.7019  0.5304
  158SAPE   C2417614   2.134   5.915   6.956 -0.0125  0.4663 -0.9826
  158SAPE   H4R17615   2.210   5.901   6.876  2.0098 -0.6913  1.0414
  158SAPE   H4S17616   2.110   5.826   7.018 -0.5928  2.2018  1.4675
  158SAPE   C2517617   2.185   6.017   7.058 -0.5756  0.9089  0.0149
  158SAPE   H5R17618   2.243   6.095   7.007 -1.2568  0.3720 -1.6746
  158SAPE   C2617619   2.178   6.028   7.193  0.5726  0.2621 -0.7756
  158SAPE   H6R17620   2.239   6.111   7.233  1.6186 -0.7228 -0.2665
  158SAPE   C2717621   2.108   5.938   7.299  0.1392 -0.8135 -0.3122
  158SAPE   H7R17622   2.183   5.869   7.343 -0.3015 -1.0792  0.0343
  158SAPE   H7S17623   2.027   5.879   7.251 -1.5914  0.7306  0.5735
  158SAPE   C2817624   2.047   6.022   7.408 -0.0025 -0.6005 -0.2377
  158SAPE   H8R17625   1.959   6.080   7.378 -0.0327 -0.7703 -0.4801
  158SAPE   C2917626   2.080   6.017   7.541  0.3203 -0.3619  0.4729
  158SAPE   H9R17627   2.015   6.087   7.596  0.3806 -0.0933  0.2039
  158SAPE  C21017628   2.183   5.936   7.611  0.3418 -0.7889  0.3070
  158SAPE  H10R17629   2.215   5.994   7.700  1.3148  1.4496 -1.4377
  158SAPE  H10S17630   2.273   5.923   7.548  1.9273 -0.3130  2.3572
  158SAPE  C21117631   2.139   5.796   7.634 -0.2203  0.9419 -0.4931
  158SAPE  H11R17632   2.122   5.746   7.537  2.5375  2.1065 -1.6823
  158SAPE  C21217633   2.074   5.761   7.754 -0.2886 -0.1775  0.3171
  158SAPE  H12R17634   2.047   5.655   7.763  0.5650 -0.4605 -0.2950
  158SAPE  C21317635   2.053   5.850   7.878  0.7066 -0.9723  0.0196
  158SAPE  H13R17636   2.053   5.959   7.856  0.2096 -0.4004  2.4880
  158SAPE  H13S17637   2.135   5.833   7.951 -0.3657 -0.0166  1.5063
  158SAPE  C21417638   1.911   5.839   7.939  0.3867 -0.1085 -0.0280
  158SAPE  H14R17639   1.828   5.857   7.870  0.6490 -1.1397 -0.6269
  158SAPE  C21517640   1.889   5.801   8.065 -0.1499  0.0019 -0.4335
  158SAPE  H15R17641   1.786   5.804   8.102 -0.4647  2.3216 -1.3716
  158SAPE  C21617642   1.991   5.755   8.171 -0.7378 -0.2395 -0.3973
  158SAPE  H16R17643   1.953   5.793   8.268 -2.5446 -0.5086 -0.9539
  158SAPE  H16S17644   2.093   5.792   8.149 -0.7014  0.8636  1.4324
  158SAPE  C21717645   1.987   5.603   8.193 -0.2559  0.2717  0.0278
  158SAPE  H17R17646   1.883   5.563   8.194 -0.2693  0.0965  3.2092
  158SAPE  H17S17647   2.026   5.594   8.297  2.4611  1.4094 -0.7944
  158SAPE  C21817648   2.070   5.528   8.087  0.0438  0.0047 -0.0883
  158SAPE  H18R17649   2.162   5.588   8.073  0.0211  0.0410 -0.0845
  158SAPE  H18S17650   2.013   5.547   7.994  2.1644  2.1928 -1.0357
  158SAPE  C21917651   2.097   5.382   8.113  0.3201 -0.0451 -0.3368
  158SAPE  H19R17652   2.172   5.363   8.193  0.6251  0.7592 -0.4217
  158SAPE  H19S17653   2.153   5.341   8.026  0.8457  2.2365 -1.1392
  158SAPE  C22017654   1.961   5.304   8.135 -0.7172 -0.5198  0.6335
  158SAPE  H20R17655   1.901   5.315   8.042 -0.3592  0.3140  0.4979
  158SAPE  H20S17656   1.903   5.352   8.216 -0.3703  0.6306  0.2171
  158SAPE  H20T17657   1.980   5.197   8.161  1.6104 -0.4772 -0.6623
  158SAPE   C3317658   1.947   6.527   6.549  0.2949 -0.4223  0.0041
  158SAPE   H3X17659   1.869   6.476   6.610 -0.6135 -0.1452 -0.8865
  158SAPE   H3Y17660   1.900   6.569   6.457 -2.4204  0.5009  1.6928
  158SAPE   C3417661   1.987   6.650   6.627 -0.7082  0.1626 -0.1652
  158SAPE   H4X17662   1.899   6.697   6.676  0.3039 -0.4009  2.3456
  158SAPE   H4Y17663   2.043   6.714   6.555  1.0115 -0.0289  0.9423
  158SAPE   C3517664   2.074   6.624   6.750 -0.4846  0.0804  0.0927
  158SAPE   H5X17665   2.110   6.720   6.793  1.2174 -1.3885  2.1464
  158SAPE   H5Y17666   2.174   6.578   6.732  0.5787  1.7815  1.3283
  158SAPE   C3617667   2.002   6.544   6.858 -0.0001 -0.0079 -0.5358
  158SAPE   H6X17668   1.936   6.462   6.821 -1.4701  1.1621 -0.5752
  158SAPE   H6Y17669   1.933   6.618   6.902 -0.2515 -1.0224  0.8433
  158SAPE   C3717670   2.114   6.501   6.960 -0.2874  0.1575  0.2716
  158SAPE   H7X17671   2.165   6.408   6.928  1.9532  1.6795 -0.8536
  158SAPE   H7Y17672   2.199   6.571   6.945 -0.2153 -0.0301 -0.2012
  158SAPE   C3817673   2.066   6.497   7.107  0.1643 -0.1052  0.9473
  158SAPE   H8X17674   1.980   6.426   7.110 -0.1510  0.2522  0.5876
  158SAPE   H8Y17675   2.039   6.600   7.138  2.6582  0.8693  0.0958
  158SAPE   C3917676   2.175   6.454   7.204  1.0935  0.2486 -0.3545
  158SAPE   H9X17677   2.262   6.521   7.215  0.5798  0.7652  0.6581
  158SAPE   H9Y17678   2.225   6.360   7.173 -1.3522 -1.3957  0.3454
  158SAPE  C31017679   2.118   6.416   7.343 -0.3177  0.5734 -0.2342
  158SAPE  H10X17680   2.054   6.327   7.326  2.3783 -1.4148 -0.4043
  158SAPE  H10Y17681   2.067   6.504   7.389  0.8414  0.3623  1.5443
  158SAPE  C31117682   2.222   6.383   7.455  0.1264  0.1803  0.7065
  158SAPE  H11X17683   2.300   6.463   7.458 -1.1781  1.5377 -0.2721
  158SAPE  H11Y17684   2.269   6.285   7.430 -1.6350 -0.4781 -0.2200
  158SAPE  C31217685   2.152   6.360   7.590  0.2054  0.3529 -0.6124
  158SAPE  H12X17686   2.062   6.296   7.577 -0.8116  1.3740  1.0685
  158SAPE  H12Y17687   2.117   6.454   7.636  1.3450  0.8275 -0.6643
  158SAPE  C31317688   2.252   6.299   7.696 -0.2357 -0.2202  0.2379
  158SAPE  H13X17689   2.340   6.362   7.722  0.0605  0.0287 -1.2521
  158SAPE  H13Y17690   2.297   6.200   7.673  1.4844  0.3322  1.0499
  158SAPE  C31417691   2.183   6.268   7.820  0.1451 -0.3191  0.1713
  158SAPE  H14X17692   2.122   6.177   7.801 -1.1892  0.4800  0.5377
  158SAPE  H14Y17693   2.112   6.347   7.850  0.6765  0.7285 -1.2028
  158SAPE  C31517694   2.278   6.245   7.935 -0.2653 -0.1607  0.7149
  158SAPE  H15X17695   2.335   6.338   7.955  0.2572  0.1731 -2.0119
  158SAPE  H15Y17696   2.355   6.174   7.899  0.3981  1.3586 -1.0276
  158SAPE  C31617697   2.205   6.198   8.059  0.2374  0.6905  0.7444
  158SAPE  H16X17698   2.178   6.091   8.045 -3.0247  1.1764  2.4249
  158SAPE  H16Y17699   2.111   6.256   8.070 -1.6218 -0.9280 -3.8896
  158SAPE  C31717700   2.282   6.213   8.191  0.1198  0.3185 -0.1393
  158SAPE  H17X17701   2.292   6.322   8.211 -0.2658  0.1599  0.9611
  158SAPE  H17Y17702   2.381   6.165   8.171  0.2645  1.0412 -1.2830
  158SAPE  C31817703   2.220   6.130   8.304 -0.0169 -0.2467 -0.4325
  158SAPE  H18X17704   2.216   6.024   8.272  3.4619 -0.7976  0.6127
  158SAPE  H18Y17705   2.123   6.177   8.333 -0.5403 -0.7422 -1.3348
  158SAPE  H18Z17706   2.282   6.138   8.396  1.1214  0.2994 -1.2343
  159SAPE     N17707   2.361   2.107   6.313  0.5080  0.1394  0.7386
  159SAPE   HN117708   2.310   2.194   6.287 -0.0873 -1.0006 -2.3481
  159SAPE   HN217709   2.370   2.050   6.227  1.6403  1.2090  0.1160
  159SAPE   HN317710   2.298   2.061   6.383  0.5873 -0.7691  0.2357
  159SAPE   C1217711   2.500   2.125   6.368  0.4540  0.3610  0.0176
  159SAPE  H12A17712   2.488   2.195   6.453 -0.6161  0.2511 -0.0310
  159SAPE  H12B17713   2.558   2.172   6.285  0.4423  1.3609  0.5573
  159SAPE   C1117714   2.554   1.980   6.394 -0.1370 -0.0311 -0.3201
  159SAPE  H11A17715   2.496   1.927   6.474 -0.0228 -1.5267 -1.1862
  159SAPE  H11B17716   2.657   1.980   6.434  0.4039 -3.2748 -1.4066
  159SAPE     P17717   2.659   1.853   6.196 -0.1150 -0.2258 -0.2969
  159SAPE   O1317718   2.603   1.724   6.136 -0.1849 -0.0229  0.0153
  159SAPE   O1417719   2.722   1.960   6.106  0.0097 -0.1214  0.0403
  159SAPE   O1217720   2.545   1.912   6.272  0.4041 -0.3078  0.6530
  159SAPE   O1117721   2.769   1.816   6.312  0.7578 -0.3142  0.5610
  159SAPE    C117722   2.870   1.721   6.283  0.7046 -0.3366  0.1356
  159SAPE    HA17723   2.863   1.659   6.192 -0.5421 -1.7353  1.1369
  159SAPE    HB17724   2.970   1.768   6.276  0.1033  1.2721  1.4368
  159SAPE    C217725   2.863   1.626   6.405  0.7525 -0.2456  0.9904
  159SAPE    HS17726   2.770   1.566   6.394 -1.4462  3.0287  0.2541
  159SAPE   O2117727   2.866   1.694   6.529  0.8315 -0.6832  0.0986
  159SAPE   C2117728   2.749   1.730   6.572 -0.1246 -0.4780  1.1987
  159SAPE   O2217729   2.640   1.707   6.521  0.5025 -0.1796  0.0070
  159SAPE   C2217730   2.771   1.791   6.709 -0.5509  0.2561 -0.6541
  159SAPE   H2R17731   2.768   1.901   6.702  1.3969  0.6254  2.5365
  159SAPE   H2S17732   2.683   1.776   6.774  1.4281 -0.7392  1.9908
  159SAPE    C317733   2.983   1.524   6.401 -0.5968 -0.5877  0.1201
  159SAPE    HX17734   3.071   1.589   6.380 -1.7741  0.2904 -2.5538
  159SAPE    HY17735   2.955   1.462   6.314  0.7343 -0.7466 -0.2165
  159SAPE   O3117736   2.987   1.458   6.524 -0.7045  0.0836  0.1526
  159SAPE   C3117737   2.920   1.345   6.546 -0.1451  1.1122  0.4468
  159SAPE   O3217738   2.843   1.300   6.462  0.1537 -0.6605  0.3213
  159SAPE   C3217739   2.956   1.270   6.672  0.2748  0.4825 -0.1686
  159SAPE   H2X17740   2.908   1.331   6.751  0.3930 -0.9669  1.0608
  159SAPE   H2Y17741   3.067   1.274   6.683  0.2495 -0.9696  1.0664
  159SAPE   C2317742   2.897   1.750   6.790 -0.5553  0.0298 -0.1821
  159SAPE   H3R17743   2.903   1.821   6.875 -0.1283  1.8180 -1.6444
  159SAPE   H3S17744   2.981   1.780   6.725 -0.4071  0.2323  0.1039
  159SAPE   C2417745   2.903   1.608   6.840 -0.4131 -0.2447  0.1444
  159SAPE   H4R17746   2.885   1.541   6.753 -2.0174 -2.4834  2.0484
  159SAPE   H4S17747   2.833   1.571   6.917 -1.6239 -1.8156 -1.6240
  159SAPE   C2517748   3.052   1.600   6.882 -0.5237  0.4292  0.1238
  159SAPE   H5R17749   3.129   1.605   6.804 -0.4950  0.7044  0.1691
  159SAPE   C2617750   3.107   1.595   7.007  0.6950  0.2625 -0.0718
  159SAPE   H6R17751   3.215   1.584   7.020  0.4455  0.7854  3.2693
  159SAPE   C2717752   3.032   1.589   7.139 -0.1147  0.7963 -0.3470
  159SAPE   H7R17753   2.926   1.611   7.114 -0.2736 -0.4046 -0.7833
  159SAPE   H7S17754   3.074   1.659   7.215  0.9969  0.9607 -1.0835
  159SAPE   C2817755   3.032   1.437   7.176 -0.4754 -0.4172 -0.1611
  159SAPE   H8R17756   2.994   1.372   7.096 -0.5791  1.0524 -1.3451
  159SAPE   C2917757   3.058   1.387   7.300 -0.2234 -0.4239  0.3089
  159SAPE   H9R17758   3.060   1.279   7.316  0.7212 -0.2458  1.5895
  159SAPE  C21017759   3.109   1.458   7.426  0.1647  0.2762 -0.2091
  159SAPE  H10R17760   3.074   1.401   7.514 -0.9908 -1.3182 -1.6345
  159SAPE  H10S17761   3.053   1.552   7.440 -1.8043 -0.6926 -1.2041
  159SAPE  C21117762   3.258   1.482   7.433 -0.3182 -0.1121  0.8277
  159SAPE  H11R17763   3.296   1.580   7.404  2.2381 -1.4012 -0.5192
  159SAPE  C21217764   3.343   1.387   7.473 -0.0358 -0.0753  0.2741
  159SAPE  H12R17765   3.452   1.398   7.472  0.0800 -0.8095  2.0304
  159SAPE  C21317766   3.313   1.236   7.506  0.3374  0.0142 -0.1939
  159SAPE  H13R17767   3.208   1.208   7.483  0.4591 -0.2077 -0.4886
  159SAPE  H13S17768   3.318   1.227   7.617 -2.2087  0.0108 -0.0084
  159SAPE  C21417769   3.387   1.141   7.414 -0.1350  0.7423  0.0317
  159SAPE  H14R17770   3.376   1.163   7.307 -1.1234  2.0983  0.3912
  159SAPE  C21517771   3.486   1.059   7.458 -0.0308  0.2261  0.2536
  159SAPE  H15R17772   3.540   0.998   7.385 -1.6586  0.6724 -1.3936
  159SAPE  C21617773   3.529   1.032   7.600  0.0454  0.7428 -0.6747
  159SAPE  H16R17774   3.505   1.124   7.658  1.8535  0.7108  0.1781
  159SAPE  H16S17775   3.638   1.024   7.616 -0.1169  0.2931  0.2706
  159SAPE  C21717776   3.461   0.911   7.667 -0.5251 -0.1758  0.1757
  159SAPE  H17R17777   3.513   0.895   7.764 -0.7260 -2.5157 -0.0241
  159SAPE  H17S17778   3.469   0.823   7.599 -0.6756 -0.6172  0.7129
  159SAPE  C21817779   3.309   0.930   7.707 -0.1957 -0.2757 -0.7660
  159SAPE  H18R17780   3.243   0.960   7.622 -0.2279  1.4761 -0.1602
  159SAPE  H18S17781   3.295   1.008   7.784  0.1418 -1.6036  0.6808
  159SAPE  C21917782   3.242   0.802   7.768 -0.1346  0.3083  0.1280
  159SAPE  H19R17783   3.148   0.824   7.822 -0.9838 -2.0941 -0.2228
  159SAPE  H19S17784   3.297   0.738   7.840 -0.1408  1.8100  1.5012
  159SAPE  C22017785   3.182   0.723   7.651  0.3705 -0.1400  0.5343
  159SAPE  H20R17786   3.151   0.619   7.672  1.0109 -0.9538 -2.1233
  159SAPE  H20S17787   3.256   0.710   7.568  1.9441  0.5979  1.7656
  159SAPE  H20T17788   3.095   0.782   7.614 -0.7936 -1.6212  0.8198
  159SAPE   C3317789   2.916   1.120   6.677 -0.4545  0.4390 -0.5731
  159SAPE   H3X17790   2.970   1.072   6.592 -0.2043  1.2999 -0.9104
  159SAPE   H3Y17791   2.806   1.107   6.682 -0.2598 -0.7607  1.6243
  159SAPE   C3417792   2.972   1.043   6.802  0.5619  0.3876 -0.5514
  159SAPE   H4X17793   3.081   1.060   6.811  1.1367 -1.9789 -2.2226
  159SAPE   H4Y17794   2.961   0.933   6.790  1.3820  0.2984 -0.4918
  159SAPE   C3517795   2.908   1.087   6.934 -0.1161 -0.2348 -0.0338
  159SAPE   H5X17796   2.799   1.087   6.913  0.1253 -2.0362 -1.4933
  159SAPE   H5Y17797   2.950   1.181   6.976  1.3746 -0.5872 -0.6574
  159SAPE   C3617798   2.922   0.971   7.038  0.5552 -0.2832  0.4875
  159SAPE   H6X17799   3.031   0.956   7.055  0.4276  0.1172  1.7675
  159SAPE   H6Y17800   2.865   0.882   7.004 -1.8408  1.5262 -0.5215
  159SAPE   C3717801   2.855   1.005   7.173  0.7027 -0.3913 -0.7749
  159SAPE   H7X17802   2.751   1.040   7.156  0.4668 -0.6853  0.0113
  159SAPE   H7Y17803   2.904   1.091   7.224 -0.3110 -0.0814 -0.3009
  159SAPE   C3817804   2.850   0.887   7.276 -0.0089 -1.1333 -0.1268
  159SAPE   H8X17805   2.941   0.885   7.339  0.6318 -2.7366 -1.0483
  159SAPE   H8Y17806   2.842   0.797   7.212  1.1512  0.5605 -2.7916
  159SAPE   C3917807   2.726   0.908   7.360  0.1982  0.0475 -0.6906
  159SAPE   H9X17808   2.633   0.922   7.302 -0.7157 -0.6332  0.5652
  159SAPE   H9Y17809   2.747   0.998   7.421  0.9592 -0.7125  0.2075
  159SAPE  C31017810   2.708   0.788   7.458  1.2658  0.0753  0.2405
  159SAPE  H10X17811   2.715   0.695   7.398  0.5005 -0.1195  0.4322
  159SAPE  H10Y17812   2.607   0.801   7.503  1.1875  1.2416 -0.2225
  159SAPE  C31117813   2.802   0.780   7.575 -0.1255  0.1070 -0.8064
  159SAPE  H11X17814   2.829   0.877   7.620  0.4412 -0.9261  1.1871
  159SAPE  H11Y17815   2.895   0.737   7.531  0.4098 -3.1295  2.9363
  159SAPE  C31217816   2.746   0.682   7.686 -0.4651  0.2237  0.7556
  159SAPE  H12X17817   2.727   0.580   7.647  0.4185  0.4584 -0.3570
  159SAPE  H12Y17818   2.650   0.729   7.716  0.0229  0.1518  2.5314
  159SAPE  C31317819   2.832   0.676   7.814 -0.1071 -0.3692  0.0881
  159SAPE  H13X17820   2.917   0.607   7.794 -1.5586 -1.4549 -3.0420
  159SAPE  H13Y17821   2.769   0.624   7.888  0.7127 -3.2991 -1.1290
  159SAPE  C31417822   2.859   0.815   7.877  0.8247  0.3697  0.4309
  159SAPE  H14X17823   2.764   0.872   7.868 -1.9718 -3.4734  2.6153
  159SAPE  H14Y17824   2.948   0.863   7.831  0.7318  0.8718  0.7665
  159SAPE  C31517825   2.881   0.815   8.028 -0.5544 -0.0692 -0.1146
  159SAPE  H15X17826   2.781   0.785   8.066 -0.2391  1.4737  2.0793
  159SAPE  H15Y17827   2.904   0.920   8.052 -1.9925  0.1753  0.3025
  159SAPE  C31617828   2.987   0.712   8.078 -0.2880 -0.3792  0.3040
  159SAPE  H16X17829   3.086   0.743   8.039 -0.7094  0.3775 -0.1670
  159SAPE  H16Y17830   2.963   0.616   8.028 -2.2898  0.7359 -1.0076
  159SAPE  C31717831   3.004   0.701   8.231  0.1043 -0.3471 -0.2795
  159SAPE  H17X17832   3.012   0.800   8.280  0.6804 -1.9271  3.0665
  159SAPE  H17Y17833   3.100   0.649   8.253  1.8332  2.8507  0.4078
  159SAPE  C31817834   2.889   0.621   8.297 -0.7824 -0.3037 -0.4977
  159SAPE  H18X17835   2.790   0.662   8.266 -0.2211  0.8696 -0.7679
  159SAPE  H18Y17836   2.882   0.623   8.408  3.3077 -0.2108 -0.1011
  159SAPE  H18Z17837   2.889   0.513   8.270 -3.2779 -0.6070  0.4071
  160SAPE     N17838   4.224   0.330   6.496 -0.0378 -0.0403  0.1107
  160SAPE   HN117839   4.231   0.296   6.398 -0.8345 -0.7856  0.2915
  160SAPE   HN217840   4.127   0.366   6.508 -0.2400 -0.2610 -0.8005
  160SAPE   HN317841   4.294   0.405   6.510  0.6228 -1.0262  2.6150
  160SAPE   C1217842   4.256   0.217   6.584  0.2209  0.8474  0.5764
  160SAPE  H12A17843   4.303   0.266   6.672  3.2552  0.9718 -0.9849
  160SAPE  H12B17844   4.324   0.155   6.522  0.0866  1.7394 -0.4869
  160SAPE   C1117845   4.122   0.151   6.613 -0.0965  0.0084 -0.3152
  160SAPE  H11A17846   4.058   0.226   6.663  0.4772  0.7549 -0.6835
  160SAPE  H11B17847   4.130   0.064   6.682 -0.2463  0.4810  0.2989
  160SAPE     P17848   4.097  -0.050   6.448  0.0884  0.2636  0.4201
  160SAPE   O1317849   4.000  -0.087   6.346 -0.5991  0.9137  0.1608
  160SAPE   O1417850   4.241  -0.062   6.414 -0.1712  0.2426 -0.3567
  160SAPE   O1217851   4.066   0.100   6.493 -0.3070  0.6507 -0.5418
  160SAPE   O1117852   4.068  -0.144   6.572  0.5327  0.3000  0.2681
  160SAPE    C117853   3.932  -0.162   6.625  0.5425 -0.3721  0.6966
  160SAPE    HA17854   3.868  -0.071   6.621  0.2267 -0.5478  1.5056
  160SAPE    HB17855   3.893  -0.242   6.558  0.4797  1.0602 -1.0540
  160SAPE    C217856   3.933  -0.204   6.771  0.2408  0.2631 -0.4677
  160SAPE    HS17857   3.861  -0.286   6.791 -0.9573  1.3205 -0.3237
  160SAPE   O2117858   3.909  -0.092   6.859 -0.2209  1.0075 -0.3296
  160SAPE   C2117859   3.795  -0.031   6.862 -0.4031  0.5214  0.6313
  160SAPE   O2217860   3.695  -0.063   6.805  0.6705  0.8695  0.3661
  160SAPE   C2217861   3.809   0.091   6.954 -0.0983  0.0696  0.6640
  160SAPE   H2R17862   3.842   0.050   7.051  0.7070 -0.4415  0.1830
  160SAPE   H2S17863   3.883   0.158   6.905 -2.0219  0.9176 -1.2729
  160SAPE    C317864   4.072  -0.270   6.812 -0.0779 -0.4872 -0.0539
  160SAPE    HX17865   4.151  -0.191   6.803  0.1832 -0.7670 -0.2302
  160SAPE    HY17866   4.104  -0.346   6.738  0.2605  0.6772 -1.1463
  160SAPE   O3117867   4.060  -0.330   6.941  0.1718 -0.1550  0.0664
  160SAPE   C3117868   4.119  -0.273   7.051 -0.6433 -0.1953  0.2290
  160SAPE   O3217869   4.198  -0.185   7.052  0.6183  0.0373  0.2495
  160SAPE   C3217870   4.059  -0.344   7.178  0.1152 -0.2878  0.3386
  160SAPE   H2X17871   4.143  -0.390   7.235  1.0162 -0.4596 -1.0588
  160SAPE   H2Y17872   3.992  -0.428   7.152  0.0790  0.4111 -2.0863
  160SAPE   C2317873   3.683   0.173   6.964  0.0024 -0.4752 -0.3913
  160SAPE   H3R17874   3.586   0.118   6.958  1.0422 -2.3555 -0.7794
  160SAPE   H3S17875   3.665   0.229   6.869 -1.9026 -0.5186 -0.1083
  160SAPE   C2417876   3.673   0.266   7.085 -0.5006  0.9652 -0.0565
  160SAPE   H4R17877   3.657   0.205   7.176 -0.8534 -0.8084 -1.2542
  160SAPE   H4S17878   3.575   0.316   7.068 -1.3575 -0.2967  0.9404
  160SAPE   C2517879   3.792   0.364   7.071 -0.5507  0.1748 -0.8567
  160SAPE   H5R17880   3.809   0.409   6.971 -0.9676 -0.5711 -1.2700
  160SAPE   C2617881   3.871   0.398   7.175 -0.3838  0.6138 -0.0767
  160SAPE   H6R17882   3.951   0.472   7.159 -0.8281  1.1093 -0.0561
  160SAPE   C2717883   3.851   0.355   7.314  0.5471 -0.6316  0.0975
  160SAPE   H7R17884   3.741   0.357   7.328  0.2220 -0.0266 -2.1821
  160SAPE   H7S17885   3.889   0.426   7.392  0.1666 -0.8777  0.5107
  160SAPE   C2817886   3.896   0.215   7.358 -0.1040 -0.6244 -0.0740
  160SAPE   H8R17887   3.879   0.133   7.287  2.8000 -0.3754 -1.1725
  160SAPE   C2917888   3.947   0.173   7.475 -0.2710  0.4681 -0.2554
  160SAPE   H9R17889   3.978   0.067   7.481 -3.2482 -0.6061 -1.6747
  160SAPE  C21017890   3.965   0.255   7.603 -0.0583  0.4850  0.3913
  160SAPE  H10R17891   3.973   0.361   7.568  0.2855  0.2350 -0.3040
  160SAPE  H10S17892   4.062   0.226   7.650  1.6785  2.7800 -1.4924
  160SAPE  C21117893   3.843   0.243   7.694 -0.3109  0.3131  0.7080
  160SAPE  H11R17894   3.783   0.335   7.695  0.1049  0.7661 -2.5370
  160SAPE  C21217895   3.796   0.128   7.755  0.5053  0.5361 -0.3442
  160SAPE  H12R17896   3.707   0.146   7.817  0.5196  0.9429 -0.4368
  160SAPE  C21317897   3.860  -0.011   7.756  0.4709 -0.7721 -0.0230
  160SAPE  H13R17898   3.968  -0.012   7.783  1.5771 -0.4063 -3.8804
  160SAPE  H13S17899   3.868  -0.032   7.648  0.6188  0.7349 -0.3333
  160SAPE  C21417900   3.777  -0.118   7.823  0.7965  0.0362 -0.2247
  160SAPE  H14R17901   3.674  -0.128   7.787  0.5344 -0.3665  0.6237
  160SAPE  C21517902   3.815  -0.203   7.919 -0.2584  0.0113 -0.4830
  160SAPE  H15R17903   3.741  -0.275   7.958 -1.9456  0.6733 -2.3072
  160SAPE  C21617904   3.948  -0.225   7.982 -0.3885  0.9584 -0.4621
  160SAPE  H16R17905   4.030  -0.166   7.937 -0.2407  1.0050 -0.1321
  160SAPE  H16S17906   3.971  -0.331   7.959 -0.9845 -0.0404  3.0076
  160SAPE  C21717907   3.961  -0.220   8.132  0.3647 -0.4144 -0.6578
  160SAPE  H17R17908   4.064  -0.198   8.165  0.0540  1.0014 -0.5751
  160SAPE  H17S17909   3.920  -0.315   8.173 -1.4697  0.5408 -0.1676
  160SAPE  C21817910   3.879  -0.105   8.203 -0.2590 -0.2619 -0.1305
  160SAPE  H18R17911   3.779  -0.085   8.159  0.1374 -0.0211 -0.9272
  160SAPE  H18S17912   3.931  -0.008   8.190 -2.6842  0.9308 -1.7525
  160SAPE  C21917913   3.868  -0.132   8.352 -0.4136  0.0911  0.7278
  160SAPE  H19R17914   3.969  -0.107   8.392  1.2766 -2.4022 -1.6113
  160SAPE  H19S17915   3.837  -0.231   8.390 -0.4191  0.1072  0.7656
  160SAPE  C22017916   3.771  -0.024   8.407  0.6679  0.3372 -0.3065
  160SAPE  H20R17917   3.676  -0.045   8.353  1.3218  1.0280 -1.7751
  160SAPE  H20S17918   3.805   0.079   8.384 -0.0471  0.5183 -0.5790
  160SAPE  H20T17919   3.755  -0.036   8.517 -0.4762  0.1174 -0.4803
  160SAPE   C3317920   3.981  -0.239   7.272  0.0897  0.1778  0.5678
  160SAPE   H3X17921   3.887  -0.235   7.213  0.3606  3.6568  0.1590
  160SAPE   H3Y17922   4.033  -0.141   7.275 -0.9812  0.7423  1.1221
  160SAPE   C3417923   3.951  -0.297   7.406 -0.5613  0.5100  0.1087
  160SAPE   H4X17924   3.896  -0.217   7.460  1.5429  0.5625  2.3097
  160SAPE   H4Y17925   4.049  -0.321   7.452 -0.0248 -1.5795 -1.9336
  160SAPE   C3517926   3.861  -0.424   7.414 -0.5934 -0.2241  0.2401
  160SAPE   H5X17927   3.903  -0.499   7.343  0.0033  0.3956 -0.0788
  160SAPE   H5Y17928   3.756  -0.400   7.388 -1.1402 -1.1378  1.5398
  160SAPE   C3617929   3.847  -0.484   7.559  0.3645  0.2885  0.1167
  160SAPE   H6X17930   3.781  -0.573   7.550 -0.5039  0.9280  0.0068
  160SAPE   H6Y17931   3.804  -0.410   7.629 -0.2532  1.0631 -1.0547
  160SAPE   C3717932   3.972  -0.539   7.624 -0.3044  0.6447 -0.1500
  160SAPE   H7X17933   4.055  -0.466   7.631  0.2620 -0.0251  0.4365
  160SAPE   H7Y17934   4.000  -0.634   7.573  1.3209 -0.2499  2.2124
  160SAPE   C3817935   3.934  -0.582   7.768  0.2077  0.4101 -0.7889
  160SAPE   H8X17936   3.833  -0.628   7.769  0.4107 -0.0421 -0.8471
  160SAPE   H8Y17937   3.924  -0.490   7.829 -0.6800 -0.5921  0.6775
  160SAPE   C3917938   4.045  -0.664   7.835  0.7851  0.0134  0.0044
  160SAPE   H9X17939   4.136  -0.605   7.810 -1.8845  3.2148 -3.0363
  160SAPE   H9Y17940   4.055  -0.762   7.784 -1.6889 -0.2939 -0.0044
  160SAPE  C31017941   4.010  -0.690   7.984 -0.3721 -0.7615  0.0900
  160SAPE  H10X17942   3.919  -0.754   7.989 -0.2217 -0.9222  0.7819
  160SAPE  H10Y17943   3.994  -0.590   8.028  0.1799 -0.3442 -0.6282
  160SAPE  C31117944   4.120  -0.761   8.063  0.0475  0.0937 -0.9279
  160SAPE  H11X17945   4.209  -0.694   8.062 -1.8009  2.7129 -0.7538
  160SAPE  H11Y17946   4.136  -0.855   8.007 -1.5357 -0.3343 -0.7138
  160SAPE  C31217947   4.099  -0.787   8.215 -0.8494  0.2109  0.0565
  160SAPE  H12X17948   4.195  -0.803   8.269 -0.8978  0.0292  0.0885
  160SAPE  H12Y17949   4.024  -0.869   8.223 -2.9838  2.1677  1.2607
  160SAPE  C31317950   4.034  -0.664   8.285  0.0499 -0.0624  0.3797
  160SAPE  H13X17951   3.924  -0.671   8.266 -0.1969 -0.7005  1.8791
  160SAPE  H13Y17952   4.076  -0.573   8.238 -1.0919 -0.0647 -0.7037
  160SAPE  C31417953   4.062  -0.669   8.437  0.0592 -0.2996 -0.1214
  160SAPE  H14X17954   4.030  -0.572   8.481 -0.4636 -1.0486  1.2245
  160SAPE  H14Y17955   4.167  -0.694   8.462  1.1971  1.4373 -2.7863
  160SAPE  C31517956   3.978  -0.785   8.502 -0.4129 -0.3485 -0.2846
  160SAPE  H15X17957   4.003  -0.881   8.451  0.2994 -0.6940  0.6951
  160SAPE  H15Y17958   3.873  -0.757   8.476 -1.1128 -3.3751 -1.0954
  160SAPE  C31617959   3.994  -0.827   8.646  0.6873 -0.0742 -0.3917
  160SAPE  H16X17960   3.908  -0.894   8.666  2.0381 -1.2900  1.6787
  160SAPE  H16Y17961   3.977  -0.742   8.716 -0.7976 -1.4415  0.9833
  160SAPE  C31717962   4.123  -0.900   8.676  0.1800 -0.6623 -0.3650
  160SAPE  H17X17963   4.211  -0.836   8.654  1.8142 -1.9189  1.9735
  160SAPE  H17Y17964   4.139  -0.984   8.604 -3.0296 -1.5108 -0.2184
  160SAPE  C31817965   4.134  -0.953   8.817  0.3416 -0.5107  0.1204
  160SAPE  H18X17966   4.237  -0.990   8.836 -0.0055 -1.6874 -0.2144
  160SAPE  H18Y17967   4.074  -1.043   8.841 -0.7136 -0.5060 -2.2502
  160SAPE  H18Z17968   4.117  -0.872   8.891  2.7470 -0.9280  1.2266
  161SOPE     N17969   1.384   2.798  10.758  0.3141 -0.2173  0.2225
  161SOPE   HN117970   1.442   2.726  10.807 -0.8028 -0.5897  1.0323
  161SOPE   HN217971   1.450   2.856  10.702  2.1601 -1.3339  1.1275
  161SOPE   HN317972   1.352   2.860  10.835  0.6629 -1.3171  1.2988
  161SOPE   C1217973   1.270   2.734  10.683  0.3630 -0.3726  0.4546
  161SOPE  H12A17974   1.241   2.640  10.734  0.1152  0.2223  1.4278
  161SOPE  H12B17975   1.299   2.725  10.576 -0.8919  1.7840 -0.1417
  161SOPE   C1117976   1.147   2.841  10.692  0.6378  0.4608  0.0242
  161SOPE  H11A17977   1.113   2.847  10.798 -3.5055  2.4265 -1.1857
  161SOPE  H11B17978   1.065   2.785  10.641 -1.4004  1.7525  1.6856
  161SOPE     P17979   1.181   2.969  10.479  0.2347  0.0014  0.2425
  161SOPE   O1317980   1.293   2.884  10.427 -0.3972  0.1084 -0.0925
  161SOPE   O1417981   1.170   3.113  10.434 -0.1951 -0.2421 -0.3368
  161SOPE   O1217982   1.186   2.966  10.635 -0.0377 -0.2386  0.0076
  161SOPE   O1117983   1.036   2.902  10.443  0.4434 -0.0659  0.0111
  161SOPE    C117984   1.004   2.782  10.373 -0.2311 -0.6523  0.3229
  161SOPE    HA17985   0.944   2.713  10.437  0.1041  0.5844  2.0314
  161SOPE    HB17986   1.101   2.728  10.369  0.1677 -0.0552  1.4071
  161SOPE    C217987   0.929   2.808  10.238 -0.2266  0.5658 -0.0209
  161SOPE    HS17988   0.924   2.712  10.183 -2.9538  2.1992 -2.9248
  161SOPE   O2117989   0.991   2.913  10.156 -0.0525  0.8728  0.4935
  161SOPE   C2117990   1.101   2.867  10.095  0.8736 -0.3638 -0.2952
  161SOPE   O2217991   1.152   2.758  10.108 -0.3698 -0.2412  0.0241
  161SOPE   C2217992   1.149   2.978  10.004  0.0055 -0.2594 -0.1316
  161SOPE   H2R17993   1.250   2.942   9.974 -0.2533 -2.9043  1.7133
  161SOPE   H2S17994   1.155   3.071  10.064  2.1636 -1.3870  1.6161
  161SOPE    C317995   0.782   2.854  10.268  0.4731  0.4157  0.2294
  161SOPE    HX17996   0.782   2.940  10.339  2.5824  1.8045 -1.3141
  161SOPE    HY17997   0.725   2.777  10.324  0.7352  0.7483  0.9799
  161SOPE   O3117998   0.720   2.901  10.147  0.0550  0.0116 -0.5305
  161SOPE   C3117999   0.601   2.845  10.112 -0.3420 -0.2912  0.5309
  161SOPE   O3218000   0.534   2.769  10.173  0.0618 -0.0096  0.0146
  161SOPE   C3218001   0.576   2.899   9.967 -0.6041 -0.2231  0.8888
  161SOPE   H2X18002   0.572   2.813   9.896 -0.3634 -0.2034  0.8511
  161SOPE   H2Y18003   0.657   2.963   9.928 -1.5368  0.1475 -0.5206
  161SOPE   C2318004   1.062   3.020   9.883 -0.4247  0.0586 -0.6622
  161SOPE   H3R18005   1.094   3.121   9.848  0.2251 -0.0414 -0.3921
  161SOPE   H3S18006   0.956   3.027   9.913  0.0474 -2.7467  2.1039
  161SOPE   C2418007   1.085   2.925   9.766 -0.0817 -0.0510  0.0146
  161SOPE   H4R18008   1.192   2.924   9.734 -0.2077  1.4176 -0.5239
  161SOPE   H4S18009   1.050   2.824   9.799  1.5691 -0.4480  0.6670
  161SOPE   C2518010   1.004   2.977   9.645 -0.1303  0.3577  0.5222
  161SOPE   H5R18011   0.988   3.086   9.658  2.1833  1.1526 -2.3334
  161SOPE   H5S18012   1.059   2.971   9.549 -1.1257 -3.1070  0.0477
  161SOPE   C2618013   0.872   2.898   9.633  0.1529 -0.3531 -0.0147
  161SOPE   H6R18014   0.892   2.790   9.611 -1.0048 -0.0223 -3.2742
  161SOPE   H6S18015   0.823   2.911   9.732 -1.8889 -1.1671 -0.8507
  161SOPE   C2718016   0.792   2.948   9.513  0.3674  0.0927  0.7108
  161SOPE   H7R18017   0.739   3.040   9.547  0.1629  1.0131 -1.8598
  161SOPE   H7S18018   0.858   2.992   9.435  0.0506 -0.9510 -0.1666
  161SOPE   C2818019   0.692   2.842   9.456 -0.5486 -0.3536  0.6506
  161SOPE   H8R18020   0.677   2.763   9.532 -2.1806 -0.5958  0.1023
  161SOPE   H8S18021   0.595   2.891   9.434 -0.4830 -0.6230 -0.3074
  161SOPE   C2918022   0.761   2.797   9.327 -0.3448 -0.0431  0.0821
  161SOPE   H9118023   0.868   2.771   9.329 -0.7103 -1.9805 -1.5617
  161SOPE  C21018024   0.704   2.780   9.207  0.0773  0.3878 -0.5315
  161SOPE  H10118025   0.771   2.751   9.124  0.1042  0.5947 -0.5833
  161SOPE  C21118026   0.557   2.799   9.166 -1.0250 -0.0708  0.3351
  161SOPE  H11R18027   0.506   2.852   9.249 -1.3553  2.6273 -1.4894
  161SOPE  H11S18028   0.506   2.700   9.156  0.5816 -0.9567  0.5135
  161SOPE  C21218029   0.537   2.864   9.027 -0.4149 -0.1768  0.1889
  161SOPE  H12R18030   0.568   2.783   8.959 -1.8556 -0.4887 -0.1304
  161SOPE  H12S18031   0.608   2.949   9.024  1.0470 -1.3919 -1.3720
  161SOPE  C21318032   0.402   2.929   8.992  0.4778  0.4706 -0.1472
  161SOPE  H13R18033   0.436   3.020   8.939  1.6689  1.2936  1.9035
  161SOPE  H13S18034   0.355   2.953   9.090 -0.6797 -3.0308  0.3198
  161SOPE  C21418035   0.321   2.838   8.905  0.1296 -0.1484  0.3144
  161SOPE  H14R18036   0.300   2.752   8.972 -2.4831 -0.9728 -1.4084
  161SOPE  H14S18037   0.375   2.796   8.817 -1.7225  0.3955 -1.1403
  161SOPE  C21518038   0.185   2.899   8.860 -0.6735 -0.0062 -0.2604
  161SOPE  H15R18039   0.208   3.003   8.830 -0.9636  0.3350  0.6523
  161SOPE  H15S18040   0.107   2.901   8.940 -2.5927 -0.4099 -2.0294
  161SOPE  C21618041   0.122   2.819   8.747 -0.1151  0.3694 -0.1627
  161SOPE  H16R18042   0.188   2.775   8.669  1.1109 -2.5100  2.2884
  161SOPE  H16S18043   0.053   2.883   8.688 -0.1605  0.3322 -0.1496
  161SOPE  C21718044   0.034   2.692   8.794  0.0632 -0.2498  0.5113
  161SOPE  H17R18045   0.095   2.631   8.863 -0.1901 -1.6993 -0.5079
  161SOPE  H17S18046   0.023   2.640   8.697 -3.6925 -1.2446  1.3201
  161SOPE  C21818047  -0.108   2.727   8.844  1.1684  0.2600  0.7272
  161SOPE  H18R18048  -0.147   2.640   8.901  0.6804  0.3639  0.5598
  161SOPE  H18S18049  -0.178   2.754   8.762 -0.4094 -1.0212  1.5928
  161SOPE  H18T18050  -0.107   2.812   8.915 -1.9175  1.5823 -0.6297
  161SOPE   C3318051   0.437   2.973   9.947  0.7297 -0.3727 -0.0670
  161SOPE   H3X18052   0.430   3.056  10.020  0.1292 -1.1972  0.8255
  161SOPE   H3Y18053   0.353   2.912   9.986 -0.8815  4.0541  4.3252
  161SOPE   C3418054   0.423   3.022   9.804  0.5508  0.5756 -0.5320
  161SOPE   H4X18055   0.439   2.932   9.741  1.1625  0.1369  0.2371
  161SOPE   H4Y18056   0.505   3.093   9.779  1.0337 -0.0347 -0.7287
  161SOPE   C3518057   0.287   3.091   9.770 -0.0746 -0.0958  0.3499
  161SOPE   H5X18058   0.262   3.168   9.846 -1.5227  0.1438 -0.3313
  161SOPE   H5Y18059   0.205   3.016   9.776 -2.0182  1.9869  0.9141
  161SOPE   C3618060   0.279   3.163   9.642 -0.5686  0.0741 -0.0176
  161SOPE   H6X18061   0.351   3.247   9.654  0.9284 -1.1710 -0.0754
  161SOPE   H6Y18062   0.175   3.201   9.630 -1.4186 -0.9129  3.1181
  161SOPE   C3718063   0.314   3.078   9.519  0.3076  0.0534  0.9958
  161SOPE   H7X18064   0.259   2.983   9.503 -0.2479  0.3870  0.8939
  161SOPE   H7Y18065   0.422   3.052   9.522  0.0983 -1.4479 -1.7027
  161SOPE   C3818066   0.296   3.164   9.390 -0.5703  0.1051 -0.4363
  161SOPE   H8X18067   0.194   3.209   9.393 -0.9648 -0.7998  1.4211
  161SOPE   H8Y18068   0.304   3.108   9.295  1.8449  1.6156 -1.2073
  161SOPE   C3918069   0.407   3.275   9.384  0.8829  0.5284 -0.6254
  161SOPE   H9X18070   0.508   3.240   9.415  1.3086  2.6228  0.4822
  161SOPE   H9Y18071   0.374   3.345   9.464 -0.8008 -1.8701  0.9611
  161SOPE  C31018072   0.405   3.342   9.254  0.0068 -0.4954  0.4752
  161SOPE  H10X18073   0.477   3.427   9.249  0.5975 -1.0211 -0.2519
  161SOPE  H10Y18074   0.309   3.392   9.229 -0.2282 -1.7983 -1.3992
  161SOPE  C31118075   0.428   3.239   9.138  0.4030 -0.4776  0.5869
  161SOPE  H11X18076   0.330   3.207   9.095  0.5650  1.0410 -1.0475
  161SOPE  H11Y18077   0.476   3.151   9.185 -1.3545 -2.2808 -0.7965
  161SOPE  C31218078   0.501   3.310   9.020  0.0045  0.5926 -0.5234
  161SOPE  H12X18079   0.536   3.228   8.955  2.4337 -0.2232  1.6417
  161SOPE  H12Y18080   0.599   3.348   9.057  0.8350  0.8212 -2.7986
  161SOPE  C31318081   0.425   3.413   8.937 -0.6781 -0.3417  0.0146
  161SOPE  H13X18082   0.413   3.513   8.984  0.3585  0.3467 -1.1454
  161SOPE  H13Y18083   0.317   3.387   8.933 -1.1392  0.9240  2.3548
  161SOPE  C31418084   0.486   3.430   8.796  0.7946  0.2074 -0.2725
  161SOPE  H14X18085   0.429   3.505   8.737 -1.2433 -1.7681 -0.9630
  161SOPE  H14Y18086   0.466   3.333   8.745  1.8924 -0.7649  1.0673
  161SOPE  C31518087   0.636   3.483   8.801  0.2624 -0.3501  0.3581
  161SOPE  H15X18088   0.692   3.432   8.882 -0.9403 -1.2656  0.6223
  161SOPE  H15Y18089   0.644   3.589   8.836  0.0251 -0.7858  1.7750
  161SOPE  C31618090   0.710   3.452   8.667  0.2722  0.9588 -0.0429
  161SOPE  H16X18091   0.655   3.502   8.584 -0.7594  0.9764  0.6475
  161SOPE  H16Y18092   0.710   3.345   8.637  1.3075  0.9018  0.1171
  161SOPE  C31718093   0.856   3.506   8.666 -0.4637  0.0445  0.7202
  161SOPE  H17X18094   0.912   3.448   8.742 -2.0111  0.3376  2.1155
  161SOPE  H17Y18095   0.860   3.608   8.710  0.4870  0.2754  0.1353
  161SOPE  C31818096   0.932   3.494   8.531  0.0805 -0.3373  0.4628
  161SOPE  H18X18097   1.035   3.531   8.552 -0.4339  1.5789 -0.1846
  161SOPE  H18Y18098   0.883   3.549   8.447  0.0843  0.0032  0.6817
  161SOPE  H18Z18099   0.949   3.386   8.512  2.7274  0.0854 -0.0190
  162SOPE     N18100   5.810   2.451  10.975  0.3017  0.2501 -0.2472
  162SOPE   HN118101   5.894   2.500  10.939  2.0991 -1.8479  0.8818
  162SOPE   HN218102   5.821   2.353  11.007  1.2091  0.7087  0.9281
  162SOPE   HN318103   5.743   2.470  10.898  0.5827 -2.3847 -1.2306
  162SOPE   C1218104   5.760   2.521  11.097  0.2084 -0.2817 -0.0508
  162SOPE  H12A18105   5.801   2.624  11.093 -1.3370  0.4920  2.3155
  162SOPE  H12B18106   5.806   2.482  11.191 -1.8984  2.4873  2.3226
  162SOPE   C1118107   5.610   2.523  11.090  0.4698  0.4466  0.2870
  162SOPE  H11A18108   5.565   2.576  11.176  1.7373  0.8312  0.7335
  162SOPE  H11B18109   5.568   2.421  11.103  2.5072 -0.3563  0.9375
  162SOPE     P18110   5.411   2.595  10.940 -0.7744  0.0021  0.0530
  162SOPE   O1318111   5.376   2.737  10.955  0.0275  0.4228 -0.2734
  162SOPE   O1418112   5.333   2.495  11.020  0.0213  0.1814  0.2428
  162SOPE   O1218113   5.565   2.570  10.960  0.4705 -0.3970 -0.8512
  162SOPE   O1118114   5.403   2.554  10.796  0.3983  0.3384  0.2521
  162SOPE    C118115   5.419   2.650  10.682 -0.0962  0.2259 -0.3274
  162SOPE    HA18116   5.525   2.681  10.669  1.0642 -1.1249  4.2353
  162SOPE    HB18117   5.368   2.745  10.710  1.6256  1.1568 -0.1722
  162SOPE    C218118   5.369   2.587  10.545 -0.0927 -0.2906  0.2789
  162SOPE    HS18119   5.260   2.573  10.561 -0.4763 -2.1192 -2.9615
  162SOPE   O2118120   5.444   2.474  10.516 -0.2470 -0.1201  0.1976
  162SOPE   C2118121   5.383   2.381  10.436  0.4317 -0.4608  0.0644
  162SOPE   O2218122   5.267   2.394  10.401 -0.0913 -0.4534 -0.7947
  162SOPE   C2218123   5.468   2.259  10.414 -0.1757  0.8057  0.6895
  162SOPE   H2R18124   5.459   2.185  10.497  0.7703  1.0768  1.0518
  162SOPE   H2S18125   5.574   2.292  10.424 -0.2034  1.3304 -0.6310
  162SOPE    C318126   5.396   2.696  10.429 -0.3107 -0.3975 -0.8925
  162SOPE    HX18127   5.506   2.714  10.426 -0.4081  1.6970  2.6047
  162SOPE    HY18128   5.355   2.795  10.458  0.7597 -0.2067  0.0362
  162SOPE   O3118129   5.362   2.646  10.295  0.4597 -0.4936 -0.2697
  162SOPE   C3118130   5.233   2.676  10.265 -0.0608  0.3875  0.1149
  162SOPE   O3218131   5.159   2.737  10.339 -0.1505  0.3131  0.4256
  162SOPE   C3218132   5.188   2.597  10.142 -0.3445  0.0342  0.0160
  162SOPE   H2X18133   5.080   2.573  10.157 -0.8010  2.3445  0.7926
  162SOPE   H2Y18134   5.234   2.498  10.122  1.4024  0.6807  0.7192
  162SOPE   C2318135   5.440   2.191  10.278 -0.3028  0.1318  1.4907
  162SOPE   H3R18136   5.420   2.261  10.194 -3.2136 -4.3482 -2.0721
  162SOPE   H3S18137   5.351   2.125  10.273  1.0283 -1.6169 -1.4495
  162SOPE   C2418138   5.552   2.110  10.228 -0.3604  0.3333 -0.3171
  162SOPE   H4R18139   5.647   2.162  10.252 -0.8370  0.3899  1.5429
  162SOPE   H4S18140   5.563   2.006  10.266  1.6888  0.1568 -1.2410
  162SOPE   C2518141   5.547   2.088  10.071  0.0188  0.0515 -0.2306
  162SOPE   H5R18142   5.615   2.003  10.050 -1.2850 -1.3967  1.1305
  162SOPE   H5S18143   5.446   2.052  10.044  1.0280 -2.4956 -0.8473
  162SOPE   C2618144   5.593   2.214   9.987 -0.8062 -0.3298  0.0712
  162SOPE   H6R18145   5.543   2.309  10.013  2.5448  1.5629  0.1558
  162SOPE   H6S18146   5.704   2.214   9.999 -0.8851  1.3492  1.0409
  162SOPE   C2718147   5.564   2.180   9.838  0.0272  0.3497 -0.8855
  162SOPE   H7R18148   5.535   2.073   9.839  1.3285 -0.0211 -0.0406
  162SOPE   H7S18149   5.484   2.250   9.805 -1.0513  0.5539  1.8777
  162SOPE   C2818150   5.689   2.198   9.746 -0.1742  0.1812  1.1467
  162SOPE   H8R18151   5.728   2.302   9.747  0.6758 -0.0474 -1.6055
  162SOPE   H8S18152   5.778   2.142   9.783  0.3280 -1.4719 -2.2448
  162SOPE   C2918153   5.646   2.172   9.599  0.0770  0.4042 -0.0417
  162SOPE   H9118154   5.553   2.225   9.574  0.4765  1.4856  0.7237
  162SOPE  C21018155   5.697   2.076   9.523  0.2033  0.3319  0.4991
  162SOPE  H10118156   5.661   2.055   9.422 -0.7137  0.3280  0.8174
  162SOPE  C21118157   5.799   1.977   9.566  0.3629  0.8517  0.0714
  162SOPE  H11R18158   5.774   1.872   9.540  3.1980  0.0240  0.3320
  162SOPE  H11S18159   5.815   1.973   9.676  1.9036  1.6329 -0.0882
  162SOPE  C21218160   5.934   2.001   9.494  0.6742 -0.1562 -0.2992
  162SOPE  H12R18161   5.953   2.110   9.501  0.8089 -0.2606  1.8797
  162SOPE  H12S18162   5.926   1.982   9.385  2.8649 -0.0956 -0.5003
  162SOPE  C21318163   6.043   1.915   9.560  0.1221  0.0333 -0.3295
  162SOPE  H13R18164   6.008   1.809   9.555 -0.4441  0.2614 -1.6533
  162SOPE  H13S18165   6.071   1.948   9.662 -0.9152  2.8405 -0.8691
  162SOPE  C21418166   6.171   1.928   9.475  0.0499 -0.1742  0.3382
  162SOPE  H14R18167   6.261   1.880   9.519  0.1446 -0.2855  0.0322
  162SOPE  H14S18168   6.191   2.037   9.476  0.6072 -0.2764  1.6368
  162SOPE  C21518169   6.172   1.882   9.325  0.6637 -0.5286  0.1650
  162SOPE  H15R18170   6.090   1.922   9.262  0.3566  0.1276  0.9635
  162SOPE  H15S18171   6.152   1.772   9.324  1.3525 -0.6585  0.3267
  162SOPE  C21618172   6.305   1.926   9.256  0.5330  1.0070 -0.4531
  162SOPE  H16R18173   6.315   1.854   9.173  0.3127  1.0337 -0.5038
  162SOPE  H16S18174   6.392   1.916   9.324  0.5926  0.0895 -0.6645
  162SOPE  C21718175   6.307   2.070   9.203 -0.0529  0.2359 -0.0053
  162SOPE  H17R18176   6.308   2.146   9.284 -0.7546 -0.5413  0.7488
  162SOPE  H17S18177   6.211   2.094   9.152 -0.3882  0.5213  0.7496
  162SOPE  C21818178   6.424   2.090   9.097  0.1021 -0.1045 -0.9027
  162SOPE  H18R18179   6.394   2.043   9.000 -2.0348 -0.6687 -0.0435
  162SOPE  H18S18180   6.520   2.053   9.138 -0.6523 -0.5955  0.5009
  162SOPE  H18T18181   6.435   2.198   9.078  2.9227 -0.1151  0.2144
  162SOPE   C3318182   5.183   2.697  10.024 -0.4017  0.8565  1.3567
  162SOPE   H3X18183   5.146   2.640   9.937  2.6317 -0.0825  0.5997
  162SOPE   H3Y18184   5.280   2.742   9.994 -0.7489  2.2137  2.1480
  162SOPE   C3418185   5.086   2.816  10.041  0.5072 -0.0798  0.1290
  162SOPE   H4X18186   5.105   2.864  10.140 -0.8770 -1.1701  0.9629
  162SOPE   H4Y18187   4.986   2.774  10.063  0.1288  1.1794  0.9326
  162SOPE   C3518188   5.076   2.911   9.925  0.2399 -0.0808  0.2741
  162SOPE   H5X18189   5.174   2.954   9.897 -1.1780  3.1083 -0.3754
  162SOPE   H5Y18190   5.025   3.004   9.960 -0.9744 -1.3308  2.0118
  162SOPE   C3618191   5.004   2.859   9.798 -0.0380 -0.0999 -0.3888
  162SOPE   H6X18192   4.908   2.813   9.829  0.1494  1.7451  3.5589
  162SOPE   H6Y18193   5.061   2.781   9.743 -0.0151 -1.3075  1.2616
  162SOPE   C3718194   4.971   2.977   9.704  0.1679  0.0833 -0.2390
  162SOPE   H7X18195   5.054   3.001   9.634 -0.3595 -0.1099 -0.9376
  162SOPE   H7Y18196   4.952   3.067   9.767 -0.6598  0.5559 -1.1385
  162SOPE   C3818197   4.851   2.950   9.617  0.8647 -1.3920  0.2584
  162SOPE   H8X18198   4.821   3.041   9.560 -0.6609 -1.6394  0.6236
  162SOPE   H8Y18199   4.756   2.916   9.663 -0.8381  0.7460 -1.4536
  162SOPE   C3918200   4.876   2.842   9.509 -0.1782 -0.3010  0.5565
  162SOPE   H9X18201   4.782   2.801   9.468 -1.6355 -0.0683  3.3755
  162SOPE   H9Y18202   4.920   2.756   9.563  1.8021  0.6880  0.6195
  162SOPE  C31018203   4.964   2.900   9.386 -0.0547  0.2130 -0.1437
  162SOPE  H10X18204   5.056   2.941   9.432 -1.9754  0.4339  3.9448
  162SOPE  H10Y18205   4.904   2.985   9.347  0.6671  0.5195 -0.6040
  162SOPE  C31118206   4.982   2.791   9.283  0.3639  0.2969  0.6037
  162SOPE  H11X18207   4.879   2.783   9.241  0.7925  0.1124 -0.4424
  162SOPE  H11Y18208   5.011   2.690   9.319 -2.9516 -0.8059  0.5582
  162SOPE  C31218209   5.062   2.835   9.158 -0.2337 -0.6431 -0.1235
  162SOPE  H12X18210   5.022   2.935   9.135  1.8657  0.5290  1.0119
  162SOPE  H12Y18211   5.037   2.763   9.077 -3.2049 -0.1452  0.2461
  162SOPE  C31318212   5.210   2.840   9.195 -0.1346  0.7050  1.0890
  162SOPE  H13X18213   5.243   2.741   9.232  0.2381  0.4534  0.1336
  162SOPE  H13Y18214   5.217   2.911   9.280  0.8937  2.7281 -0.6003
  162SOPE  C31418215   5.303   2.902   9.081  0.3204  0.4139 -1.0810
  162SOPE  H14X18216   5.411   2.894   9.110  0.4219 -1.2390 -1.8104
  162SOPE  H14Y18217   5.280   3.008   9.061  0.1150  0.0867 -2.7499
  162SOPE  C31518218   5.300   2.820   8.951 -0.1447 -0.2381  0.0346
  162SOPE  H15X18219   5.200   2.814   8.903 -0.2687 -0.2296  0.2850
  162SOPE  H15Y18220   5.329   2.717   8.980  2.0592 -0.0695 -1.3470
  162SOPE  C31618221   5.393   2.876   8.848  0.5537  0.4144  0.0140
  162SOPE  H16X18222   5.497   2.883   8.887 -0.3627  1.2882  2.4218
  162SOPE  H16Y18223   5.376   2.981   8.818  0.3797  0.3333 -0.1776
  162SOPE  C31718224   5.392   2.780   8.726  0.0717 -0.1703 -0.8733
  162SOPE  H17X18225   5.310   2.816   8.660 -0.2527 -0.8540 -0.8396
  162SOPE  H17Y18226   5.383   2.674   8.756  0.4961 -0.1466 -0.6489
  162SOPE  C31818227   5.515   2.784   8.638  0.2508 -0.2328  0.2109
  162SOPE  H18X18228   5.552   2.886   8.613 -0.8254 -0.0108 -0.5342
  162SOPE  H18Y18229   5.484   2.735   8.543 -1.3645 -1.1171  1.1549
  162SOPE  H18Z18230   5.603   2.729   8.680  0.0907  0.0516  0.9365
  163SOPE     N18231   1.186   6.479  10.658  0.2226 -0.6447  0.3000
  163SOPE   HN118232   1.191   6.377  10.637 -0.8944 -0.4763 -0.8888
  163SOPE   HN218233   1.281   6.518  10.676  0.4779 -0.0175 -2.0655
  163SOPE   HN318234   1.142   6.501  10.750 -0.3372  2.2694 -0.5611
  163SOPE   C1218235   1.113   6.552  10.552  0.5444 -0.2427 -0.3087
  163SOPE  H12A18236   1.011   6.508  10.558  0.3894  0.0094 -1.0403
  163SOPE  H12B18237   1.158   6.523  10.455 -1.1411  1.5120 -1.7008
  163SOPE   C1118238   1.116   6.699  10.587  0.5124 -0.2515 -0.7142
  163SOPE  H11A18239   1.061   6.763  10.514  0.4698  1.6867  0.9209
  163SOPE  H11B18240   1.221   6.733  10.582  0.2944  0.6094  0.2515
  163SOPE     P18241   1.076   6.874  10.774 -0.2909 -0.0383  0.3500
  163SOPE   O1318242   1.215   6.920  10.779 -0.1564  0.0200  0.1446
  163SOPE   O1418243   0.996   6.889  10.898 -0.0018  0.4071 -0.1052
  163SOPE   O1218244   1.076   6.720  10.727 -0.4297  0.1852  0.0581
  163SOPE   O1118245   0.996   6.936  10.647 -0.3908 -0.0862  0.3153
  163SOPE    C118246   1.012   7.074  10.609 -0.3601 -0.0972 -0.4195
  163SOPE    HA18247   1.116   7.099  10.579 -0.2815  1.3669  0.9468
  163SOPE    HB18248   0.985   7.141  10.693  1.9778 -1.3622  1.4487
  163SOPE    C218249   0.921   7.109  10.496 -0.0602 -0.1649 -0.0473
  163SOPE    HS18250   0.815   7.098  10.528 -0.3797  1.3837 -0.4589
  163SOPE   O2118251   0.963   7.033  10.389 -0.3238  0.3788  0.4218
  163SOPE   C2118252   0.854   6.984  10.313 -0.0974 -0.4300  0.1159
  163SOPE   O2218253   0.736   7.003  10.332  0.1911 -0.0060  0.2055
  163SOPE   C2218254   0.907   6.892  10.206  0.0169  0.2064 -0.0882
  163SOPE   H2R18255   0.916   6.784  10.233  2.7128  0.2668 -0.3883
  163SOPE   H2S18256   1.008   6.920  10.168  0.0474  1.4243  0.8346
  163SOPE    C318257   0.934   7.265  10.453  0.2630  0.0599 -0.6689
  163SOPE    HX18258   1.040   7.273  10.421  0.9489 -0.8341  1.2548
  163SOPE    HY18259   0.901   7.331  10.535  2.3536  0.3913 -0.0410
  163SOPE   O3118260   0.850   7.293  10.340 -0.2279  0.8747  0.0536
  163SOPE   C3118261   0.854   7.426  10.309 -0.2629 -0.1481 -0.6706
  163SOPE   O3218262   0.911   7.517  10.374  0.3524  0.0447  0.4671
  163SOPE   C3218263   0.795   7.448  10.170  0.1635  0.0484  0.5419
  163SOPE   H2X18264   0.685   7.429  10.162  0.5410 -2.1295 -0.3532
  163SOPE   H2Y18265   0.846   7.382  10.096  1.2183 -1.4841  2.5515
  163SOPE   C2318266   0.827   6.907  10.081  0.1221 -0.1073  0.0291
  163SOPE   H3R18267   0.720   6.891  10.109  0.4795 -0.2622  1.3601
  163SOPE   H3S18268   0.856   6.831  10.006  0.9028 -0.2404  0.4642
  163SOPE   C2418269   0.840   7.035  10.004  0.2949 -0.0808 -0.2553
  163SOPE   H4R18270   0.797   7.117  10.065 -1.3322 -1.0449 -0.0546
  163SOPE   H4S18271   0.948   7.054   9.985  1.0554 -2.3604  1.3867
  163SOPE   C2518272   0.768   7.021   9.870  0.5353 -0.3559 -0.2330
  163SOPE   H5R18273   0.799   6.935   9.808 -2.3207 -3.6549  2.5239
  163SOPE   H5S18274   0.660   7.011   9.896  0.3550  0.9072 -0.4180
  163SOPE   C2618275   0.771   7.157   9.798 -0.4055 -0.1142  0.1534
  163SOPE   H6R18276   0.875   7.186   9.774 -0.3728  0.3857  0.8565
  163SOPE   H6S18277   0.721   7.133   9.702  3.3376 -1.1408 -1.6939
  163SOPE   C2718278   0.692   7.272   9.867  0.5779 -0.2329  0.2167
  163SOPE   H7R18279   0.626   7.226   9.944  1.3753  0.5259  1.3852
  163SOPE   H7S18280   0.763   7.335   9.924 -0.0227  0.1570  0.5480
  163SOPE   C2818281   0.624   7.367   9.768 -0.2061 -0.3029 -0.5166
  163SOPE   H8R18282   0.601   7.458   9.827 -0.2506 -0.0700 -0.8903
  163SOPE   H8S18283   0.697   7.395   9.689  0.4423 -3.7814 -1.3228
  163SOPE   C2918284   0.492   7.311   9.715 -0.4325  0.3878  0.4811
  163SOPE   H9118285   0.429   7.290   9.802  0.5158 -0.7996  0.9018
  163SOPE  C21018286   0.463   7.263   9.595 -0.4377 -0.4707 -0.0058
  163SOPE  H10118287   0.354   7.253   9.583 -0.8000  0.5058  1.9222
  163SOPE  C21118288   0.555   7.259   9.479  0.4051  0.3157 -0.0172
  163SOPE  H11R18289   0.596   7.157   9.462  1.7599  0.7619  0.4138
  163SOPE  H11S18290   0.653   7.310   9.494  1.4868 -1.0665 -1.7821
  163SOPE  C21218291   0.497   7.319   9.349  0.0470 -0.3127  0.1876
  163SOPE  H12R18292   0.581   7.326   9.276 -0.7735  2.4597 -0.6095
  163SOPE  H12S18293   0.472   7.426   9.358 -0.1154 -0.3114 -0.2641
  163SOPE  C21318294   0.379   7.241   9.291  0.0692  1.2108  0.6730
  163SOPE  H13R18295   0.283   7.262   9.341 -1.3842  0.4982 -1.6581
  163SOPE  H13S18296   0.394   7.132   9.308  0.3618  1.1074 -0.1505
  163SOPE  C21418297   0.358   7.266   9.140 -0.7613  0.0075  0.1167
  163SOPE  H14R18298   0.269   7.213   9.099 -0.4000 -0.7601  0.3175
  163SOPE  H14S18299   0.452   7.252   9.084  0.3799  0.6522  1.8007
  163SOPE  C21518300   0.344   7.416   9.107 -0.6958 -0.4479  0.2197
  163SOPE  H15R18301   0.445   7.458   9.121 -1.2050  0.5496  0.9815
  163SOPE  H15S18302   0.270   7.470   9.169 -0.5222  2.0995 -1.6449
  163SOPE  C21618303   0.307   7.447   8.957  0.0201 -0.9017 -0.3559
  163SOPE  H16R18304   0.196   7.453   8.959  0.0543  2.6652  2.8838
  163SOPE  H16S18305   0.341   7.367   8.888 -2.1588 -1.9124 -0.3502
  163SOPE  C21718306   0.363   7.571   8.897 -0.1141  0.1932  0.5492
  163SOPE  H17R18307   0.344   7.567   8.787  1.6703 -2.1154  0.2427
  163SOPE  H17S18308   0.469   7.580   8.927  0.1077  2.2817 -0.6317
  163SOPE  C21818309   0.290   7.687   8.948  0.3049 -0.4034  0.0147
  163SOPE  H18R18310   0.183   7.690   8.919  0.2711 -0.8910  0.0814
  163SOPE  H18S18311   0.337   7.785   8.922  0.7964 -0.2042  1.5893
  163SOPE  H18T18312   0.290   7.686   9.059 -1.9448  2.7955  0.1709
  163SOPE   C3318313   0.816   7.595  10.125 -0.1158 -0.4170 -0.5373
  163SOPE   H3X18314   0.812   7.590  10.014  0.1936 -0.2353 -0.5561
  163SOPE   H3Y18315   0.918   7.636  10.138  0.1035  0.0669 -3.2005
  163SOPE   C3418316   0.708   7.698  10.167  0.1410  0.1571 -0.1297
  163SOPE   H4X18317   0.703   7.698  10.278  0.8814 -0.5905 -0.0848
  163SOPE   H4Y18318   0.609   7.666  10.127 -0.1628  2.8995 -1.8406
  163SOPE   C3518319   0.723   7.836  10.108  0.4216  0.2393  0.4867
  163SOPE   H5X18320   0.809   7.890  10.152  0.6649 -0.0388  0.3572
  163SOPE   H5Y18321   0.637   7.906  10.119 -0.3589 -0.3262 -1.5915
  163SOPE   C3618322   0.769   7.844   9.963 -1.6604 -0.0101  0.6187
  163SOPE   H6X18323   0.857   7.777   9.957 -1.3698  0.4610 -2.0429
  163SOPE   H6Y18324   0.795   7.948   9.932 -3.4829 -0.3932 -2.6843
  163SOPE   C3718325   0.663   7.793   9.855  0.1242  0.1847  0.4751
  163SOPE   H7X18326   0.563   7.832   9.884 -0.7108 -1.9080  0.5882
  163SOPE   H7Y18327   0.649   7.684   9.873 -1.5084 -0.9033 -5.4748
  163SOPE   C3818328   0.693   7.827   9.711 -0.1920 -0.2135 -0.4555
  163SOPE   H8X18329   0.779   7.763   9.679  0.0760 -0.6052  0.9726
  163SOPE   H8Y18330   0.731   7.931   9.711  0.7151 -0.5260  0.2070
  163SOPE   C3918331   0.587   7.795   9.609 -0.1243  0.3576 -0.2973
  163SOPE   H9X18332   0.497   7.860   9.606 -0.4934 -0.1083  0.2801
  163SOPE   H9Y18333   0.545   7.694   9.630 -2.6688  1.7551  1.9311
  163SOPE  C31018334   0.646   7.799   9.464 -0.5970 -0.3991 -0.3695
  163SOPE  H10X18335   0.734   7.733   9.448 -1.2612 -1.0305 -1.5959
  163SOPE  H10Y18336   0.666   7.908   9.461  0.3711 -0.5766 -0.6585
  163SOPE  C31118337   0.542   7.761   9.359  0.2163 -0.2173 -0.7779
  163SOPE  H11X18338   0.465   7.841   9.349  1.5049  1.6445  2.6555
  163SOPE  H11Y18339   0.503   7.665   9.398 -0.3613  0.1160 -0.5161
  163SOPE  C31218340   0.588   7.730   9.207  0.2033 -0.2414 -1.1780
  163SOPE  H12X18341   0.622   7.822   9.155  0.6844 -0.8057 -1.8825
  163SOPE  H12Y18342   0.502   7.694   9.147 -1.2883 -1.1712  1.3690
  163SOPE  C31318343   0.707   7.628   9.202  1.0749 -0.6769 -0.5815
  163SOPE  H13X18344   0.698   7.565   9.293  1.3910  1.8260  1.2962
  163SOPE  H13Y18345   0.806   7.678   9.211 -0.3554  2.6612 -1.7402
  163SOPE  C31418346   0.716   7.537   9.077  0.2223  0.4016 -0.9163
  163SOPE  H14X18347   0.698   7.611   8.996  0.7225  1.5564 -0.0214
  163SOPE  H14Y18348   0.640   7.456   9.078  0.9246 -0.2839 -2.0855
  163SOPE  C31518349   0.857   7.485   9.055  0.5940 -0.7710  0.2065
  163SOPE  H15X18350   0.875   7.415   9.138 -1.8094 -1.1993  0.4384
  163SOPE  H15Y18351   0.927   7.571   9.068 -1.8657  1.4926 -0.4613
  163SOPE  C31618352   0.872   7.424   8.910  0.3019 -0.2048  0.1581
  163SOPE  H16X18353   0.975   7.381   8.911  0.3632 -0.1075  2.0455
  163SOPE  H16Y18354   0.853   7.490   8.823  0.6635 -1.7582 -1.1274
  163SOPE  C31718355   0.767   7.317   8.882 -0.3552 -0.2542  0.2969
  163SOPE  H17X18356   0.764   7.290   8.774 -0.7789  2.5753 -0.4907
  163SOPE  H17Y18357   0.669   7.365   8.901 -0.3894  0.6196 -1.8064
  163SOPE  C31818358   0.769   7.189   8.965 -0.8897 -0.8265  0.5389
  163SOPE  H18X18359   0.869   7.143   8.980  0.5086  1.1181 -2.1374
  163SOPE  H18Y18360   0.698   7.119   8.916 -1.2969 -0.1037  0.0852
  163SOPE  H18Z18361   0.716   7.213   9.060 -0.3240  0.5301  0.5312
  164SOPE     N18362   3.094   5.040  10.904  0.1502 -0.5046 -0.6271
  164SOPE   HN118363   3.181   5.092  10.926 -0.8235  0.7096  0.5284
  164SOPE   HN218364   3.051   5.081  10.819  1.6776  0.9970 -0.7178
  164SOPE   HN318365   3.032   5.042  10.987 -0.9031 -2.1516 -1.3247
  164SOPE   C1218366   3.117   4.899  10.859 -0.3648 -0.5585  0.3861
  164SOPE  H12A18367   3.019   4.848  10.848  0.1913 -1.3837 -0.9403
  164SOPE  H12B18368   3.165   4.845  10.943 -2.0024  1.5926  2.8682
  164SOPE   C1118369   3.195   4.877  10.727 -0.5394  0.7290 -0.8051
  164SOPE  H11A18370   3.152   4.944  10.650 -0.3804  1.2444 -0.4512
  164SOPE  H11B18371   3.183   4.771  10.694 -1.7794  0.5923 -0.0037
  164SOPE     P18372   3.452   4.840  10.675  0.1957  0.0753  0.2229
  164SOPE   O1318373   3.467   4.710  10.748  0.3708  0.5465 -0.4990
  164SOPE   O1418374   3.572   4.921  10.670 -0.4671  0.9133  0.1226
  164SOPE   O1218375   3.329   4.920  10.732  0.4529 -0.1956 -0.3546
  164SOPE   O1118376   3.402   4.809  10.526 -0.5401 -0.5377  0.0860
  164SOPE    C118377   3.391   4.918  10.426 -1.0358  0.3285 -0.9416
  164SOPE    HA18378   3.495   4.948  10.403 -0.5662 -0.8634 -0.4777
  164SOPE    HB18379   3.337   5.006  10.466  0.3387  0.8070 -0.0893
  164SOPE    C218380   3.336   4.881  10.280 -0.1321 -0.0758 -0.1864
  164SOPE    HS18381   3.327   4.977  10.225 -1.7775 -0.3603 -0.4464
  164SOPE   O2118382   3.205   4.812  10.289  0.0052 -0.3118 -0.1322
  164SOPE   C2118383   3.112   4.885  10.341  0.0396  0.2081 -0.0650
  164SOPE   O2218384   3.120   4.998  10.386  0.1516 -0.1120  0.1335
  164SOPE   C2218385   2.987   4.800  10.358 -0.3212  0.4161 -0.3159
  164SOPE   H2R18386   2.912   4.850  10.423  1.3618  3.3550 -0.4475
  164SOPE   H2S18387   3.019   4.708  10.412 -0.1997  1.1536  0.9157
  164SOPE    C318388   3.433   4.788  10.203 -0.3859  0.3739  0.5551
  164SOPE    HX18389   3.449   4.696  10.262  2.2061 -0.1469 -0.8212
  164SOPE    HY18390   3.532   4.837  10.192  0.0102  0.1449  2.7070
  164SOPE   O3118391   3.375   4.751  10.074 -0.8233 -0.2990 -0.7557
  164SOPE   C3118392   3.372   4.844   9.977  0.3812 -0.2261  0.0941
  164SOPE   O3218393   3.404   4.961   9.988 -0.4773 -0.5159 -0.0893
  164SOPE   C3218394   3.338   4.774   9.847 -0.4550 -0.3287  0.0484
  164SOPE   H2X18395   3.250   4.834   9.815  0.4664  1.1660  0.1855
  164SOPE   H2Y18396   3.310   4.667   9.851  0.4593 -0.5777 -0.0733
  164SOPE   C2318397   2.914   4.764  10.228  0.0295  0.3401 -0.3126
  164SOPE   H3R18398   2.912   4.846  10.154  0.6860 -0.7058 -1.5388
  164SOPE   H3S18399   2.813   4.747  10.273  1.4365  1.7573  3.8484
  164SOPE   C2418400   2.966   4.638  10.161  0.5857  1.1357  0.2548
  164SOPE   H4R18401   3.066   4.642  10.114  1.0283 -2.6432  0.5857
  164SOPE   H4S18402   2.960   4.555  10.235 -0.0926  0.4076 -0.5800
  164SOPE   C2518403   2.870   4.608  10.041 -0.5371 -0.1421  0.5225
  164SOPE   H5R18404   2.897   4.518   9.982 -0.4879  0.3674 -0.2440
  164SOPE   H5S18405   2.768   4.578  10.072 -0.2088 -0.6833  1.1084
  164SOPE   C2618406   2.873   4.714   9.927  0.4962  0.3848  0.8704
  164SOPE   H6R18407   2.821   4.806   9.961 -0.2717  0.7447 -1.1537
  164SOPE   H6S18408   2.980   4.728   9.899  0.3221 -2.5063 -1.7569
  164SOPE   C2718409   2.791   4.660   9.804  0.0430  0.1863  0.8088
  164SOPE   H7R18410   2.833   4.560   9.781 -1.5688 -0.6157  1.2494
  164SOPE   H7S18411   2.687   4.649   9.840 -0.6568  0.5528 -1.0279
  164SOPE   C2818412   2.804   4.758   9.680  0.7123 -0.2976 -0.5883
  164SOPE   H8R18413   2.741   4.848   9.694 -0.8403 -1.2747 -0.9678
  164SOPE   H8S18414   2.905   4.803   9.674  0.5454 -0.0682 -1.7891
  164SOPE   C2918415   2.769   4.694   9.548  0.0154 -0.1727 -0.0285
  164SOPE   H9118416   2.660   4.677   9.538  0.2810 -1.0321 -1.9381
  164SOPE  C21018417   2.855   4.645   9.452  0.0049 -0.5976 -0.2221
  164SOPE  H10118418   2.818   4.621   9.351  0.6673 -0.6327 -0.4630
  164SOPE  C21118419   3.007   4.648   9.454 -0.7119  0.0574 -0.0652
  164SOPE  H11R18420   3.036   4.549   9.496 -3.9406 -0.2317  1.7464
  164SOPE  H11S18421   3.044   4.726   9.524  1.5892 -1.1891  0.2194
  164SOPE  C21218422   3.084   4.660   9.321 -0.3669  0.0694  0.0457
  164SOPE  H12R18423   3.035   4.593   9.247 -1.0833 -0.8604  1.3128
  164SOPE  H12S18424   3.178   4.602   9.329 -0.0355  0.3700 -1.4268
  164SOPE  C21318425   3.083   4.806   9.263  0.2118  0.5454  0.3963
  164SOPE  H13R18426   3.127   4.882   9.330 -1.1853  1.6316  0.1209
  164SOPE  H13S18427   2.975   4.828   9.247 -0.1491 -1.0132  0.5110
  164SOPE  C21418428   3.139   4.820   9.120  0.2828  0.1305 -0.3292
  164SOPE  H14R18429   3.079   4.770   9.040 -0.4234  2.4242 -1.3015
  164SOPE  H14S18430   3.238   4.771   9.114  0.1035 -0.0215 -3.2283
  164SOPE  C21518431   3.151   4.965   9.059 -1.0577 -0.0707 -0.0628
  164SOPE  H15R18432   3.206   5.031   9.130  1.4585 -1.8767 -0.2187
  164SOPE  H15S18433   3.043   4.994   9.053 -1.0688 -0.0411  0.2337
  164SOPE  C21618434   3.220   4.959   8.926 -0.5308 -0.3677 -1.2842
  164SOPE  H16R18435   3.179   4.866   8.879 -0.4729 -1.5582  0.8946
  164SOPE  H16S18436   3.327   4.933   8.941 -0.9746 -2.3244 -1.2357
  164SOPE  C21718437   3.215   5.081   8.835  0.5651  0.1056 -0.3750
  164SOPE  H17R18438   3.114   5.104   8.794 -0.3567 -0.4358  1.4378
  164SOPE  H17S18439   3.275   5.062   8.744  0.0734  1.9527 -1.1426
  164SOPE  C21818440   3.259   5.210   8.907  0.5120  0.9362  0.2929
  164SOPE  H18R18441   3.368   5.194   8.917  0.5546  0.1510 -1.2847
  164SOPE  H18S18442   3.210   5.214   9.007  0.3263 -0.3827  0.2650
  164SOPE  H18T18443   3.224   5.298   8.849 -0.7135  0.8341  0.8478
  164SOPE   C3318444   3.459   4.804   9.746  0.4678 -0.3565 -0.0704
  164SOPE   H3X18445   3.532   4.720   9.756 -0.9579 -1.4964  1.1558
  164SOPE   H3Y18446   3.514   4.899   9.761  1.8025 -1.1109 -0.0114
  164SOPE   C3418447   3.413   4.793   9.596 -0.0273 -0.0223 -0.1312
  164SOPE   H4X18448   3.334   4.871   9.595 -1.1636 -0.9999  2.4482
  164SOPE   H4Y18449   3.358   4.698   9.577 -0.8853  0.4790 -0.2368
  164SOPE   C3518450   3.514   4.827   9.485  0.4680  0.7823 -0.4687
  164SOPE   H5X18451   3.595   4.751   9.488 -1.0151 -0.8020  1.5745
  164SOPE   H5Y18452   3.554   4.925   9.520 -0.5840  0.4712  1.7626
  164SOPE   C3618453   3.443   4.825   9.347 -0.0750  0.2859 -1.1173
  164SOPE   H6X18454   3.350   4.883   9.361  0.6836  1.2929 -0.0445
  164SOPE   H6Y18455   3.414   4.719   9.326  1.5173 -0.7360  1.3404
  164SOPE   C3718456   3.526   4.887   9.237 -0.2261  0.5038 -0.0065
  164SOPE   H7X18457   3.564   4.986   9.271 -1.3268  0.3094  1.9623
  164SOPE   H7Y18458   3.468   4.900   9.143  0.3297 -1.1963 -0.6134
  164SOPE   C3818459   3.647   4.802   9.207  0.2321 -0.0007  0.3251
  164SOPE   H8X18460   3.604   4.699   9.198  2.3579 -0.8009 -2.0784
  164SOPE   H8Y18461   3.700   4.795   9.304 -1.5382 -1.6253  1.2339
  164SOPE   C3918462   3.725   4.834   9.082 -0.0377 -0.0344  0.3811
  164SOPE   H9X18463   3.807   4.762   9.065 -0.5517 -0.5564  0.0369
  164SOPE   H9Y18464   3.768   4.936   9.094 -1.6023  0.3862  3.5942
  164SOPE  C31018465   3.644   4.844   8.960  0.0923 -0.2724  0.2172
  164SOPE  H10X18466   3.578   4.934   8.960 -0.5436 -0.7057 -1.0802
  164SOPE  H10Y18467   3.575   4.758   8.947 -0.2572  0.1185 -0.5619
  164SOPE  C31118468   3.732   4.851   8.833 -0.4292 -0.6713 -0.7970
  164SOPE  H11X18469   3.814   4.776   8.838  0.9851  0.7860 -1.1541
  164SOPE  H11Y18470   3.786   4.948   8.831  1.3199 -1.6150 -2.6649
  164SOPE  C31218471   3.662   4.853   8.699  0.0043 -0.3196  0.4862
  164SOPE  H12X18472   3.737   4.859   8.616  0.0308 -1.4868  0.4117
  164SOPE  H12Y18473   3.607   4.949   8.691  1.1780  0.5487  2.3158
  164SOPE  C31318474   3.578   4.731   8.674  0.3810 -1.6234 -0.0246
  164SOPE  H13X18475   3.515   4.748   8.584  0.0092  1.4385  0.7195
  164SOPE  H13Y18476   3.507   4.713   8.757 -0.3787 -1.7238 -0.6837
  164SOPE  C31418477   3.672   4.604   8.651  0.0494  0.4628 -0.1166
  164SOPE  H14X18478   3.723   4.589   8.748  0.5901 -2.0649 -0.7045
  164SOPE  H14Y18479   3.749   4.638   8.579 -0.8698 -0.0205 -1.3814
  164SOPE  C31518480   3.606   4.472   8.601  1.1242 -0.4950  0.4706
  164SOPE  H15X18481   3.510   4.470   8.657  1.9557 -2.7273  1.9368
  164SOPE  H15Y18482   3.668   4.386   8.634  1.3697 -0.6604 -0.4010
  164SOPE  C31618483   3.568   4.470   8.452  0.3153 -0.0534 -0.2625
  164SOPE  H16X18484   3.658   4.473   8.387 -0.0181  2.9326 -0.7334
  164SOPE  H16Y18485   3.513   4.560   8.417  1.2131 -0.1853 -2.1491
  164SOPE  C31718486   3.490   4.346   8.414 -0.3492  0.4976  0.4898
  164SOPE  H17X18487   3.552   4.257   8.439  0.2673  0.4272 -1.1096
  164SOPE  H17Y18488   3.493   4.345   8.303 -0.7720 -0.6100  0.4767
  164SOPE  C31818489   3.347   4.340   8.465  1.2254  0.1365 -0.5243
  164SOPE  H18X18490   3.294   4.251   8.426  2.5581 -0.7335 -0.3921
  164SOPE  H18Y18491   3.289   4.429   8.432  1.1427 -0.3701 -1.8368
  164SOPE  H18Z18492   3.346   4.339   8.576 -0.2921 -1.1893 -0.5160
  165SOPE     N18493   2.890   5.671  10.956 -0.4488  0.3555  0.6507
  165SOPE   HN118494   2.935   5.765  10.954 -2.4145  1.3236  0.3116
  165SOPE   HN218495   2.798   5.677  11.002  0.1486  0.6400  1.8444
  165SOPE   HN318496   2.947   5.617  11.024  0.4346  0.2287 -0.1598
  165SOPE   C1218497   2.876   5.613  10.822  0.1098 -0.6095 -0.0924
  165SOPE  H12A18498   2.836   5.511  10.837  0.6813 -0.6864  0.9932
  165SOPE  H12B18499   2.966   5.625  10.759 -1.8400  0.4118 -2.8676
  165SOPE   C1118500   2.761   5.693  10.756  0.2306 -0.9559 -0.3169
  165SOPE  H11A18501   2.769   5.677  10.646 -0.1931  2.0328 -0.8532
  165SOPE  H11B18502   2.771   5.803  10.764 -0.4495 -0.8286 -1.0602
  165SOPE     P18503   2.495   5.722  10.771 -0.2796 -0.0651 -0.4937
  165SOPE   O1318504   2.478   5.857  10.835 -0.2043 -0.0650  0.6003
  165SOPE   O1418505   2.388   5.630  10.806 -0.2563  1.1341  0.1169
  165SOPE   O1218506   2.636   5.660  10.807  0.4778 -0.8457 -0.2700
  165SOPE   O1118507   2.489   5.741  10.615 -0.3197  0.4416 -0.0884
  165SOPE    C118508   2.455   5.619  10.541 -0.0917 -0.0885 -0.1838
  165SOPE    HA18509   2.360   5.571  10.573 -0.9429  0.8899 -1.1688
  165SOPE    HB18510   2.540   5.550  10.563  0.2921  0.6737  0.8413
  165SOPE    C218511   2.449   5.642  10.391  0.1086 -0.9161  0.2681
  165SOPE    HS18512   2.414   5.559  10.325 -0.0176  0.7140 -1.8413
  165SOPE   O2118513   2.574   5.699  10.346  0.3868 -0.4429  0.0245
  165SOPE   C2118514   2.676   5.612  10.352  0.3610 -1.2043  0.0045
  165SOPE   O2218515   2.662   5.496  10.366  0.4537  0.8340 -0.3718
  165SOPE   C2218516   2.801   5.687  10.322  0.1806  0.4194 -0.2773
  165SOPE   H2R18517   2.879   5.655  10.394 -1.5370 -3.4785  0.1244
  165SOPE   H2S18518   2.789   5.797  10.332 -0.3517  0.3181  0.2591
  165SOPE    C318519   2.337   5.746  10.362  0.2653 -0.2580  0.2422
  165SOPE    HX18520   2.347   5.838  10.424  1.1722 -1.4107  1.8685
  165SOPE    HY18521   2.245   5.699  10.401 -0.7833  0.3711 -1.3723
  165SOPE   O3118522   2.310   5.772  10.225  0.6355  0.1536 -0.3092
  165SOPE   C3118523   2.380   5.879  10.177  0.7260  0.7682 -0.7826
  165SOPE   O3218524   2.454   5.946  10.248  0.0832  0.0280  0.1386
  165SOPE   C3218525   2.343   5.906  10.032  0.1591  0.1117  0.7305
  165SOPE   H2X18526   2.275   5.995  10.035 -0.1157  0.0683 -1.6594
  165SOPE   H2Y18527   2.286   5.817   9.998 -0.0399  0.6592 -0.4273
  165SOPE   C2318528   2.861   5.646  10.182  0.3717 -0.6864 -0.1731
  165SOPE   H3R18529   2.884   5.538  10.191  0.2093 -0.5731  2.4003
  165SOPE   H3S18530   2.956   5.698  10.160 -0.1300  1.1055  1.5805
  165SOPE   C2418531   2.768   5.695  10.067 -0.1382  0.7047  0.0254
  165SOPE   H4R18532   2.664   5.659  10.078 -0.1484  1.1988  1.7929
  165SOPE   H4S18533   2.776   5.806  10.059  0.8504  0.7496  1.2697
  165SOPE   C2518534   2.818   5.636   9.936 -0.0132 -0.5406  0.3052
  165SOPE   H5R18535   2.928   5.635   9.924 -0.0305  0.2020  0.0129
  165SOPE   H5S18536   2.795   5.528   9.943  0.9535 -0.6388  2.9843
  165SOPE   C2618537   2.758   5.713   9.818  0.0662 -0.2823  0.3124
  165SOPE   H6R18538   2.653   5.676   9.816  0.2981 -0.9461 -1.8328
  165SOPE   H6S18539   2.753   5.822   9.834  0.7516 -0.0495 -0.9116
  165SOPE   C2718540   2.832   5.693   9.686  1.0789  0.7276 -0.1525
  165SOPE   H7R18541   2.922   5.759   9.676 -0.3583  2.6470 -1.0269
  165SOPE   H7S18542   2.863   5.586   9.682 -0.0134  0.2961  1.7935
  165SOPE   C2818543   2.755   5.738   9.564 -0.4584 -0.4826  0.2049
  165SOPE   H8R18544   2.831   5.716   9.486  1.4680 -0.2512  1.9314
  165SOPE   H8S18545   2.663   5.677   9.554 -0.9768  0.4355 -0.7485
  165SOPE   C2918546   2.723   5.884   9.566 -0.2963  0.3870  0.7677
  165SOPE   H9118547   2.660   5.909   9.652 -0.6250 -1.5057  1.1010
  165SOPE  C21018548   2.767   5.973   9.471 -0.2549 -0.0805 -0.2203
  165SOPE  H10118549   2.726   6.073   9.487 -0.0187  0.1461 -0.9982
  165SOPE  C21118550   2.855   5.945   9.353 -0.4642 -0.5385 -0.4863
  165SOPE  H11R18551   2.818   5.854   9.301  0.5427 -1.2169 -0.0373
  165SOPE  H11S18552   2.956   5.920   9.393 -1.0614 -1.5398  0.4316
  165SOPE  C21218553   2.862   6.063   9.256 -0.0378  0.5305  0.0974
  165SOPE  H12R18554   2.887   6.160   9.303  2.0595 -0.1363  0.5131
  165SOPE  H12S18555   2.763   6.080   9.209  0.2171 -0.6183 -0.9069
  165SOPE  C21318556   2.966   6.041   9.144 -0.0204 -1.0837 -0.3130
  165SOPE  H13R18557   2.912   5.979   9.069  0.1748 -0.9576 -0.5586
  165SOPE  H13S18558   3.056   5.987   9.180  1.6112 -1.3657 -4.2945
  165SOPE  C21418559   2.999   6.174   9.076  0.0559 -0.5693 -0.1539
  165SOPE  H14R18560   3.031   6.239   9.160  1.0104 -0.9282 -0.2252
  165SOPE  H14S18561   2.907   6.223   9.038 -0.7204 -2.2693 -0.5533
  165SOPE  C21518562   3.113   6.171   8.973  0.8071 -0.1570  0.4766
  165SOPE  H15R18563   3.075   6.100   8.897  1.3211 -1.4424  1.3830
  165SOPE  H15S18564   3.211   6.142   9.018  1.1382  0.3901  0.1309
  165SOPE  C21618565   3.136   6.307   8.906 -0.0272 -0.3919  0.3703
  165SOPE  H16R18566   3.113   6.394   8.971  0.7735  1.1469 -1.3120
  165SOPE  H16S18567   3.063   6.304   8.822  0.1564 -4.5319  0.1235
  165SOPE  C21718568   3.277   6.331   8.869 -0.8842  0.3794 -0.0385
  165SOPE  H17R18569   3.331   6.325   8.966 -2.8353 -1.5835  1.0134
  165SOPE  H17S18570   3.300   6.428   8.820  2.0568  0.6884  1.7335
  165SOPE  C21818571   3.332   6.221   8.775 -0.8537  0.8915 -0.2364
  165SOPE  H18R18572   3.314   6.117   8.811  0.9035  0.2153 -1.2028
  165SOPE  H18S18573   3.442   6.217   8.768 -0.6645 -3.2436  1.8586
  165SOPE  H18T18574   3.297   6.236   8.670 -0.2264  0.2040 -0.5517
  165SOPE   C3318575   2.462   5.945   9.942  0.2065 -0.1635 -0.5967
  165SOPE   H3X18576   2.530   5.857   9.937  1.0802  0.5384 -1.8756
  165SOPE   H3Y18577   2.513   6.036   9.982  0.8714 -2.2473  3.8650
  165SOPE   C3418578   2.408   5.971   9.802  1.0268 -0.2803  0.4452
  165SOPE   H4X18579   2.308   5.923   9.796  0.0738  1.3038  2.2703
  165SOPE   H4Y18580   2.481   5.917   9.738 -1.8865 -3.3406 -0.5865
  165SOPE   C3518581   2.379   6.117   9.768 -0.4709  0.1521 -0.6219
  165SOPE   H5X18582   2.466   6.178   9.801  1.6321 -2.8978 -0.1734
  165SOPE   H5Y18583   2.295   6.161   9.826 -0.4503 -0.9085  0.2506
  165SOPE   C3618584   2.345   6.152   9.615 -0.1223 -0.2649  0.3995
  165SOPE   H6X18585   2.295   6.251   9.619 -1.8716 -1.1046  4.0177
  165SOPE   H6Y18586   2.269   6.075   9.590  0.1838  0.2454 -2.4073
  165SOPE   C3718587   2.457   6.135   9.521  0.9362  0.5027  0.9686
  165SOPE   H7X18588   2.502   6.034   9.517 -1.7184 -0.7464 -0.3029
  165SOPE   H7Y18589   2.542   6.205   9.530  0.2970  1.3562  0.4634
  165SOPE   C3818590   2.388   6.149   9.381  0.5872 -0.5853  0.0314
  165SOPE   H8X18591   2.368   6.256   9.361  2.6600 -0.5454 -2.2263
  165SOPE   H8Y18592   2.294   6.089   9.376  0.4531 -0.8210  3.1860
  165SOPE   C3918593   2.477   6.118   9.260 -0.0239  0.5682  0.5143
  165SOPE   H9X18594   2.533   6.023   9.278  1.3953  0.9530 -1.5266
  165SOPE   H9Y18595   2.554   6.197   9.248  0.8452 -0.6197 -2.6712
  165SOPE  C31018596   2.399   6.116   9.130  0.0609 -1.0931  0.0505
  165SOPE  H10X18597   2.365   6.218   9.102  1.0040 -1.1564 -1.4176
  165SOPE  H10Y18598   2.303   6.062   9.144 -1.3732  0.2542 -3.5198
  165SOPE  C31118599   2.476   6.052   9.010  0.4958 -0.6145  0.0747
  165SOPE  H11X18600   2.405   6.061   8.925  2.4575  1.8536 -1.4757
  165SOPE  H11Y18601   2.507   5.947   9.027  1.5003 -0.2567  0.5589
  165SOPE  C31218602   2.594   6.148   8.960  0.0064  0.0172  0.3588
  165SOPE  H12X18603   2.685   6.142   9.025  0.5502 -3.7304 -0.4708
  165SOPE  H12Y18604   2.552   6.250   8.967  2.5488  1.1170  0.7139
  165SOPE  C31318605   2.640   6.093   8.817 -0.7342 -0.1585  0.2368
  165SOPE  H13X18606   2.722   6.155   8.776 -1.0779 -1.6855 -3.1649
  165SOPE  H13Y18607   2.562   6.112   8.739  0.8253  0.5948 -1.2123
  165SOPE  C31418608   2.678   5.947   8.807 -0.3431  0.2810  0.0228
  165SOPE  H14X18609   2.591   5.892   8.848  0.0796  0.2927  0.9570
  165SOPE  H14Y18610   2.765   5.928   8.873 -0.7094  1.0213  0.7322
  165SOPE  C31518611   2.685   5.895   8.665  0.7697 -0.6540 -0.1005
  165SOPE  H15X18612   2.765   5.946   8.607 -0.2495  0.2400 -0.7475
  165SOPE  H15Y18613   2.590   5.925   8.615  0.8027  0.0078  0.2186
  165SOPE  C31618614   2.707   5.746   8.637 -0.2290  0.6064 -0.8809
  165SOPE  H16X18615   2.626   5.676   8.668 -0.3435  0.6481 -1.0890
  165SOPE  H16Y18616   2.790   5.718   8.705  1.3837 -0.0109 -3.0098
  165SOPE  C31718617   2.733   5.704   8.493  0.3565 -0.8656 -1.1149
  165SOPE  H17X18618   2.649   5.745   8.432 -0.6471 -1.4513 -0.1743
  165SOPE  H17Y18619   2.738   5.594   8.476  1.1138 -0.7615 -1.6220
  165SOPE  C31818620   2.857   5.755   8.430  0.4607 -1.1012  0.2289
  165SOPE  H18X18621   2.860   5.715   8.326 -1.5845 -0.8783  0.0479
  165SOPE  H18Y18622   2.945   5.714   8.485  0.5379 -0.9492  0.2181
  165SOPE  H18Z18623   2.860   5.866   8.429 -1.3118 -1.0150 -1.8868
  166SOPE     N18624   5.338   5.782  11.048  0.3536  0.0322 -0.4711
  166SOPE   HN118625   5.282   5.805  10.964 -1.4385 -0.9726  0.4014
  166SOPE   HN218626   5.417   5.721  11.017 -0.6714 -1.0453 -1.0239
  166SOPE   HN318627   5.274   5.736  11.115  0.3925 -0.7414 -0.9445
  166SOPE   C1218628   5.405   5.894  11.114 -0.2544 -0.3455  0.2695
  166SOPE  H12A18629   5.438   5.860  11.214  1.0535  0.3593  0.1018
  166SOPE  H12B18630   5.333   5.978  11.125 -0.8316 -1.0470  2.2901
  166SOPE   C1118631   5.536   5.919  11.036 -0.5315  0.3058 -0.4973
  166SOPE  H11A18632   5.601   5.829  11.033 -0.5153  0.2689  0.6344
  166SOPE  H11B18633   5.584   6.004  11.090 -0.5116 -0.2500  0.3757
  166SOPE     P18634   5.595   6.017  10.799  0.0277  0.0298 -0.1860
  166SOPE   O1318635   5.561   5.973  10.664  0.1351 -0.5479  0.2520
  166SOPE   O1418636   5.736   5.998  10.836  0.2922  0.4523 -0.3572
  166SOPE   O1218637   5.505   5.950  10.899  0.1941 -0.4957 -0.3505
  166SOPE   O1118638   5.560   6.164  10.814 -0.1663 -0.6122 -0.0562
  166SOPE    C118639   5.429   6.216  10.842 -0.2175  0.1234 -0.3882
  166SOPE    HA18640   5.432   6.263  10.942  1.1118  0.4804 -0.5680
  166SOPE    HB18641   5.356   6.134  10.860  0.5502 -0.0882  2.1118
  166SOPE    C218642   5.394   6.322  10.737 -0.4704  0.0512 -0.0914
  166SOPE    HS18643   5.296   6.368  10.762 -0.4767  0.6557 -1.1663
  166SOPE   O2118644   5.396   6.266  10.601 -0.3976  0.2685  0.1235
  166SOPE   C2118645   5.301   6.177  10.568  0.0002  0.0425 -0.3264
  166SOPE   O2218646   5.202   6.157  10.635  0.0515 -0.3018 -0.5763
  166SOPE   C2218647   5.345   6.111  10.439  0.2427  0.5369  0.1538
  166SOPE   H2R18648   5.276   6.025  10.423  1.1766  0.0162 -1.3377
  166SOPE   H2S18649   5.448   6.073  10.458  0.3792  0.5003 -0.6252
  166SOPE    C318650   5.489   6.442  10.744  0.2517 -0.2030 -0.4013
  166SOPE    HX18651   5.596   6.416  10.731  0.9926  1.3225  2.0903
  166SOPE    HY18652   5.480   6.482  10.847  1.3559 -3.0592  0.9089
  166SOPE   O3118653   5.461   6.543  10.645 -0.5467 -0.2970 -0.3515
  166SOPE   C3118654   5.509   6.665  10.666  0.3904 -0.1346  0.5175
  166SOPE   O3218655   5.563   6.699  10.765  0.1777 -0.5077 -0.1493
  166SOPE   C3218656   5.484   6.755  10.548  0.4088  0.0602 -0.0881
  166SOPE   H2X18657   5.583   6.768  10.500  0.3988  1.0032  0.1300
  166SOPE   H2Y18658   5.444   6.847  10.597 -0.7488 -0.4910  0.0254
  166SOPE   C2318659   5.358   6.211  10.326 -0.0918  0.1288 -0.4316
  166SOPE   H3R18660   5.418   6.297  10.364  1.1022 -2.0932  3.2314
  166SOPE   H3S18661   5.253   6.248  10.321 -0.4926 -1.0502 -1.1160
  166SOPE   C2418662   5.409   6.153  10.200 -0.2055 -0.5587 -0.2426
  166SOPE   H4R18663   5.520   6.164  10.205 -0.3165  0.0016  1.9590
  166SOPE   H4S18664   5.379   6.047  10.197  0.7028 -0.9545  2.0506
  166SOPE   C2518665   5.364   6.231  10.079  0.6818 -0.3565  0.3635
  166SOPE   H5R18666   5.395   6.170   9.992 -0.3218 -0.2745 -0.0566
  166SOPE   H5S18667   5.255   6.249  10.089  0.5008 -1.6740  0.8891
  166SOPE   C2618668   5.433   6.367  10.061 -1.2535  0.4390 -0.0563
  166SOPE   H6R18669   5.422   6.427  10.154 -0.7831  2.2748 -1.1391
  166SOPE   H6S18670   5.537   6.333  10.043 -0.8891 -0.6612  3.3680
  166SOPE   C2718671   5.384   6.459   9.949  0.1911 -0.2390 -0.4237
  166SOPE   H7R18672   5.279   6.491   9.967  0.1448 -1.4136  1.7962
  166SOPE   H7S18673   5.450   6.549   9.957  1.8218 -1.5340  3.0710
  166SOPE   C2818674   5.401   6.397   9.806 -0.7530 -0.6442  0.4101
  166SOPE   H8R18675   5.506   6.365   9.792 -0.5316  0.3219 -0.2555
  166SOPE   H8S18676   5.335   6.309   9.792 -1.9488  0.2793  0.0062
  166SOPE   C2918677   5.369   6.506   9.713 -0.0059  0.0619 -0.3276
  166SOPE   H9118678   5.303   6.583   9.755  0.4353  0.3290 -0.1182
  166SOPE  C21018679   5.383   6.505   9.581 -0.6957 -0.1423  0.3220
  166SOPE  H10118680   5.357   6.597   9.528  0.1851 -0.2919 -0.3977
  166SOPE  C21118681   5.447   6.397   9.498 -0.1603 -0.9023  0.1328
  166SOPE  H11R18682   5.510   6.328   9.557  3.1005  0.8956 -0.9840
  166SOPE  H11S18683   5.509   6.446   9.420  2.4436 -0.9954  2.0202
  166SOPE  C21218684   5.339   6.309   9.443  1.1677 -0.3784 -0.4597
  166SOPE  H12R18685   5.275   6.358   9.366  1.7102 -0.4231 -0.9456
  166SOPE  H12S18686   5.277   6.263   9.524  1.2188  1.6664  0.8144
  166SOPE  C21318687   5.392   6.194   9.355 -0.0771 -0.1349 -0.1773
  166SOPE  H13R18688   5.412   6.104   9.416  0.2810 -1.4773 -2.1983
  166SOPE  H13S18689   5.485   6.241   9.316  1.4746 -0.4843  2.8388
  166SOPE  C21418690   5.295   6.163   9.235 -0.2544 -0.0440  0.4957
  166SOPE  H14R18691   5.303   6.257   9.176  1.5165 -0.1594  0.4870
  166SOPE  H14S18692   5.194   6.141   9.275  0.1810  0.3010  1.8709
  166SOPE  C21518693   5.350   6.047   9.159 -0.7023 -0.0648  0.3359
  166SOPE  H15R18694   5.346   5.970   9.239  3.0597  1.6492  2.4618
  166SOPE  H15S18695   5.457   6.071   9.146 -0.8253  1.9299  2.3289
  166SOPE  C21618696   5.274   5.998   9.034 -0.0426  0.4675 -0.0383
  166SOPE  H16R18697   5.282   6.076   8.956  0.3732  1.2157  0.7399
  166SOPE  H16S18698   5.169   5.987   9.067 -0.6449  2.9972 -0.9203
  166SOPE  C21718699   5.334   5.872   8.973 -0.5198 -0.0786  0.1558
  166SOPE  H17R18700   5.251   5.803   8.945 -0.2976 -0.4981  0.5113
  166SOPE  H17S18701   5.391   5.811   9.046  0.9667 -0.4445 -1.2596
  166SOPE  C21818702   5.416   5.892   8.845  0.0739  0.0276  0.5004
  166SOPE  H18R18703   5.503   5.955   8.871 -0.4850  1.0878 -0.1084
  166SOPE  H18S18704   5.350   5.946   8.774  0.3433  2.9745  2.2747
  166SOPE  H18T18705   5.449   5.795   8.804 -0.7127  0.1717 -0.4986
  166SOPE   C3318706   5.391   6.697  10.440 -0.3518 -0.3344  0.5636
  166SOPE   H3X18707   5.293   6.662  10.480 -0.3413  0.9656  1.8048
  166SOPE   H3Y18708   5.449   6.619  10.387 -0.6780 -0.3801  0.2661
  166SOPE   C3418709   5.370   6.810  10.336  0.1158  0.4573  0.2695
  166SOPE   H4X18710   5.454   6.881  10.346 -1.5837  2.5444  0.3062
  166SOPE   H4Y18711   5.285   6.868  10.378  1.3431  2.1634  0.5034
  166SOPE   C3518712   5.359   6.766  10.188 -0.1655  0.5774  0.3340
  166SOPE   H5X18713   5.273   6.697  10.176  1.4954 -1.4382 -0.8535
  166SOPE   H5Y18714   5.448   6.705  10.159 -1.8211 -0.4275 -3.0889
  166SOPE   C3618715   5.340   6.886  10.086 -0.7521  0.9617 -0.2275
  166SOPE   H6X18716   5.419   6.964  10.096 -0.7083  1.1296 -1.6416
  166SOPE   H6Y18717   5.235   6.919  10.096 -1.2431 -0.6026 -0.0195
  166SOPE   C3718718   5.354   6.844   9.936  0.4864  0.7134 -0.3679
  166SOPE   H7X18719   5.280   6.764   9.917 -0.7397  1.6383  0.4216
  166SOPE   H7Y18720   5.456   6.803   9.920 -0.6779 -2.6124  0.0299
  166SOPE   C3818721   5.338   6.969   9.842 -0.1040 -0.2151  0.7470
  166SOPE   H8X18722   5.388   7.058   9.887  2.2153 -0.9339 -0.2641
  166SOPE   H8Y18723   5.232   6.998   9.856 -0.3406 -1.3093  1.2932
  166SOPE   C3918724   5.369   6.941   9.697  0.0007 -0.6621  0.7279
  166SOPE   H9X18725   5.312   6.851   9.665 -0.3774 -0.5064  0.9482
  166SOPE   H9Y18726   5.477   6.916   9.696 -0.2106 -1.6477 -1.0364
  166SOPE  C31018727   5.343   7.048   9.593 -0.1536  0.0482 -0.7563
  166SOPE  H10X18728   5.374   7.146   9.635 -1.8287  1.1488 -1.9391
  166SOPE  H10Y18729   5.232   7.047   9.580 -0.5165 -0.7293  1.8187
  166SOPE  C31118730   5.412   7.019   9.452  0.1697 -0.0972 -0.4660
  166SOPE  H11X18731   5.518   6.997   9.475 -0.3116 -0.0183  2.1493
  166SOPE  H11Y18732   5.410   7.114   9.395 -0.5333  0.0234 -0.2567
  166SOPE  C31218733   5.347   6.906   9.368  0.7369 -0.3550  0.5899
  166SOPE  H12X18734   5.246   6.946   9.341  0.5672 -0.5114  0.9974
  166SOPE  H12Y18735   5.333   6.825   9.442  1.4800  0.3225  1.4842
  166SOPE  C31318736   5.418   6.859   9.242  0.0928  0.1350  0.6448
  166SOPE  H13X18737   5.528   6.866   9.259  0.5207  1.8636 -2.2174
  166SOPE  H13Y18738   5.390   6.931   9.162 -3.5362  1.5889  2.9951
  166SOPE  C31418739   5.385   6.719   9.203 -0.4201 -0.0711 -0.3502
  166SOPE  H14X18740   5.414   6.655   9.289  1.6995 -1.8025 -2.2252
  166SOPE  H14Y18741   5.439   6.691   9.111 -0.7625 -0.4132 -0.4527
  166SOPE  C31518742   5.236   6.706   9.178 -1.0406  0.2888  0.3347
  166SOPE  H15X18743   5.220   6.768   9.087 -0.8876 -1.9638 -1.3177
  166SOPE  H15Y18744   5.170   6.719   9.266 -0.1904 -0.2949  1.0826
  166SOPE  C31618745   5.204   6.568   9.130  0.8699  0.4509 -0.4669
  166SOPE  H16X18746   5.228   6.491   9.206 -1.3452 -0.9637 -1.1089
  166SOPE  H16Y18747   5.252   6.540   9.033  1.6023 -0.1095  0.0455
  166SOPE  C31718748   5.057   6.557   9.098 -0.0923 -0.3477  0.3310
  166SOPE  H17X18749   5.030   6.657   9.058 -2.5305 -1.2368 -0.4258
  166SOPE  H17Y18750   4.995   6.548   9.190  0.3167 -0.9488  0.5492
  166SOPE  C31818751   5.023   6.438   9.001  0.1271 -0.1931  0.8681
  166SOPE  H18X18752   5.067   6.454   8.900  0.5109 -0.8563  0.9197
  166SOPE  H18Y18753   4.913   6.440   8.985  0.1869  1.7329  0.4062
  166SOPE  H18Z18754   5.059   6.340   9.041 -0.4321 -0.4311  0.7946
  167SOPE     N18755   1.543   2.856   6.313  0.3366 -0.3465  0.5563
  167SOPE   HN118756   1.571   2.909   6.398  0.8361 -1.7172  1.2754
  167SOPE   HN218757   1.461   2.795   6.329 -0.3926  0.9473  2.0436
  167SOPE   HN318758   1.630   2.805   6.286  0.2298  0.9879 -2.7150
  167SOPE   C1218759   1.512   2.949   6.192  0.0226  0.4215 -0.2022
  167SOPE  H12A18760   1.415   3.003   6.202  0.1700  0.8160 -0.8913
  167SOPE  H12B18761   1.503   2.881   6.105  0.5813 -1.7004  1.3138
  167SOPE   C1118762   1.604   3.069   6.155  0.1353  0.4998 -0.0534
  167SOPE  H11A18763   1.561   3.110   6.061  3.9910  0.4811 -2.0203
  167SOPE  H11B18764   1.706   3.029   6.137 -0.2377 -0.6174  0.1861
  167SOPE     P18765   1.737   3.254   6.275 -0.3247 -0.1779 -0.2162
  167SOPE   O1318766   1.748   3.313   6.141 -0.4854  0.0319 -0.0881
  167SOPE   O1418767   1.848   3.172   6.326  0.0193 -0.5259  0.2518
  167SOPE   O1218768   1.607   3.166   6.264 -0.2129  0.0083  0.1555
  167SOPE   O1118769   1.707   3.366   6.380  0.1669 -0.3791  0.3408
  167SOPE    C118770   1.587   3.448   6.372  0.0458 -0.1180 -0.4369
  167SOPE    HA18771   1.494   3.387   6.368 -0.5274  0.7141 -0.2472
  167SOPE    HB18772   1.592   3.512   6.282 -0.1089  0.3433 -0.1232
  167SOPE    C218773   1.583   3.548   6.489 -0.3786 -0.1568  0.7236
  167SOPE    HS18774   1.688   3.583   6.481 -0.7589  0.5535 -4.1830
  167SOPE   O2118775   1.550   3.472   6.602  0.8840  0.6371  0.1114
  167SOPE   C2118776   1.606   3.508   6.712  0.5310  0.1923  0.0590
  167SOPE   O2218777   1.700   3.583   6.717 -0.1580  0.3025  0.1751
  167SOPE   C2218778   1.536   3.449   6.829  0.2099 -0.8408 -0.2498
  167SOPE   H2R18779   1.583   3.356   6.868 -2.8318 -2.0751  0.7661
  167SOPE   H2S18780   1.432   3.414   6.811 -0.1260 -1.1459  1.9535
  167SOPE    C318781   1.494   3.674   6.462  0.2862 -0.1009 -0.8209
  167SOPE    HX18782   1.396   3.635   6.427 -0.8953  0.2974  1.8610
  167SOPE    HY18783   1.535   3.726   6.372  0.7679 -0.5666 -0.8761
  167SOPE   O3118784   1.482   3.762   6.573  0.5516  0.0304 -0.1935
  167SOPE   C3118785   1.579   3.852   6.596  0.1162  0.2879  0.3121
  167SOPE   O3218786   1.672   3.882   6.527 -0.5813 -0.3902  0.1578
  167SOPE   C3218787   1.555   3.906   6.741  0.1111 -0.3821  0.0422
  167SOPE   H2X18788   1.476   3.838   6.780 -0.8630  1.3199  1.1493
  167SOPE   H2Y18789   1.514   4.009   6.730 -0.5591 -0.3172  2.6170
  167SOPE   C2318790   1.533   3.563   6.939  0.0946  1.0353 -0.1028
  167SOPE   H3R18791   1.446   3.633   6.931 -1.0795 -0.2444  0.9675
  167SOPE   H3S18792   1.633   3.611   6.946  0.7138  0.2850 -2.7102
  167SOPE   C2418793   1.503   3.493   7.067 -0.5361 -0.7084 -0.9673
  167SOPE   H4R18794   1.405   3.442   7.055  0.0059 -2.0393 -0.0292
  167SOPE   H4S18795   1.576   3.416   7.100 -0.1300 -0.2493 -0.7878
  167SOPE   C2518796   1.485   3.582   7.195  0.0242  0.3326  1.0188
  167SOPE   H5R18797   1.576   3.644   7.208 -0.3766  0.9231  1.0080
  167SOPE   H5S18798   1.408   3.659   7.174  0.1954 -0.0703 -1.2746
  167SOPE   C2618799   1.451   3.497   7.314 -0.6370 -0.2882  0.3104
  167SOPE   H6R18800   1.390   3.409   7.283  1.5743 -1.1621 -1.8815
  167SOPE   H6S18801   1.548   3.457   7.348  0.3385  0.9327 -0.9165
  167SOPE   C2718802   1.399   3.580   7.427 -0.0955 -0.5131 -0.2331
  167SOPE   H7R18803   1.462   3.669   7.449 -0.0732 -0.7706  0.7844
  167SOPE   H7S18804   1.297   3.616   7.400 -1.7810 -2.7818  2.5246
  167SOPE   C2818805   1.384   3.498   7.563  0.7231  0.7189  0.5548
  167SOPE   H8R18806   1.320   3.552   7.635  0.0431  1.8836 -0.8736
  167SOPE   H8S18807   1.321   3.411   7.535  2.4036  0.1035 -1.6749
  167SOPE   C2918808   1.505   3.460   7.633 -0.3075  0.3549  0.1381
  167SOPE   H9118809   1.576   3.398   7.576  1.8514  0.4503  2.4800
  167SOPE  C21018810   1.539   3.491   7.759 -0.6914 -0.0323  0.1132
  167SOPE  H10118811   1.634   3.457   7.803 -1.1894 -0.2606  1.0475
  167SOPE  C21118812   1.457   3.563   7.859 -0.8696  0.1308  0.3730
  167SOPE  H11R18813   1.401   3.648   7.814 -1.1293 -0.5053 -0.5294
  167SOPE  H11S18814   1.518   3.611   7.938 -0.0616 -0.9164  0.3938
  167SOPE  C21218815   1.352   3.483   7.936  0.5154 -0.2106  0.0303
  167SOPE  H12R18816   1.314   3.404   7.868 -2.2983 -1.0020  2.3019
  167SOPE  H12S18817   1.277   3.561   7.965  0.6085 -0.3171  0.5629
  167SOPE  C21318818   1.417   3.439   8.068 -0.1863 -0.5698 -0.0069
  167SOPE  H13R18819   1.441   3.526   8.133 -3.1515  0.4385 -0.0810
  167SOPE  H13S18820   1.514   3.387   8.055  0.0693 -0.0987 -0.0079
  167SOPE  C21418821   1.322   3.341   8.141 -0.5917  0.4610  0.0398
  167SOPE  H14R18822   1.342   3.238   8.104 -1.1437 -0.4538  2.1488
  167SOPE  H14S18823   1.221   3.370   8.105  0.3299  1.4364 -1.9244
  167SOPE  C21518824   1.316   3.335   8.291 -0.3350 -0.2146 -0.1766
  167SOPE  H15R18825   1.311   3.440   8.326  0.8857 -0.0009 -0.5773
  167SOPE  H15S18826   1.408   3.283   8.325 -1.4311 -1.0509  1.6385
  167SOPE  C21618827   1.202   3.259   8.363  0.4542 -0.1826  0.4777
  167SOPE  H16R18828   1.111   3.295   8.311 -0.7896 -0.9569  2.0326
  167SOPE  H16S18829   1.205   3.287   8.470  2.0695 -0.3901  0.5120
  167SOPE  C21718830   1.220   3.107   8.354 -0.0059  0.2754  0.3263
  167SOPE  H17R18831   1.327   3.078   8.368 -0.2034 -2.2575 -2.3942
  167SOPE  H17S18832   1.181   3.052   8.266  0.6633 -0.6098  0.5603
  167SOPE  C21818833   1.139   3.035   8.467 -0.0645 -0.1959 -0.2754
  167SOPE  H18R18834   1.145   2.925   8.452 -2.2232 -0.5991  1.3653
  167SOPE  H18S18835   1.035   3.073   8.452  0.3975  1.4251  0.4221
  167SOPE  H18T18836   1.163   3.059   8.573 -0.1771  0.9890 -0.5049
  167SOPE   C3318837   1.679   3.901   6.835 -0.0737 -0.2396 -0.4310
  167SOPE   H3X18838   1.758   3.960   6.783 -0.4395  0.0141 -0.6976
  167SOPE   H3Y18839   1.706   3.793   6.836  0.1689 -0.1894  0.9455
  167SOPE   C3418840   1.639   3.956   6.973 -0.0163  0.5822  0.2484
  167SOPE   H4X18841   1.551   3.895   7.004  1.6780 -1.1472  1.9682
  167SOPE   H4Y18842   1.610   4.063   6.973 -1.6396  0.1874 -1.6167
  167SOPE   C3518843   1.752   3.931   7.077  0.3701 -0.2480 -0.0956
  167SOPE   H5X18844   1.835   3.997   7.042  1.0030 -0.2115  1.3797
  167SOPE   H5Y18845   1.789   3.827   7.068 -2.4932 -1.1349 -5.6344
  167SOPE   C3618846   1.701   3.956   7.222 -1.1155 -0.4603 -0.1968
  167SOPE   H6X18847   1.619   3.884   7.242 -0.5053 -1.2798 -0.5267
  167SOPE   H6Y18848   1.666   4.061   7.218  1.9439  0.8048  2.1481
  167SOPE   C3718849   1.802   3.959   7.340 -1.0339  0.1835 -0.2872
  167SOPE   H7X18850   1.761   4.026   7.419  0.5714 -0.3817  1.0965
  167SOPE   H7Y18851   1.896   4.002   7.301 -1.4228  0.4791 -0.9023
  167SOPE   C3818852   1.835   3.818   7.396 -0.4489 -0.6098 -0.4267
  167SOPE   H8X18853   1.902   3.759   7.331  1.7534  1.6151 -0.3163
  167SOPE   H8Y18854   1.740   3.761   7.403 -1.0480  0.4559  0.6310
  167SOPE   C3918855   1.888   3.827   7.542  0.2319  0.1322  0.3506
  167SOPE   H9X18856   1.840   3.909   7.600  0.6007 -0.2322  1.1983
  167SOPE   H9Y18857   1.993   3.865   7.538 -0.2910  1.8901  1.7953
  167SOPE  C31018858   1.879   3.692   7.616 -0.0011 -0.0513  0.5429
  167SOPE  H10X18859   1.923   3.602   7.567 -1.9390 -1.0954  0.6125
  167SOPE  H10Y18860   1.770   3.670   7.613  0.4267 -2.5195  0.9220
  167SOPE  C31118861   1.918   3.714   7.755  0.0786 -0.0877  0.2968
  167SOPE  H11X18862   1.892   3.816   7.790  2.7693  0.3785  1.1793
  167SOPE  H11Y18863   2.029   3.709   7.762  0.0585  0.9928  1.7681
  167SOPE  C31218864   1.861   3.613   7.856 -0.4440  0.1637 -1.1308
  167SOPE  H12X18865   1.876   3.510   7.818 -1.4999  0.3894 -2.2311
  167SOPE  H12Y18866   1.753   3.639   7.863 -0.4456  0.0550 -0.7110
  167SOPE  C31318867   1.923   3.635   7.997 -0.9211 -0.5294  0.2578
  167SOPE  H13X18868   1.922   3.743   8.024  0.1265  0.4170 -3.0133
  167SOPE  H13Y18869   2.031   3.615   7.985 -0.9046  0.1396 -0.8006
  167SOPE  C31418870   1.866   3.536   8.099 -0.0009 -0.1267  0.3951
  167SOPE  H14X18871   1.763   3.512   8.066 -0.1843  0.2457  0.6940
  167SOPE  H14Y18872   1.867   3.580   8.201 -2.3751  2.9154 -0.7450
  167SOPE  C31518873   1.957   3.409   8.097  0.2175 -0.6750 -0.2203
  167SOPE  H15X18874   2.062   3.435   8.122  0.3211 -0.2444 -1.0585
  167SOPE  H15Y18875   1.972   3.369   7.994 -0.4447 -4.0269  0.8431
  167SOPE  C31618876   1.906   3.282   8.174  0.0957  0.5044 -0.1570
  167SOPE  H16X18877   1.908   3.296   8.284  0.0709  1.6086 -0.2793
  167SOPE  H16Y18878   1.963   3.192   8.143 -0.0688  0.4675 -0.3609
  167SOPE  C31718879   1.760   3.253   8.137 -0.1931  0.5347  0.5902
  167SOPE  H17X18880   1.746   3.276   8.029 -0.3186  1.8889  0.8808
  167SOPE  H17Y18881   1.683   3.312   8.190 -3.6975 -0.0068 -3.3425
  167SOPE  C31818882   1.709   3.110   8.148 -0.3393  0.3508  0.1724
  167SOPE  H18X18883   1.615   3.096   8.090 -0.3228  1.8115 -0.2464
  167SOPE  H18Y18884   1.697   3.082   8.255  2.1028 -1.1143  0.1545
  167SOPE  H18Z18885   1.786   3.041   8.105 -0.8705 -1.2081  1.6299
  168SOPE     N18886   0.379   0.820   6.078 -0.0727 -0.4154  0.8484
  168SOPE   HN118887   0.478   0.839   6.099  0.3534 -2.0136  0.4325
  168SOPE   HN218888   0.362   0.829   5.976  3.4945  2.0683  0.2948
  168SOPE   HN318889   0.314   0.877   6.136  1.5015  2.2880  0.0979
  168SOPE   C1218890   0.347   0.682   6.119  0.2874  0.0132 -0.2348
  168SOPE  H12A18891   0.409   0.602   6.073 -1.1734 -1.4347  0.1975
  168SOPE  H12B18892   0.242   0.660   6.088  0.5280 -1.2570 -0.2352
  168SOPE   C1118893   0.353   0.668   6.271  0.5787  0.1600 -0.0302
  168SOPE  H11A18894   0.461   0.684   6.287  0.9056 -1.3416 -0.5151
  168SOPE  H11B18895   0.317   0.564   6.291 -1.3779  0.4874 -1.4975
  168SOPE     P18896   0.118   0.740   6.362  0.2007  0.0265  0.5682
  168SOPE   O1318897   0.071   0.664   6.245  0.2212  0.1157  0.5106
  168SOPE   O1418898   0.048   0.864   6.397 -0.3669  0.1263  0.0520
  168SOPE   O1218899   0.272   0.765   6.335  0.4304  0.1725 -0.6251
  168SOPE   O1118900   0.096   0.645   6.483 -0.0394  0.5393  0.1209
  168SOPE    C118901   0.173   0.526   6.507  0.6179  0.3584 -0.4826
  168SOPE    HA18902   0.284   0.528   6.494  0.5020  0.4099 -1.4903
  168SOPE    HB18903   0.133   0.439   6.452  2.7521 -4.0541  4.0931
  168SOPE    C218904   0.163   0.495   6.662  0.1049 -0.7551  0.9169
  168SOPE    HS18905   0.054   0.502   6.683 -0.6864 -1.0081 -2.5405
  168SOPE   O2118906   0.245   0.596   6.726  0.5488 -0.2246  0.2405
  168SOPE   C2118907   0.198   0.642   6.840  0.8664  0.4180  0.3844
  168SOPE   O2218908   0.099   0.601   6.900  0.4635 -0.5687 -0.1176
  168SOPE   C2218909   0.293   0.750   6.897 -0.3306 -0.4034  0.4771
  168SOPE   H2R18910   0.301   0.839   6.831  1.6165 -0.4065  0.6427
  168SOPE   H2S18911   0.394   0.707   6.881 -0.7677 -0.3745 -3.4087
  168SOPE    C318912   0.221   0.358   6.699 -0.1549 -0.0540  0.1860
  168SOPE    HX18913   0.328   0.352   6.670 -0.9558 -1.3176 -2.8759
  168SOPE    HY18914   0.175   0.286   6.628 -1.7721  2.2709 -1.2285
  168SOPE   O3118915   0.215   0.317   6.842 -0.2635  0.3456 -0.2748
  168SOPE   C3118916   0.092   0.285   6.876  0.0734  0.6841  0.2649
  168SOPE   O3218917  -0.005   0.283   6.806  0.3478 -0.0928  0.1497
  168SOPE   C3218918   0.099   0.240   7.018  0.0075  0.4081 -0.2394
  168SOPE   H2X18919   0.162   0.314   7.073  1.2040 -1.0998  0.5039
  168SOPE   H2Y18920   0.162   0.149   7.015 -2.4962 -1.6251  2.7999
  168SOPE   C2318921   0.247   0.819   7.034 -0.0085 -0.4802 -0.0584
  168SOPE   H3R18922   0.243   0.746   7.118  1.9534 -1.7390 -1.0012
  168SOPE   H3S18923   0.143   0.858   7.034  0.2068  0.1059  0.1941
  168SOPE   C2418924   0.315   0.953   7.070  0.0886 -0.1393  0.0745
  168SOPE   H4R18925   0.425   0.938   7.067  0.0650 -0.3313  0.1266
  168SOPE   H4S18926   0.288   1.039   7.006  0.4526  0.3693  0.5911
  168SOPE   C2518927   0.295   1.001   7.217 -0.0364  0.0890  0.5648
  168SOPE   H5R18928   0.325   1.108   7.224  1.4860 -0.3861  1.7358
  168SOPE   H5S18929   0.188   1.004   7.248  0.4036 -0.1407  2.1580
  168SOPE   C2618930   0.376   0.921   7.323 -0.0624  0.1300 -0.3164
  168SOPE   H6R18931   0.356   0.812   7.315 -0.0140  0.1660 -1.0021
  168SOPE   H6S18932   0.486   0.934   7.314  0.3652 -2.2137  0.7191
  168SOPE   C2718933   0.330   0.977   7.463  0.1847 -0.2509  0.5378
  168SOPE   H7R18934   0.355   1.085   7.459 -1.2559  0.1266  0.9657
  168SOPE   H7S18935   0.219   0.968   7.472  0.2743 -1.5533  0.5315
  168SOPE   C2818936   0.392   0.909   7.584 -0.9441 -0.6130 -0.0837
  168SOPE   H8R18937   0.349   0.809   7.603  1.1177 -1.4780  0.3213
  168SOPE   H8S18938   0.502   0.896   7.573 -0.9231 -0.9506  0.5194
  168SOPE   C2918939   0.366   0.997   7.704  0.3738 -0.3634  0.7621
  168SOPE   H9118940   0.292   1.078   7.689  1.2173  0.0537 -1.6061
  168SOPE  C21018941   0.391   0.951   7.833  0.3119 -0.2198 -0.2779
  168SOPE  H10118942   0.363   1.024   7.910  0.5197 -0.0797 -0.3320
  168SOPE  C21118943   0.465   0.825   7.866  0.5252 -0.0030 -0.1399
  168SOPE  H11R18944   0.555   0.860   7.922  0.8764 -0.4148 -0.4417
  168SOPE  H11S18945   0.495   0.765   7.778 -2.7410  0.6824 -1.8678
  168SOPE  C21218946   0.374   0.730   7.952  0.4309 -0.0523 -0.1008
  168SOPE  H12R18947   0.427   0.633   7.959  1.3384  0.5058  1.2098
  168SOPE  H12S18948   0.279   0.718   7.896  1.4805 -1.5854 -1.6808
  168SOPE  C21318949   0.350   0.769   8.097  0.3044 -0.2825  0.0593
  168SOPE  H13R18950   0.268   0.705   8.135  2.0422 -3.0852 -0.6454
  168SOPE  H13S18951   0.316   0.874   8.109 -2.3523 -1.1918  1.2823
  168SOPE  C21418952   0.472   0.735   8.188  0.6589 -0.0077  0.7605
  168SOPE  H14R18953   0.564   0.788   8.156 -0.7798  1.7747 -0.6735
  168SOPE  H14S18954   0.486   0.626   8.173 -2.9147 -0.3777 -1.0190
  168SOPE  C21518955   0.449   0.780   8.332  0.3105  0.7487  0.2670
  168SOPE  H15R18956   0.374   0.719   8.388  0.8345 -0.4580 -0.3121
  168SOPE  H15S18957   0.410   0.885   8.332 -2.9544 -0.3027  1.9513
  168SOPE  C21618958   0.580   0.793   8.404  0.0088  0.7479  0.0684
  168SOPE  H16R18959   0.657   0.857   8.356  1.1349 -2.4110 -2.7532
  168SOPE  H16S18960   0.619   0.690   8.392  1.0788  1.1732 -0.1732
  168SOPE  C21718961   0.541   0.831   8.548  0.2155  0.0398  0.1940
  168SOPE  H17R18962   0.469   0.767   8.603  1.1756 -1.1101  0.1463
  168SOPE  H17S18963   0.489   0.929   8.549 -2.4369 -1.1609  4.5700
  168SOPE  C21818964   0.672   0.844   8.628 -0.1853 -0.2313  0.1825
  168SOPE  H18R18965   0.745   0.920   8.591 -1.2868  1.3874  1.2278
  168SOPE  H18S18966   0.735   0.753   8.633  2.6430  1.4086 -2.2522
  168SOPE  H18T18967   0.649   0.865   8.735  0.3313  0.3754  0.1813
  168SOPE   C3318968  -0.040   0.216   7.084 -0.2201 -0.5612 -0.3474
  168SOPE   H3X18969  -0.094   0.140   7.023 -0.1209 -1.3315  0.5105
  168SOPE   H3Y18970  -0.104   0.306   7.072  0.6708  0.2837  1.0268
  168SOPE   C3418971  -0.020   0.177   7.234 -0.8052 -0.4884 -0.4335
  168SOPE   H4X18972   0.054   0.094   7.241  1.0221  0.8023 -2.7193
  168SOPE   H4Y18973  -0.116   0.150   7.282 -0.1296 -1.2949  0.5061
  168SOPE   C3518974   0.014   0.296   7.321 -0.0592 -0.6485  0.7184
  168SOPE   H5X18975  -0.084   0.343   7.344 -0.2072  0.2663 -1.5387
  168SOPE   H5Y18976   0.078   0.375   7.277  0.2682 -0.6351  1.2056
  168SOPE   C3618977   0.087   0.279   7.451 -0.7694  0.7330  0.2753
  168SOPE   H6X18978   0.107   0.375   7.503  1.0139  0.3307  0.3888
  168SOPE   H6Y18979   0.186   0.231   7.435 -1.2264  0.4255 -2.1036
  168SOPE   C3718980   0.008   0.200   7.553  1.0173 -0.2324 -0.5998
  168SOPE   H7X18981  -0.034   0.104   7.515  0.4745 -0.2706  0.0869
  168SOPE   H7Y18982  -0.083   0.260   7.572  1.1221  0.7833 -2.9378
  168SOPE   C3818983   0.099   0.160   7.674  0.1868 -0.3182 -0.1219
  168SOPE   H8X18984   0.195   0.124   7.630  0.8875  1.5800 -0.2399
  168SOPE   H8Y18985   0.054   0.079   7.735 -3.3004 -0.0798 -2.1327
  168SOPE   C3918986   0.116   0.290   7.759  0.2787  0.2445  0.4615
  168SOPE   H9X18987   0.016   0.336   7.772  0.1944 -0.2396  1.6177
  168SOPE   H9Y18988   0.179   0.365   7.707  1.3796 -1.3778 -0.6555
  168SOPE  C31018989   0.174   0.260   7.897  0.2766  0.4313  0.0551
  168SOPE  H10X18990   0.274   0.214   7.885  0.7055  1.0153  1.2363
  168SOPE  H10Y18991   0.115   0.185   7.954  0.9813  0.8721  1.3949
  168SOPE  C31118992   0.180   0.383   7.998  0.2831  0.0082  0.1821
  168SOPE  H11X18993   0.097   0.453   7.977 -0.2844 -0.7794 -0.2759
  168SOPE  H11Y18994   0.274   0.440   7.985 -0.3732  0.7697 -1.4889
  168SOPE  C31218995   0.178   0.330   8.145 -0.3603  0.0469 -0.0860
  168SOPE  H12X18996   0.239   0.238   8.156  0.2497  0.1771 -1.9996
  168SOPE  H12Y18997   0.070   0.305   8.156 -0.8788  1.9134 -0.5611
  168SOPE  C31318998   0.211   0.433   8.251  0.0887 -0.2386 -0.0001
  168SOPE  H13X18999   0.153   0.526   8.233  0.4447  0.0461  0.3063
  168SOPE  H13Y19000   0.321   0.447   8.255  0.1075 -0.1786 -0.7000
  168SOPE  C31419001   0.168   0.395   8.393 -0.0625  0.6624 -0.1791
  168SOPE  H14X19002   0.211   0.294   8.409  1.0921  1.4384  1.9735
  168SOPE  H14Y19003   0.057   0.389   8.394 -0.1542  0.4716 -2.7855
  168SOPE  C31519004   0.211   0.492   8.500 -0.1425  0.0374  0.2778
  168SOPE  H15X19005   0.198   0.595   8.460  4.4099 -0.5259 -3.6359
  168SOPE  H15Y19006   0.321   0.478   8.504  0.3298  2.7438 -0.9595
  168SOPE  C31619007   0.154   0.474   8.637  0.8501  0.6277 -0.4091
  168SOPE  H16X19008   0.047   0.501   8.640  1.1439  1.7638  1.5370
  168SOPE  H16Y19009   0.199   0.546   8.708 -0.4558  0.4248  0.6508
  168SOPE  C31719010   0.183   0.338   8.702 -0.8218  0.0370  0.1409
  168SOPE  H17X19011   0.145   0.259   8.635  0.3970  0.6560 -1.3600
  168SOPE  H17Y19012   0.119   0.325   8.792 -0.5654  2.4868  0.7763
  168SOPE  C31819013   0.334   0.308   8.731  0.0015  0.2258 -0.1436
  168SOPE  H18X19014   0.357   0.201   8.751  0.8264  0.5068  0.4679
  168SOPE  H18Y19015   0.364   0.360   8.825 -0.7564 -0.8210  0.7032
  168SOPE  H18Z19016   0.400   0.334   8.646 -0.7023  0.5293 -0.6018
  169SOPE     N19017   2.348   3.004   6.356  0.5445 -0.1261  0.4485
  169SOPE   HN119018   2.342   2.941   6.273 -1.1855  0.4909  0.0613
  169SOPE   HN219019   2.254   3.050   6.363  0.5069 -0.1662  0.2361
  169SOPE   HN319020   2.414   3.082   6.342  0.9171 -0.4330  0.4941
  169SOPE   C1219021   2.384   2.936   6.483  0.0850 -0.2365  0.1243
  169SOPE  H12A19022   2.288   2.900   6.528 -0.7113  0.1680 -1.2073
  169SOPE  H12B19023   2.425   3.017   6.548  0.7512 -0.8984  0.5517
  169SOPE   C1119024   2.475   2.821   6.450  0.3205  0.5916  0.4727
  169SOPE  H11A19025   2.418   2.748   6.389 -1.3314  1.4149  0.9699
  169SOPE  H11B19026   2.501   2.770   6.545  2.2891 -1.3452 -1.0028
  169SOPE     P19027   2.720   2.768   6.379  0.1468  0.2909  0.3472
  169SOPE   O1319028   2.825   2.852   6.318  0.0125 -0.1845 -0.1729
  169SOPE   O1419029   2.689   2.644   6.310 -0.4753 -0.1129  0.0121
  169SOPE   O1219030   2.595   2.861   6.385 -0.2353 -0.0699  0.8348
  169SOPE   O1119031   2.755   2.725   6.533 -0.3773 -0.4433 -0.2333
  169SOPE    C119032   2.785   2.842   6.620 -0.1614  0.6604  0.7108
  169SOPE    HA19033   2.696   2.902   6.645 -1.1251 -0.7494  0.7810
  169SOPE    HB19034   2.858   2.910   6.571 -0.5946  1.0464  0.5933
  169SOPE    C219035   2.852   2.786   6.750 -0.1201 -0.1921 -0.2347
  169SOPE    HS19036   2.931   2.715   6.717  0.7318  0.3636  0.5795
  169SOPE   O2119037   2.749   2.723   6.825  0.1789 -0.0972 -0.3260
  169SOPE   C2119038   2.784   2.620   6.908  0.6288  0.6501 -0.0351
  169SOPE   O2219039   2.897   2.588   6.939 -0.0393 -0.4591  0.0962
  169SOPE   C2219040   2.660   2.555   6.956 -0.1516 -0.3007 -0.1073
  169SOPE   H2R19041   2.670   2.445   6.941  1.0680 -0.3461  0.8395
  169SOPE   H2S19042   2.576   2.575   6.887 -0.2271 -0.0261  0.0615
  169SOPE    C319043   2.912   2.903   6.837 -0.3730  0.0008 -0.8844
  169SOPE    HX19044   2.842   2.988   6.852  0.7879  0.7389  0.5074
  169SOPE    HY19045   2.985   2.944   6.763 -1.8148 -0.4972 -2.6746
  169SOPE   O3119046   2.961   2.865   6.974  0.4863 -0.1556 -0.0691
  169SOPE   C3119047   3.088   2.821   6.966 -0.4286 -0.2874 -0.2111
  169SOPE   O3219048   3.157   2.817   6.865  0.8785  0.3224 -0.4365
  169SOPE   C3219049   3.145   2.799   7.110 -0.1517 -0.6479  0.6749
  169SOPE   H2X19050   3.144   2.899   7.158  0.9715  1.1163 -2.6622
  169SOPE   H2Y19051   3.251   2.766   7.106  0.2361  0.5564  0.5515
  169SOPE   C2319052   2.614   2.608   7.091  0.1052  0.7492  0.4007
  169SOPE   H3R19053   2.512   2.577   7.120  0.1626  1.4466  1.3689
  169SOPE   H3S19054   2.626   2.718   7.096 -1.8304  1.3673 -3.8364
  169SOPE   C2419055   2.686   2.538   7.208  0.3653  0.0077  0.4141
  169SOPE   H4R19056   2.625   2.445   7.214  0.0490  0.2827  1.6819
  169SOPE   H4S19057   2.789   2.515   7.174  0.0473 -0.5818 -0.1691
  169SOPE   C2519058   2.678   2.626   7.332 -0.3243  0.0781 -0.1269
  169SOPE   H5R19059   2.733   2.721   7.317 -0.0487  0.3171  2.0316
  169SOPE   H5S19060   2.577   2.666   7.357  0.0841  1.0486 -0.0045
  169SOPE   C2619061   2.727   2.550   7.456 -0.7819  0.0458 -0.6457
  169SOPE   H6R19062   2.680   2.452   7.477  0.3816 -0.6950 -1.3624
  169SOPE   H6S19063   2.834   2.522   7.441 -1.0070 -0.1739 -1.9673
  169SOPE   C2719064   2.735   2.650   7.572  0.5508  0.5391 -0.4412
  169SOPE   H7R19065   2.793   2.736   7.532 -1.0478  1.5758 -0.6384
  169SOPE   H7S19066   2.633   2.682   7.604  0.2971  0.4783 -1.1694
  169SOPE   C2819067   2.813   2.589   7.692  0.2947 -0.3298  0.0036
  169SOPE   H8R19068   2.770   2.494   7.731 -0.0589 -0.6982 -1.2233
  169SOPE   H8S19069   2.909   2.561   7.645 -0.8007 -1.2242 -1.8077
  169SOPE   C2919070   2.842   2.688   7.805  0.8133  0.1146  0.5123
  169SOPE   H9119071   2.894   2.781   7.779 -1.3536  1.7165  1.5259
  169SOPE  C21019072   2.794   2.676   7.932  0.0252 -0.5967  0.8720
  169SOPE  H10119073   2.840   2.746   8.004  0.8559  0.0607 -0.2607
  169SOPE  C21119074   2.720   2.563   7.993 -0.1386  0.6249 -0.5515
  169SOPE  H11R19075   2.789   2.499   8.054  1.1385  3.5986  1.3604
  169SOPE  H11S19076   2.675   2.503   7.911  0.5739 -0.9885  0.1780
  169SOPE  C21219077   2.606   2.613   8.082 -0.3173 -0.4941  0.4526
  169SOPE  H12R19078   2.569   2.525   8.140  2.0526 -2.7132 -1.1476
  169SOPE  H12S19079   2.523   2.658   8.024  0.6584  2.0525  0.9320
  169SOPE  C21319080   2.647   2.713   8.184 -0.5697  0.6543  0.1383
  169SOPE  H13R19081   2.698   2.799   8.135  1.5668  1.2131  3.0761
  169SOPE  H13S19082   2.723   2.668   8.251  0.7274  1.3570 -0.8153
  169SOPE  C21419083   2.527   2.765   8.266 -0.5280  0.8707 -0.6759
  169SOPE  H14R19084   2.554   2.831   8.351  0.5924  0.2590 -0.5411
  169SOPE  H14S19085   2.478   2.681   8.319  0.6243  0.0617 -0.8636
  169SOPE  C21519086   2.431   2.854   8.184 -0.0142 -0.1135 -0.0322
  169SOPE  H15R19087   2.355   2.889   8.256 -1.9216 -2.3767 -0.8118
  169SOPE  H15S19088   2.375   2.802   8.102 -0.7038 -1.2088  1.0974
  169SOPE  C21619089   2.502   2.977   8.136  0.5377  0.1477  0.3327
  169SOPE  H16R19090   2.590   2.969   8.069  1.3561  3.2403  0.8565
  169SOPE  H16S19091   2.544   3.030   8.225 -0.2994  0.4077  0.5863
  169SOPE  C21719092   2.411   3.082   8.068  0.2400 -0.0220  0.3300
  169SOPE  H17R19093   2.338   3.034   8.000 -0.1278  0.0001  0.7051
  169SOPE  H17S19094   2.480   3.154   8.019  1.2620 -0.8010  0.5804
  169SOPE  C21819095   2.341   3.173   8.169 -0.4573  0.7883 -0.1553
  169SOPE  H18R19096   2.408   3.204   8.252  0.1826 -0.4719 -0.1664
  169SOPE  H18S19097   2.256   3.117   8.214 -0.2722 -0.1793 -0.9632
  169SOPE  H18T19098   2.289   3.259   8.122 -1.4163  0.1807 -0.2436
  169SOPE   C3319099   3.071   2.692   7.194  0.4750 -0.3135  0.3871
  169SOPE   H3X19100   3.052   2.597   7.139 -1.1502  1.4362 -2.2793
  169SOPE   H3Y19101   2.968   2.731   7.210  0.8752  0.4760  1.0640
  169SOPE   C3419102   3.149   2.670   7.327  0.1402 -0.5701  0.4830
  169SOPE   H4X19103   3.104   2.742   7.398 -0.6790 -0.8853  0.2974
  169SOPE   H4Y19104   3.257   2.693   7.320  0.0809 -0.4591 -0.1576
  169SOPE   C3519105   3.131   2.528   7.395 -0.6187 -1.0357 -0.0489
  169SOPE   H5X19106   3.191   2.451   7.341 -1.9725  0.0555 -3.3789
  169SOPE   H5Y19107   3.026   2.496   7.411 -0.3766 -0.8082  2.3125
  169SOPE   C3619108   3.184   2.520   7.542 -0.5812 -0.3176  0.1543
  169SOPE   H6X19109   3.150   2.607   7.603  1.7780 -0.9928  2.6463
  169SOPE   H6Y19110   3.295   2.523   7.543 -0.5266 -0.9640  2.1240
  169SOPE   C3719111   3.146   2.388   7.606 -0.5783  0.3481 -0.0101
  169SOPE   H7X19112   3.188   2.302   7.550 -0.2689  0.8501 -0.5550
  169SOPE   H7Y19113   3.037   2.380   7.588 -0.1153 -2.7886 -2.2148
  169SOPE   C3819114   3.183   2.373   7.754 -0.0151  0.4554  0.5004
  169SOPE   H8X19115   3.150   2.278   7.800  2.0090  1.4594  4.4223
  169SOPE   H8Y19116   3.294   2.379   7.760  0.0614 -0.0422 -0.2437
  169SOPE   C3919117   3.134   2.482   7.845  0.3471 -0.1870  0.5129
  169SOPE   H9X19118   3.024   2.486   7.832  0.4525 -0.8913 -0.6917
  169SOPE   H9Y19119   3.187   2.575   7.815  2.0758 -0.9413  1.0672
  169SOPE  C31019120   3.161   2.466   7.993 -0.3342 -0.4440 -0.0104
  169SOPE  H10X19121   3.264   2.428   8.006  0.0089  0.4082 -0.1423
  169SOPE  H10Y19122   3.094   2.393   8.042 -0.0809  0.7284  2.2098
  169SOPE  C31119123   3.156   2.599   8.067 -0.3093  0.0765 -0.4298
  169SOPE  H11X19124   3.050   2.630   8.086  0.4595  1.7411  1.5364
  169SOPE  H11Y19125   3.207   2.677   8.007  0.6749 -0.0326  0.2508
  169SOPE  C31219126   3.228   2.588   8.202 -0.2587  0.0390  0.1952
  169SOPE  H12X19127   3.195   2.499   8.260  1.4365 -1.4516 -1.0054
  169SOPE  H12Y19128   3.209   2.673   8.271 -1.7023  0.9759 -1.2791
  169SOPE  C31319129   3.383   2.554   8.192  1.0846 -0.0932  0.5838
  169SOPE  H13X19130   3.429   2.615   8.111 -1.3899  1.8150  0.4926
  169SOPE  H13Y19131   3.400   2.449   8.159 -1.3652 -0.3858  0.0770
  169SOPE  C31419132   3.452   2.577   8.327 -0.3955 -0.3384 -0.7740
  169SOPE  H14X19133   3.397   2.532   8.413 -0.7219  2.1543  0.3889
  169SOPE  H14Y19134   3.440   2.683   8.358 -0.0245 -0.9369  1.6494
  169SOPE  C31519135   3.595   2.527   8.339  0.1249 -0.2093 -0.1761
  169SOPE  H15X19136   3.649   2.555   8.246 -0.6797 -0.8715 -0.8520
  169SOPE  H15Y19137   3.592   2.416   8.350 -1.2419 -0.2329 -0.5630
  169SOPE  C31619138   3.674   2.597   8.452 -0.2182  0.1833 -0.4070
  169SOPE  H16X19139   3.612   2.597   8.544  1.2037  0.0417  0.5793
  169SOPE  H16Y19140   3.692   2.702   8.420  0.2668  0.4601  0.7191
  169SOPE  C31719141   3.814   2.533   8.469  0.4221 -0.7430 -0.5116
  169SOPE  H17X19142   3.882   2.575   8.392  0.1919 -0.2717 -0.4594
  169SOPE  H17Y19143   3.809   2.422   8.460 -1.5553 -0.6727 -0.8186
  169SOPE  C31819144   3.872   2.563   8.610 -0.1127  0.0508 -0.3473
  169SOPE  H18X19145   3.878   2.673   8.627 -0.5740  0.0474 -0.1419
  169SOPE  H18Y19146   3.973   2.517   8.611  0.3821  0.3325 -5.5900
  169SOPE  H18Z19147   3.803   2.517   8.683 -0.0434 -2.4537 -1.7368
  170SOPE     N19148   3.457   2.410   6.280 -0.3559 -0.8341  0.1055
  170SOPE   HN119149   3.477   2.309   6.266  3.0084 -0.0645 -1.9450
  170SOPE   HN219150   3.372   2.433   6.225  0.7483  1.8460 -0.6733
  170SOPE   HN319151   3.530   2.461   6.227 -1.0645 -1.7452 -1.8354
  170SOPE   C1219152   3.445   2.451   6.419  0.3092  0.0152 -1.0686
  170SOPE  H12A19153   3.536   2.421   6.476  0.8241 -0.2456 -2.0208
  170SOPE  H12B19154   3.357   2.400   6.463  2.1004 -0.8502  1.8643
  170SOPE   C1119155   3.425   2.604   6.425  0.3455  0.1592 -0.4610
  170SOPE  H11A19156   3.404   2.629   6.531  1.4146  0.6586 -0.3493
  170SOPE  H11B19157   3.332   2.634   6.371 -0.3665 -1.2663 -0.0651
  170SOPE     P19158   3.674   2.692   6.461 -0.0593  0.2165  0.2681
  170SOPE   O1319159   3.715   2.833   6.443 -0.0023 -0.9649  0.4212
  170SOPE   O1419160   3.765   2.584   6.411  0.3997 -0.6604 -0.2063
  170SOPE   O1219161   3.539   2.682   6.378 -0.7078  0.5066 -0.2811
  170SOPE   O1119162   3.634   2.675   6.609 -0.4436 -0.2493 -0.6140
  170SOPE    C119163   3.706   2.746   6.714  0.7924 -0.1499  0.7161
  170SOPE    HA19164   3.789   2.809   6.675  0.3844 -0.2979 -0.4344
  170SOPE    HB19165   3.748   2.671   6.785 -0.6440  0.5527  2.3822
  170SOPE    C219166   3.610   2.846   6.790 -0.2789  0.0522  0.1492
  170SOPE    HS19167   3.579   2.926   6.719 -2.3661 -0.3101  0.5822
  170SOPE   O2119168   3.686   2.901   6.904 -0.1767 -0.2909  0.5370
  170SOPE   C2119169   3.629   3.004   6.973 -0.0173 -0.2414 -0.4639
  170SOPE   O2219170   3.527   3.062   6.946  0.0351 -0.1419  0.4739
  170SOPE   C2219171   3.714   3.026   7.099 -0.0640 -0.6522 -0.1069
  170SOPE   H2R19172   3.812   3.059   7.061 -1.2277  2.4292 -0.7031
  170SOPE   H2S19173   3.724   2.929   7.152  1.0426  0.7995  2.5133
  170SOPE    C319174   3.484   2.767   6.846 -0.6347  0.4338  0.5889
  170SOPE    HX19175   3.444   2.726   6.750 -0.9660 -0.6033  1.1521
  170SOPE    HY19176   3.419   2.843   6.893 -0.2800  0.3841  1.1668
  170SOPE   O3119177   3.530   2.654   6.922 -0.2373  0.0962 -0.5283
  170SOPE   C3119178   3.533   2.676   7.059 -0.2084  0.2777  0.1865
  170SOPE   O3219179   3.485   2.772   7.119 -0.0378  0.2796  0.5382
  170SOPE   C3219180   3.580   2.546   7.127 -0.1134  0.0251  0.7129
  170SOPE   H2X19181   3.689   2.539   7.107 -0.5484 -0.6384 -1.7737
  170SOPE   H2Y19182   3.531   2.466   7.068 -0.9679  1.6481 -0.8743
  170SOPE   C2319183   3.663   3.129   7.200  0.0725  0.7880  0.1073
  170SOPE   H3R19184   3.553   3.142   7.197 -0.1737 -0.8898  0.5574
  170SOPE   H3S19185   3.695   3.230   7.166  0.2058  0.8515  0.4213
  170SOPE   C2419186   3.724   3.097   7.336  0.6570 -0.3522 -0.0510
  170SOPE   H4R19187   3.676   3.001   7.366 -1.1882  0.0234 -1.5359
  170SOPE   H4S19188   3.834   3.089   7.326  0.7999  0.7478  0.5842
  170SOPE   C2519189   3.677   3.201   7.433 -0.7051  0.5417  0.0935
  170SOPE   H5R19190   3.665   3.300   7.385  0.9938  0.1775 -1.1902
  170SOPE   H5S19191   3.578   3.160   7.462 -1.3045  2.2198  0.5065
  170SOPE   C2619192   3.771   3.215   7.547 -0.4433  0.2110 -0.2959
  170SOPE   H6R19193   3.796   3.113   7.584  0.4408 -0.9073 -3.6018
  170SOPE   H6S19194   3.867   3.253   7.506  0.1335 -0.0320  0.7693
  170SOPE   C2719195   3.706   3.302   7.653 -0.4354  0.3560 -0.0157
  170SOPE   H7R19196   3.638   3.377   7.608  0.2392  0.6213 -0.6101
  170SOPE   H7S19197   3.649   3.233   7.720 -0.1100  0.5715  0.4918
  170SOPE   C2819198   3.793   3.381   7.749  0.3359 -0.2995 -0.2204
  170SOPE   H8R19199   3.861   3.306   7.794 -0.4722 -0.4444  0.8051
  170SOPE   H8S19200   3.863   3.442   7.688 -0.6674  0.1345 -0.9638
  170SOPE   C2919201   3.725   3.464   7.860 -0.3434  0.0678  0.3768
  170SOPE   H9119202   3.713   3.571   7.842  1.3350  0.1598 -0.4419
  170SOPE  C21019203   3.692   3.429   7.984 -0.4240  0.4901  0.3967
  170SOPE  H10119204   3.624   3.485   8.050  2.4211  2.1394  2.1308
  170SOPE  C21119205   3.711   3.289   8.039 -0.3488  0.1487 -0.8864
  170SOPE  H11R19206   3.796   3.233   7.995  0.0892 -0.5500  0.7480
  170SOPE  H11S19207   3.620   3.229   8.018 -0.0493 -0.8493  0.5063
  170SOPE  C21219208   3.736   3.295   8.187 -0.5137  0.0693  0.3571
  170SOPE  H12R19209   3.742   3.189   8.220 -1.1462  0.4389  1.7168
  170SOPE  H12S19210   3.662   3.351   8.248  1.2324  0.5624  2.1345
  170SOPE  C21319211   3.871   3.361   8.222  0.2125  0.4041 -0.2376
  170SOPE  H13R19212   3.889   3.461   8.177 -2.2254  0.4139 -1.3380
  170SOPE  H13S19213   3.956   3.296   8.195  0.6168 -0.1691  2.1665
  170SOPE  C21419214   3.879   3.359   8.379 -0.2311  0.5488 -0.2167
  170SOPE  H14R19215   3.947   3.274   8.400 -0.1198  0.5095 -0.7257
  170SOPE  H14S19216   3.784   3.343   8.434  0.8835 -2.0030  1.1213
  170SOPE  C21519217   3.947   3.478   8.434 -0.1449 -0.2684 -1.5236
  170SOPE  H15R19218   3.898   3.575   8.410 -2.5303 -0.5920  1.4886
  170SOPE  H15S19219   4.053   3.484   8.402  0.9091 -0.7546  1.5170
  170SOPE  C21619220   3.957   3.480   8.589 -0.2380 -0.2289  0.7627
  170SOPE  H16R19221   4.009   3.391   8.630 -0.5434 -0.5144  0.5381
  170SOPE  H16S19222   3.858   3.474   8.640 -0.8616 -0.7232 -0.4601
  170SOPE  C21719223   4.024   3.611   8.632 -0.1614  0.3761 -0.3812
  170SOPE  H17R19224   3.960   3.693   8.594 -0.0224  0.2162 -0.9740
  170SOPE  H17S19225   4.129   3.623   8.597  0.1764  0.7587  0.7515
  170SOPE  C21819226   4.022   3.604   8.790  0.0385 -0.0280  0.4174
  170SOPE  H18R19227   4.067   3.696   8.833  0.4816  0.7986 -1.7103
  170SOPE  H18S19228   4.077   3.514   8.824  0.6872  0.2100  0.0189
  170SOPE  H18T19229   3.919   3.598   8.832  0.1539  0.0544  0.7132
  170SOPE   C3319230   3.546   2.536   7.277  1.1466  0.2879  0.0684
  170SOPE   H3X19231   3.436   2.521   7.274  1.1982 -0.4276  1.0489
  170SOPE   H3Y19232   3.574   2.633   7.323  1.2015 -0.0102  0.6845
  170SOPE   C3419233   3.618   2.424   7.355  0.3399 -0.1604  0.8594
  170SOPE   H4X19234   3.726   2.452   7.349 -0.2514  2.4270  1.0916
  170SOPE   H4Y19235   3.607   2.328   7.299 -2.6717  1.6283 -1.9721
  170SOPE   C3519236   3.570   2.421   7.497  0.6309  0.2565 -0.7081
  170SOPE   H5X19237   3.464   2.388   7.501  0.5819  0.0872 -2.4263
  170SOPE   H5Y19238   3.572   2.529   7.519  1.8035  0.7131 -2.7783
  170SOPE   C3619239   3.649   2.342   7.603  0.6053  0.2380 -0.7175
  170SOPE   H6X19240   3.756   2.370   7.593  1.2131 -1.5788  0.2834
  170SOPE   H6Y19241   3.648   2.232   7.589  4.6361 -0.2655  1.6020
  170SOPE   C3719242   3.610   2.378   7.747  0.1947  0.2894 -0.4286
  170SOPE   H7X19243   3.531   2.307   7.779  0.4837 -0.7940 -2.0378
  170SOPE   H7Y19244   3.561   2.478   7.745 -0.8794 -0.1871  0.6814
  170SOPE   C3819245   3.735   2.366   7.832 -0.1579  0.2212 -0.2223
  170SOPE   H8X19246   3.794   2.276   7.805  0.4446  0.2020  1.0781
  170SOPE   H8Y19247   3.704   2.347   7.937  0.1816 -0.8422 -0.2949
  170SOPE   C3919248   3.829   2.486   7.814  0.3674  0.1496 -0.4500
  170SOPE   H9X19249   3.764   2.571   7.783 -0.9390 -0.3653  0.7887
  170SOPE   H9Y19250   3.901   2.459   7.733  1.6877 -3.1706  1.6443
  170SOPE  C31019251   3.901   2.513   7.944  0.0036  0.2993  0.6743
  170SOPE  H10X19252   3.989   2.446   7.952  1.4806  2.2348  1.2188
  170SOPE  H10Y19253   3.847   2.490   8.038  0.7286 -0.2433  0.9672
  170SOPE  C31119254   3.959   2.653   7.971 -0.3681 -0.1913 -0.3365
  170SOPE  H11X19255   3.885   2.723   7.927  0.3450  0.1881 -0.9630
  170SOPE  H11Y19256   4.056   2.669   7.919 -0.3016 -0.2197 -0.2200
  170SOPE  C31219257   3.967   2.708   8.121  0.1865 -0.4308  0.2655
  170SOPE  H12X19258   4.059   2.668   8.168  1.0568  0.1576 -0.9029
  170SOPE  H12Y19259   3.876   2.667   8.170 -0.5131  0.2470 -0.4401
  170SOPE  C31319260   3.968   2.862   8.124  0.6526  0.0142 -0.2677
  170SOPE  H13X19261   3.884   2.915   8.073 -0.3158 -0.2829  0.9620
  170SOPE  H13Y19262   4.061   2.901   8.077  2.0882 -2.1289  0.6567
  170SOPE  C31419263   3.965   2.919   8.267 -0.0338 -0.7664  1.0796
  170SOPE  H14X19264   3.868   2.901   8.318 -0.3452 -1.2259  0.3344
  170SOPE  H14Y19265   3.990   3.027   8.268  0.4345 -0.8761  1.2212
  170SOPE  C31519266   4.071   2.865   8.352 -0.1562  1.1179 -0.3934
  170SOPE  H15X19267   4.169   2.887   8.305  0.5731 -0.2445  0.4264
  170SOPE  H15Y19268   4.060   2.755   8.361 -0.9944  1.2913  0.9438
  170SOPE  C31619269   4.069   2.927   8.496 -0.9004  0.7353  0.5981
  170SOPE  H16X19270   3.976   2.892   8.546 -1.3806 -0.0290 -0.7796
  170SOPE  H16Y19271   4.052   3.037   8.490  1.8427  1.2883  1.2714
  170SOPE  C31719272   4.198   2.903   8.578 -0.4645 -0.1553 -0.3928
  170SOPE  H17X19273   4.247   2.804   8.563 -0.0371 -0.4445  2.4086
  170SOPE  H17Y19274   4.186   2.908   8.688  1.0854  0.8611 -0.2420
  170SOPE  C31819275   4.305   3.001   8.527 -0.8262 -0.3825  0.5440
  170SOPE  H18X19276   4.268   3.105   8.542 -0.1577 -0.0369 -0.1542
  170SOPE  H18Y19277   4.323   2.984   8.419 -0.3676  0.6007  0.4533
  170SOPE  H18Z19278   4.409   2.987   8.564 -0.3674 -0.6687 -0.8042
  171SOPE     N19279   4.222   4.883   6.334  0.7381  0.4057 -0.4204
  171SOPE   HN119280   4.284   4.907   6.255  2.2674 -0.9720  0.3036
  171SOPE   HN219281   4.189   4.785   6.328 -1.6435  0.9337  1.8782
  171SOPE   HN319282   4.135   4.938   6.318  0.9204  0.2674 -1.9714
  171SOPE   C1219283   4.288   4.921   6.458 -0.1653  0.0053  0.9760
  171SOPE  H12A19284   4.399   4.924   6.452 -0.0920  1.1498  2.2937
  171SOPE  H12B19285   4.273   4.843   6.535 -0.4826  1.4804  2.4630
  171SOPE   C1119286   4.234   5.049   6.501  0.4425  0.6119  0.5713
  171SOPE  H11A19287   4.304   5.076   6.583  0.2194 -1.2454  1.4221
  171SOPE  H11B19288   4.136   5.040   6.552  1.9487 -2.0862  3.3325
  171SOPE     P19289   4.341   5.253   6.372 -0.0359  0.2655  0.0675
  171SOPE   O1319290   4.297   5.366   6.284  0.1429  0.0538 -0.0929
  171SOPE   O1419291   4.463   5.179   6.322  0.0331 -0.3544  0.0814
  171SOPE   O1219292   4.222   5.147   6.395  0.0478 -0.2126  0.1560
  171SOPE   O1119293   4.382   5.309   6.516  0.1425  0.3340  0.0519
  171SOPE    C119294   4.402   5.455   6.526 -0.3924  0.6519  0.4271
  171SOPE    HA19295   4.359   5.525   6.451 -2.0436  0.9631  1.6076
  171SOPE    HB19296   4.512   5.465   6.513 -0.1162 -1.5027  0.7765
  171SOPE    C219297   4.349   5.501   6.662  0.4768  1.0069  0.6183
  171SOPE    HS19298   4.383   5.438   6.747  0.6664 -0.9464 -0.8487
  171SOPE   O2119299   4.204   5.493   6.659  0.2964  0.1816  0.4189
  171SOPE   C2119300   4.147   5.425   6.759  0.2735  0.1757 -0.2184
  171SOPE   O2219301   4.198   5.359   6.843  0.5394  0.0268 -1.0269
  171SOPE   C2219302   3.993   5.427   6.733  0.5704  0.2290  0.1251
  171SOPE   H2R19303   3.977   5.327   6.689  0.8948 -0.3347  1.2374
  171SOPE   H2S19304   3.969   5.514   6.669 -0.5757 -1.2134 -1.4931
  171SOPE    C319305   4.396   5.645   6.688 -0.1408  0.3137 -0.8108
  171SOPE    HX19306   4.365   5.717   6.609 -1.8598  1.3394  0.6980
  171SOPE    HY19307   4.507   5.649   6.686 -0.0936  0.5151  0.6007
  171SOPE   O3119308   4.335   5.688   6.816  0.4618 -0.2793  0.1514
  171SOPE   C3119309   4.403   5.669   6.928  0.7459 -0.0995  0.5037
  171SOPE   O3219310   4.510   5.602   6.933  1.0990 -0.1977  0.2693
  171SOPE   C3219311   4.338   5.730   7.049  0.2633 -0.2956 -0.1008
  171SOPE   H2X19312   4.227   5.720   7.044 -0.0475  2.5583 -0.3425
  171SOPE   H2Y19313   4.360   5.839   7.045 -1.3186  0.0664  0.3262
  171SOPE   C2319314   3.914   5.445   6.858  0.7571 -0.4556 -0.0067
  171SOPE   H3R19315   3.930   5.369   6.938 -1.3150 -2.2375 -1.1877
  171SOPE   H3S19316   3.805   5.441   6.834  0.5182  1.3550  0.6384
  171SOPE   C2419317   3.923   5.578   6.935  0.0355 -0.5829 -0.3223
  171SOPE   H4R19318   4.027   5.574   6.974 -0.2718  0.2129  0.6033
  171SOPE   H4S19319   3.907   5.656   6.858 -1.9782  0.2125  0.8290
  171SOPE   C2519320   3.825   5.593   7.057  0.1037 -0.1861  0.3172
  171SOPE   H5R19321   3.842   5.691   7.107 -0.5654  0.0328  0.1222
  171SOPE   H5S19322   3.722   5.594   7.015 -0.1214  2.8996  0.7134
  171SOPE   C2619323   3.843   5.488   7.175  0.1255  0.3959 -0.3391
  171SOPE   H6R19324   3.832   5.387   7.130 -2.3090  0.1864  0.5419
  171SOPE   H6S19325   3.947   5.499   7.212  1.0114  0.1761 -2.5969
  171SOPE   C2719326   3.734   5.499   7.281 -0.4506 -0.2694 -0.6816
  171SOPE   H7R19327   3.742   5.597   7.333 -1.8189 -0.8354  0.6596
  171SOPE   H7S19328   3.631   5.491   7.241 -0.9802 -1.3029  0.8132
  171SOPE   C2819329   3.755   5.399   7.394  0.0196  0.2522  0.9741
  171SOPE   H8R19330   3.735   5.298   7.353 -2.8367 -0.0543  2.8401
  171SOPE   H8S19331   3.862   5.405   7.422  0.6167 -1.6641 -0.7122
  171SOPE   C2919332   3.659   5.430   7.504  0.5235  0.1278  1.0942
  171SOPE   H9119333   3.597   5.520   7.505 -2.3577 -1.7232  1.4979
  171SOPE  C21019334   3.626   5.345   7.598  0.0523 -0.3885 -0.4475
  171SOPE  H10119335   3.547   5.369   7.671  0.6062 -2.6234  1.0026
  171SOPE  C21119336   3.685   5.205   7.623 -0.3353  0.1440 -0.2757
  171SOPE  H11R19337   3.775   5.187   7.561 -0.7959  0.7176 -1.1232
  171SOPE  H11S19338   3.605   5.134   7.591  1.1913 -1.3057 -0.9905
  171SOPE  C21219339   3.721   5.174   7.773  1.1800  0.1147 -0.2879
  171SOPE  H12R19340   3.802   5.243   7.805  2.6360 -1.0406 -1.3224
  171SOPE  H12S19341   3.777   5.077   7.779  0.7700 -0.1223 -0.2784
  171SOPE  C21319342   3.608   5.158   7.875 -0.4349 -0.1692 -0.4628
  171SOPE  H13R19343   3.520   5.103   7.833  0.0811 -0.4284 -1.2353
  171SOPE  H13S19344   3.572   5.259   7.902 -1.0806 -0.4728 -0.1702
  171SOPE  C21419345   3.645   5.094   8.009  0.9361 -0.4967  0.4192
  171SOPE  H14R19346   3.564   5.116   8.082  1.2933  1.3177  0.3223
  171SOPE  H14S19347   3.747   5.128   8.038  0.3906  0.4105  1.3325
  171SOPE  C21519348   3.653   4.940   7.995  0.3840  0.0461 -0.0415
  171SOPE  H15R19349   3.719   4.912   7.910  2.0268  3.9382 -0.2396
  171SOPE  H15S19350   3.556   4.885   7.990  1.3263 -2.2217  3.2265
  171SOPE  C21619351   3.716   4.880   8.124  0.1016 -0.8558  0.6744
  171SOPE  H16R19352   3.660   4.907   8.216 -1.2681  2.0765 -0.8607
  171SOPE  H16S19353   3.815   4.932   8.124 -0.7908  1.0201 -1.7339
  171SOPE  C21719354   3.722   4.727   8.108  0.1983  0.9001 -1.0341
  171SOPE  H17R19355   3.781   4.705   8.199 -1.5912  1.3347  0.2883
  171SOPE  H17S19356   3.784   4.714   8.017  1.8243 -3.8743  0.4676
  171SOPE  C21819357   3.590   4.645   8.093  0.0836  0.6724 -0.3635
  171SOPE  H18R19358   3.509   4.700   8.145 -0.4911  0.9958 -1.5593
  171SOPE  H18S19359   3.599   4.546   8.144 -1.0071  1.6139  1.7548
  171SOPE  H18T19360   3.565   4.628   7.986 -0.4361  2.9574 -0.6400
  171SOPE   C3319361   4.403   5.663   7.173 -0.1532 -0.3907  0.3137
  171SOPE   H3X19362   4.512   5.682   7.158 -0.5040 -0.4813 -3.0448
  171SOPE   H3Y19363   4.390   5.554   7.183  1.5236 -0.8582 -1.8402
  171SOPE   C3419364   4.370   5.731   7.307  0.5915 -0.0409 -0.4154
  171SOPE   H4X19365   4.394   5.839   7.291 -0.2726  0.3473  0.8249
  171SOPE   H4Y19366   4.440   5.695   7.385  0.2421  0.5974  0.2064
  171SOPE   C3519367   4.224   5.716   7.350 -0.3057 -0.7420  0.0632
  171SOPE   H5X19368   4.160   5.757   7.269 -0.9010 -2.9467 -0.6609
  171SOPE   H5Y19369   4.204   5.774   7.443 -0.7778  0.4663 -0.7747
  171SOPE   C3619370   4.190   5.568   7.379  0.2013 -0.5628  0.1032
  171SOPE   H6X19371   4.238   5.497   7.309 -0.6838 -1.6010  0.5096
  171SOPE   H6Y19372   4.079   5.564   7.384  0.1858 -0.7422 -0.3813
  171SOPE   C3719373   4.231   5.545   7.524 -0.2430 -0.7033  0.6314
  171SOPE   H7X19374   4.202   5.632   7.588 -0.1984  0.7014 -1.1799
  171SOPE   H7Y19375   4.342   5.543   7.521 -0.2616 -0.6667 -0.1874
  171SOPE   C3819376   4.182   5.413   7.581  0.3463  0.3356  0.2749
  171SOPE   H8X19377   4.248   5.336   7.535  1.3596  1.2460  0.1534
  171SOPE   H8Y19378   4.077   5.384   7.559  0.3676 -0.9537  1.6509
  171SOPE   C3919379   4.199   5.424   7.733 -0.5821 -0.2140 -0.4917
  171SOPE   H9X19380   4.161   5.517   7.779  0.2335  0.1659 -0.5526
  171SOPE   H9Y19381   4.309   5.422   7.751 -0.3625 -2.6196 -1.7057
  171SOPE  C31019382   4.140   5.312   7.815  0.3112  0.4874  0.2054
  171SOPE  H10X19383   4.129   5.217   7.759  0.4838  0.8737 -0.4937
  171SOPE  H10Y19384   4.038   5.346   7.842  0.7125  0.2303  2.2070
  171SOPE  C31119385   4.209   5.286   7.954  0.7815  0.2912 -0.0131
  171SOPE  H11X19386   4.238   5.383   8.002 -1.4774  0.0232  2.1356
  171SOPE  H11Y19387   4.302   5.227   7.943  0.5655 -0.3393  1.2690
  171SOPE  C31219388   4.112   5.238   8.064  0.0144  0.3610 -0.1902
  171SOPE  H12X19389   4.068   5.142   8.028  1.5041 -0.9151  1.1817
  171SOPE  H12Y19390   4.033   5.314   8.076  1.1461  1.6315 -0.5002
  171SOPE  C31319391   4.183   5.201   8.197 -0.0233  0.4925  0.0809
  171SOPE  H13X19392   4.213   5.292   8.252 -1.7103  0.2776  1.4593
  171SOPE  H13Y19393   4.270   5.139   8.166 -2.0585 -1.7581 -1.4399
  171SOPE  C31419394   4.074   5.126   8.279  0.0334 -0.2656 -0.7750
  171SOPE  H14X19395   4.054   5.023   8.242  1.2961 -1.0669  0.6699
  171SOPE  H14Y19396   3.977   5.179   8.272  0.3284  0.6338  1.2695
  171SOPE  C31519397   4.114   5.112   8.423  0.1644 -0.1365 -0.0384
  171SOPE  H15X19398   4.037   5.075   8.495  0.3162 -2.2321 -0.8920
  171SOPE  H15Y19399   4.132   5.217   8.454 -0.3645  0.2068 -0.8660
  171SOPE  C31619400   4.241   5.035   8.451 -0.1509  0.5746 -0.8060
  171SOPE  H16X19401   4.280   5.065   8.551 -2.9451 -2.2245  1.3250
  171SOPE  H16Y19402   4.319   5.052   8.373  2.7167 -0.3983  1.6546
  171SOPE  C31719403   4.225   4.887   8.466  0.5144  0.0511 -0.0693
  171SOPE  H17X19404   4.167   4.858   8.376  0.7540  0.5449 -0.3879
  171SOPE  H17Y19405   4.161   4.872   8.555 -0.0385  1.5497 -0.1943
  171SOPE  C31819406   4.353   4.813   8.465  0.0618 -0.0534  0.0060
  171SOPE  H18X19407   4.398   4.816   8.363  1.5088 -1.7722  0.5292
  171SOPE  H18Y19408   4.334   4.704   8.473  2.1518 -0.4584  0.2243
  171SOPE  H18Z19409   4.419   4.845   8.548  1.3400  1.4192 -1.4961
  172SOPE     N19410   3.850   0.442   6.212  0.2255 -0.7506 -0.0429
  172SOPE   HN119411   3.874   0.536   6.251  2.4143 -1.4759  0.5488
  172SOPE   HN219412   3.924   0.418   6.143  0.9625  1.2855 -0.0368
  172SOPE   HN319413   3.759   0.447   6.163 -0.3328 -0.0534  1.0283
  172SOPE   C1219414   3.853   0.337   6.327 -0.1595 -0.2122  0.7234
  172SOPE  H12A19415   3.958   0.307   6.347 -0.2515  0.4835  2.3807
  172SOPE  H12B19416   3.802   0.255   6.272  1.5569 -0.1039 -1.1513
  172SOPE   C1119417   3.762   0.381   6.439  0.2959 -0.2006 -0.0959
  172SOPE  H11A19418   3.771   0.302   6.517 -0.3897 -0.0712  0.1192
  172SOPE  H11B19419   3.656   0.370   6.407  0.4641 -1.9130 -0.1859
  172SOPE     P19420   3.911   0.530   6.593  0.4572 -0.3232  0.2112
  172SOPE   O1319421   3.967   0.666   6.577  0.7366  0.3372 -0.5282
  172SOPE   O1419422   3.998   0.417   6.568  0.3340 -0.1186 -0.1810
  172SOPE   O1219423   3.788   0.517   6.486 -0.2967  0.1783 -0.3705
  172SOPE   O1119424   3.842   0.516   6.730  0.1939  0.2453 -0.1935
  172SOPE    C119425   3.743   0.614   6.773  0.6695  0.3347  0.2488
  172SOPE    HA19426   3.680   0.563   6.850  1.1016 -1.1612 -0.3475
  172SOPE    HB19427   3.675   0.646   6.691 -0.3123  0.3431  1.0430
  172SOPE    C219428   3.807   0.746   6.839  0.3303  0.4280 -0.0544
  172SOPE    HS19429   3.862   0.792   6.754 -2.6709 -1.0259 -2.9884
  172SOPE   O2119430   3.884   0.708   6.954 -0.3310 -0.1326  0.4627
  172SOPE   C2119431   3.954   0.816   7.006  0.2219 -0.0617 -0.3021
  172SOPE   O2219432   3.979   0.920   6.945 -0.1062 -0.3786 -0.3674
  172SOPE   C2219433   4.010   0.788   7.151 -0.5831  0.7280  0.7326
  172SOPE   H2R19434   4.064   0.880   7.181 -0.5394  0.9819 -0.1134
  172SOPE   H2S19435   4.088   0.709   7.147  1.5705  2.7662  0.2983
  172SOPE    C319436   3.687   0.843   6.853  0.3589  0.3239  0.1018
  172SOPE    HX19437   3.648   0.841   6.749  1.5472 -0.5974 -0.3503
  172SOPE    HY19438   3.718   0.944   6.888 -1.4419 -0.0925  3.2639
  172SOPE   O3119439   3.591   0.784   6.942 -0.0048 -0.4805  0.4403
  172SOPE   C3119440   3.587   0.826   7.068  0.5734 -0.1709 -0.5070
  172SOPE   O3219441   3.644   0.925   7.110  0.2649  0.9359  0.0748
  172SOPE   C3219442   3.485   0.734   7.143  0.0353  0.2659  0.1138
  172SOPE   H2X19443   3.448   0.652   7.077 -1.6623  0.1814  1.0873
  172SOPE   H2Y19444   3.400   0.793   7.184 -2.0014 -1.3829 -1.5082
  172SOPE   C2319445   3.909   0.744   7.253 -0.4229  0.7469  0.0991
  172SOPE   H3R19446   3.843   0.660   7.222  0.3860  0.1787 -0.1248
  172SOPE   H3S19447   3.834   0.824   7.272 -0.3800  0.5253  1.2706
  172SOPE   C2419448   3.962   0.724   7.392 -0.1568 -0.5313  0.8610
  172SOPE   H4R19449   4.021   0.630   7.395  2.3444  0.8336 -1.1408
  172SOPE   H4S19450   4.020   0.815   7.418 -2.2541  1.3261 -0.6448
  172SOPE   C2519451   3.840   0.715   7.483  0.2984  0.6994 -0.5837
  172SOPE   H5R19452   3.782   0.809   7.474 -1.3300 -0.3142 -1.1321
  172SOPE   H5S19453   3.772   0.631   7.456  0.2996  0.0894  1.1548
  172SOPE   C2619454   3.891   0.697   7.628 -0.4074  0.4383  0.2177
  172SOPE   H6R19455   3.954   0.605   7.624 -1.2634 -0.1118 -2.0512
  172SOPE   H6S19456   3.953   0.783   7.658  0.8951 -0.8886  1.4707
  172SOPE   C2719457   3.773   0.689   7.726 -1.0230  0.1241  0.3027
  172SOPE   H7R19458   3.739   0.790   7.757 -2.1439  0.6449 -2.3745
  172SOPE   H7S19459   3.691   0.645   7.666 -0.4295 -0.0198 -0.4149
  172SOPE   C2819460   3.819   0.609   7.848  0.2886  0.0623  0.4686
  172SOPE   H8R19461   3.732   0.578   7.910 -0.8747  0.5042 -0.8963
  172SOPE   H8S19462   3.853   0.513   7.804 -0.8466 -0.7767  1.3497
  172SOPE   C2919463   3.936   0.678   7.925 -0.0553 -0.0389  0.5805
  172SOPE   H9119464   4.026   0.690   7.864  0.0231 -0.2895  0.6459
  172SOPE  C21019465   3.934   0.744   8.045  0.0616 -0.2020  0.4389
  172SOPE  H10119466   4.016   0.811   8.073  0.8157 -0.5239 -0.9320
  172SOPE  C21119467   3.812   0.768   8.138 -0.6468  0.5976  0.2303
  172SOPE  H11R19468   3.725   0.719   8.089 -1.4304 -0.1359  2.2559
  172SOPE  H11S19469   3.792   0.877   8.148  0.1911  0.7597  0.1647
  172SOPE  C21219470   3.826   0.717   8.281  0.0983  1.0743  0.1309
  172SOPE  H12R19471   3.916   0.752   8.335  1.9279 -0.3860 -1.7812
  172SOPE  H12S19472   3.839   0.608   8.259  1.1178  1.5932 -2.1694
  172SOPE  C21319473   3.705   0.747   8.374 -0.9686  0.0001  0.4320
  172SOPE  H13R19474   3.698   0.663   8.446  0.3219 -0.9120 -0.4631
  172SOPE  H13S19475   3.616   0.756   8.309  0.3977 -1.3228 -1.7454
  172SOPE  C21419476   3.717   0.881   8.445 -0.3236 -0.4611 -0.1899
  172SOPE  H14R19477   3.714   0.961   8.368 -0.0790 -0.3183 -0.0508
  172SOPE  H14S19478   3.815   0.882   8.498 -0.6122 -1.1200  0.3755
  172SOPE  C21519479   3.603   0.906   8.547  0.2526  0.0354 -0.0696
  172SOPE  H15R19480   3.632   0.859   8.643 -0.6023  0.1480  0.2467
  172SOPE  H15S19481   3.510   0.863   8.504 -1.0881  2.3872  0.2799
  172SOPE  C21619482   3.596   1.055   8.575 -0.4901  0.0336 -0.4755
  172SOPE  H16R19483   3.584   1.102   8.475 -1.5442  0.0854 -0.3377
  172SOPE  H16S19484   3.684   1.092   8.632  1.7884 -1.0628 -3.0528
  172SOPE  C21719485   3.466   1.082   8.651  1.2693 -0.0527  0.0690
  172SOPE  H17R19486   3.462   1.046   8.756 -2.2782  0.5046  0.2425
  172SOPE  H17S19487   3.382   1.032   8.598 -0.3115  1.3981  1.0938
  172SOPE  C21819488   3.442   1.237   8.661  0.3514 -0.5443  0.5742
  172SOPE  H18R19489   3.522   1.281   8.724 -0.7353 -1.1836  2.4550
  172SOPE  H18S19490   3.341   1.271   8.691 -0.2928 -2.2332  0.4360
  172SOPE  H18T19491   3.448   1.283   8.560 -3.5290 -0.8891  0.0324
  172SOPE   C3319492   3.544   0.666   7.264 -0.3176  0.9704 -0.6818
  172SOPE   H3X19493   3.584   0.745   7.331  0.7696  0.4009 -0.6296
  172SOPE   H3Y19494   3.623   0.594   7.234 -0.8486 -0.3735  0.9486
  172SOPE   C3419495   3.430   0.586   7.343  0.6489 -0.3024  0.2473
  172SOPE   H4X19496   3.387   0.519   7.265 -0.3908  0.2035  0.3580
  172SOPE   H4Y19497   3.366   0.664   7.390 -0.5900 -0.8720 -0.4362
  172SOPE   C3519498   3.474   0.492   7.451 -0.1393  0.5040 -0.1516
  172SOPE   H5X19499   3.505   0.556   7.536 -2.1617 -1.0017  1.8341
  172SOPE   H5Y19500   3.560   0.432   7.412  0.0650  0.0472  0.9536
  172SOPE   C3619501   3.359   0.409   7.497 -0.3781 -0.0689  0.6686
  172SOPE   H6X19502   3.321   0.343   7.416  2.0728 -1.4433  0.5399
  172SOPE   H6Y19503   3.269   0.461   7.536 -1.0190  0.0800 -0.9559
  172SOPE   C3719504   3.409   0.312   7.606 -0.3096  0.1435 -0.2624
  172SOPE   H7X19505   3.493   0.246   7.576 -0.0037 -0.3439  1.4981
  172SOPE   H7Y19506   3.325   0.245   7.635 -0.6264  1.5511  2.4370
  172SOPE   C3819507   3.432   0.373   7.751  0.6955  0.0254 -1.0538
  172SOPE   H8X19508   3.346   0.426   7.797  0.1033 -2.0098  0.3477
  172SOPE   H8Y19509   3.525   0.433   7.742  0.7361  0.0628 -0.3725
  172SOPE   C3919510   3.455   0.263   7.855 -0.0188 -0.7260  0.0788
  172SOPE   H9X19511   3.513   0.185   7.801 -0.2502 -0.3833 -0.6905
  172SOPE   H9Y19512   3.353   0.224   7.875 -0.0131 -0.3049  0.9770
  172SOPE  C31019513   3.525   0.308   7.982  0.3073 -0.3315  0.2003
  172SOPE  H10X19514   3.635   0.324   7.976  0.0206  2.0816  0.4214
  172SOPE  H10Y19515   3.518   0.223   8.053  0.8685 -0.8532 -0.3527
  172SOPE  C31119516   3.479   0.439   8.040 -0.3365 -0.0574  0.7173
  172SOPE  H11X19517   3.369   0.443   8.050 -0.2054  0.8502  2.0436
  172SOPE  H11Y19518   3.515   0.519   7.971  0.6661 -1.5043 -0.5104
  172SOPE  C31219519   3.529   0.462   8.182 -0.3812 -0.2000 -0.3878
  172SOPE  H12X19520   3.503   0.569   8.202 -2.4056 -1.0473  2.0982
  172SOPE  H12Y19521   3.639   0.445   8.190 -0.2681  0.6014 -0.0174
  172SOPE  C31319522   3.444   0.374   8.278  0.4838 -1.3114  0.0806
  172SOPE  H13X19523   3.468   0.266   8.278 -0.0040 -1.4404  1.7556
  172SOPE  H13Y19524   3.341   0.390   8.239  0.5053 -0.0744  0.4764
  172SOPE  C31419525   3.455   0.435   8.422  0.3277 -0.1336  0.3849
  172SOPE  H14X19526   3.367   0.409   8.485  0.7891  1.6361  1.8316
  172SOPE  H14Y19527   3.461   0.545   8.407  1.9699 -0.2996 -0.5048
  172SOPE  C31519528   3.584   0.399   8.500 -0.9615 -0.1570  0.2562
  172SOPE  H15X19529   3.618   0.483   8.565  2.6721  0.7183 -2.3906
  172SOPE  H15Y19530   3.665   0.404   8.423 -0.6607  1.4360  0.6298
  172SOPE  C31619531   3.589   0.270   8.568  0.0707  0.1821  0.0413
  172SOPE  H16X19532   3.579   0.190   8.491 -0.1547 -0.4773  0.7304
  172SOPE  H16Y19533   3.502   0.274   8.638 -0.0395 -0.2127 -0.0693
  172SOPE  C31719534   3.711   0.249   8.649  0.4120  0.3567 -0.7399
  172SOPE  H17X19535   3.798   0.253   8.580  1.6019  1.1669  0.7510
  172SOPE  H17Y19536   3.717   0.152   8.702  1.4185  1.4044  1.1579
  172SOPE  C31819537   3.744   0.350   8.758 -0.0273 -0.4533  0.5164
  172SOPE  H18X19538   3.740   0.454   8.720  2.1223 -0.6533 -0.3701
  172SOPE  H18Y19539   3.848   0.324   8.787  0.8300  1.9437 -0.1353
  172SOPE  H18Z19540   3.676   0.351   8.846 -0.0939 -0.2595  0.4641
  173SAPI   C1219541   4.289   5.072  10.781  0.3884 -0.1559  0.2986
  173SAPI    H219542   4.398   5.086  10.761  0.4916 -1.4034 -0.1154
  173SAPI    O219543   4.267   5.013  10.906 -0.0469  0.0499  0.3468
  173SAPI   HO219544   4.335   5.039  10.969  0.1475  0.2276  0.0618
  173SAPI   C1319545   4.231   5.214  10.773  0.3519 -0.1402  0.5186
  173SAPI    H319546   4.253   5.250  10.671 -0.0421  2.0512  1.1662
  173SAPI    O319547   4.300   5.297  10.860 -0.4980 -0.3979  0.3113
  173SAPI   HO319548   4.317   5.383  10.821 -0.4249 -0.7073 -0.3482
  173SAPI   C1419549   4.081   5.209  10.787 -0.1858  0.0831 -0.8345
  173SAPI    H419550   4.060   5.174  10.890 -0.2400  2.5940  0.0768
  173SAPI    O419551   4.021   5.337  10.769 -0.3456 -0.2526 -0.1816
  173SAPI   HO419552   3.926   5.325  10.779  0.0156 -1.3980  3.9603
  173SAPI   C1519553   4.016   5.116  10.680  0.3406  0.4879 -0.2941
  173SAPI    H519554   4.033   5.167  10.583  0.0168  1.6878  0.2572
  173SAPI    O519555   3.870   5.098  10.696  0.2313  0.0560 -0.3785
  173SAPI   HO519556   3.846   5.065  10.783 -1.4154 -1.6023 -1.4058
  173SAPI   C1619557   4.084   4.980  10.679  0.1976  0.0869 -0.2147
  173SAPI    H619558   4.054   4.916  10.765  2.0322 -0.1641  0.2903
  173SAPI    O619559   4.034   4.913  10.563 -0.0182 -0.8964  0.1139
  173SAPI   HO619560   3.977   4.842  10.595  0.2314 -0.4119  1.6961
  173SAPI   C1119561   4.233   4.986  10.668  0.3050  0.0193 -0.7847
  173SAPI    H119562   4.257   5.033  10.570 -1.3447  0.2511 -1.1004
  173SAPI     P19563   4.453   4.835  10.607  0.2590 -0.0720 -0.0475
  173SAPI   O1319564   4.496   4.695  10.635 -0.1786 -0.2047  0.1353
  173SAPI   O1419565   4.540   4.936  10.656 -0.3207 -0.2995  1.2712
  173SAPI   O1219566   4.297   4.856  10.675 -0.2911  0.8296  0.6715
  173SAPI   O1119567   4.422   4.854  10.451 -0.7953 -0.7924  0.1659
  173SAPI    C119568   4.322   4.775  10.388 -0.3328  0.2855 -0.0762
  173SAPI    HA19569   4.361   4.671  10.380  1.6148  0.5839  3.3890
  173SAPI    HB19570   4.227   4.773  10.446  0.6966 -2.4157  1.7549
  173SAPI    C219571   4.298   4.833  10.251  0.2476  0.4767 -0.4564
  173SAPI    HS19572   4.216   4.778  10.200  0.2559 -0.2702  0.3042
  173SAPI   O2119573   4.414   4.818  10.174  0.4121  0.0638  0.0933
  173SAPI   C2119574   4.399   4.792  10.041 -0.1788  0.0489 -0.5229
  173SAPI   O2219575   4.294   4.791   9.983  0.1866  0.4367 -0.0777
  173SAPI   C2219576   4.539   4.785   9.979  0.4543  0.2756  0.1069
  173SAPI   H2R19577   4.565   4.893   9.979 -1.0141  0.6363  0.0611
  173SAPI   H2S19578   4.598   4.728  10.055  0.0520  0.1679  0.3397
  173SAPI    C319579   4.254   4.981  10.270  0.4226 -0.1749  0.3030
  173SAPI    HX19580   4.343   5.036  10.306  1.2429  0.1315 -2.0572
  173SAPI    HY19581   4.172   5.000  10.343  1.0739  1.5705  0.6014
  173SAPI   O3119582   4.211   5.052  10.151 -0.1144 -0.0831 -0.2887
  173SAPI   C3119583   4.084   5.033  10.107 -0.1158  0.5995 -0.1075
  173SAPI   O3219584   4.022   4.931  10.138 -0.0150  0.0546 -0.5030
  173SAPI   C3219585   4.037   5.132  10.011 -0.4040  0.3848 -0.0666
  173SAPI   H2X19586   4.064   5.239  10.028  0.9152 -0.0658  0.7927
  173SAPI   H2Y19587   3.927   5.128  10.028 -0.5907 -0.3627 -1.3103
  173SAPI   C2319588   4.548   4.728   9.835 -0.3131 -0.0290 -0.6864
  173SAPI   H3R19589   4.463   4.768   9.775 -0.9059  1.6831  1.1801
  173SAPI   H3S19590   4.531   4.618   9.828 -0.2805  0.0210 -1.8964
  173SAPI   C2419591   4.687   4.739   9.762  0.1599  0.1465  0.3650
  173SAPI   H4R19592   4.690   4.656   9.688 -2.0366  1.0211 -0.8036
  173SAPI   H4S19593   4.770   4.728   9.836  0.7617  4.2018  0.4856
  173SAPI   C2519594   4.696   4.873   9.695 -0.5087  0.0240  0.0404
  173SAPI   H5R19595   4.731   4.953   9.762 -0.9634  0.8300 -0.6490
  173SAPI   C2619596   4.682   4.912   9.567 -0.0142  0.1125 -0.1609
  173SAPI   H6R19597   4.690   5.018   9.537 -2.7858  0.9933  1.8000
  173SAPI   C2719598   4.652   4.824   9.449  0.2259 -0.0185 -0.4313
  173SAPI   H7R19599   4.553   4.853   9.407 -0.1799  0.1247  0.5927
  173SAPI   H7S19600   4.663   4.720   9.486  0.6662 -0.4729 -1.7795
  173SAPI   C2819601   4.759   4.845   9.347  0.4414 -0.3118  0.1610
  173SAPI   H8R19602   4.862   4.853   9.386 -0.4694 -0.4857  2.8138
  173SAPI   C2919603   4.738   4.857   9.215 -0.6166 -0.1334 -0.0701
  173SAPI   H9R19604   4.824   4.877   9.149  0.4508  0.0974  1.3602
  173SAPI  C21019605   4.608   4.849   9.149 -0.9029  0.0730  0.0828
  173SAPI  H10R19606   4.542   4.763   9.170  0.1510 -1.1419 -1.3785
  173SAPI  H10S19607   4.624   4.813   9.045 -2.0543 -1.1281  0.3069
  173SAPI  C21119608   4.527   4.974   9.164 -0.2514  0.8559 -0.0454
  173SAPI  H11R19609   4.484   4.989   9.264  1.2165 -0.4938  0.8386
  173SAPI  C21219610   4.501   5.065   9.066 -0.2765 -0.4736  0.2818
  173SAPI  H12R19611   4.426   5.141   9.091  0.9829  0.6305  0.8752
  173SAPI  C21319612   4.549   5.057   8.924 -1.1349  0.9607  0.0823
  173SAPI  H13R19613   4.462   5.096   8.866 -0.5097  2.4774  0.1440
  173SAPI  H13S19614   4.562   4.953   8.885  0.0073  1.6548 -1.5167
  173SAPI  C21419615   4.679   5.133   8.915  0.4167 -0.4233 -0.1711
  173SAPI  H14R19616   4.674   5.237   8.950 -0.5870 -0.5482  0.0672
  173SAPI  C21519617   4.799   5.079   8.891 -0.1430  0.5216  0.5995
  173SAPI  H15R19618   4.877   5.157   8.878 -0.0169  0.5849  1.6319
  173SAPI  C21619619   4.830   4.940   8.856 -1.2637  0.3504 -0.1470
  173SAPI  H16R19620   4.753   4.860   8.860  0.7607 -1.6801  0.2880
  173SAPI  H16S19621   4.896   4.894   8.933  0.1920 -0.4421 -1.7947
  173SAPI  C21719622   4.903   4.922   8.718 -0.0555 -0.4203  0.0495
  173SAPI  H17R19623   4.918   4.813   8.704 -0.6837 -0.2082 -2.8724
  173SAPI  H17S19624   5.004   4.965   8.734  0.0939 -1.1895  1.3444
  173SAPI  C21819625   4.827   4.981   8.602 -0.2208  0.1053  0.2065
  173SAPI  H18R19626   4.797   5.087   8.619 -0.0867 -0.2175  2.8453
  173SAPI  H18S19627   4.730   4.932   8.580 -0.8450  1.8688 -1.2743
  173SAPI  C21919628   4.923   4.977   8.473  0.5176  0.3287 -1.2190
  173SAPI  H19R19629   5.026   5.016   8.489  0.3555 -0.2379  2.0189
  173SAPI  H19S19630   4.876   5.040   8.395  0.5534 -1.7910 -3.0434
  173SAPI  C22019631   4.917   4.840   8.412 -0.6365 -0.5854  0.5936
  173SAPI  H20R19632   4.960   4.842   8.309 -3.1351 -0.9011 -0.5251
  173SAPI  H20S19633   4.813   4.810   8.385 -0.2417 -0.8722 -0.6827
  173SAPI  H20T19634   4.981   4.774   8.474  1.2513  0.3844 -0.2275
  173SAPI   C3319635   4.061   5.076   9.868 -0.2105  0.1126 -0.0984
  173SAPI   H3X19636   4.035   4.968   9.868 -1.1098  0.3108  0.7431
  173SAPI   H3Y19637   4.168   5.086   9.840 -0.3690 -1.5528 -1.5066
  173SAPI   C3419638   3.962   5.141   9.764  0.0407  0.0862 -0.1453
  173SAPI   H4X19639   3.975   5.250   9.779 -1.3493  0.0566  1.7649
  173SAPI   H4Y19640   3.863   5.116   9.808 -0.0529  1.0715  0.2387
  173SAPI   C3519641   3.983   5.084   9.623 -0.0514 -1.0625  0.0626
  173SAPI   H5X19642   3.959   4.976   9.610  1.3055 -1.2869 -0.7053
  173SAPI   H5Y19643   4.086   5.101   9.585  0.4583 -1.9907  0.9668
  173SAPI   C3619644   3.891   5.163   9.527 -0.0590  0.3832  0.3300
  173SAPI   H6X19645   3.910   5.271   9.543 -0.1009  0.1946  1.7894
  173SAPI   H6Y19646   3.786   5.139   9.554  0.5971 -0.7009  2.0685
  173SAPI   C3719647   3.916   5.126   9.378 -0.2559  0.7351  0.2289
  173SAPI   H7X19648   3.865   5.191   9.304 -0.5833  0.8273  0.5310
  173SAPI   H7Y19649   3.895   5.017   9.367 -0.1912  0.8760 -1.6173
  173SAPI   C3819650   4.069   5.144   9.332 -0.3700 -0.3571 -0.6687
  173SAPI   H8X19651   4.137   5.097   9.407 -0.9404  0.4633  0.4052
  173SAPI   H8Y19652   4.073   5.254   9.350 -1.6737 -0.4383  0.3087
  173SAPI   C3919653   4.090   5.108   9.187 -0.4657  0.2517  0.3810
  173SAPI   H9X19654   4.167   5.173   9.140  1.2054 -2.3082 -0.6523
  173SAPI   H9Y19655   3.995   5.123   9.130  0.6932 -1.0176 -2.0424
  173SAPI  C31019656   4.127   4.960   9.168 -0.3792 -0.9050  0.4596
  173SAPI  H10X19657   4.046   4.894   9.204 -0.0780 -0.7523  1.4292
  173SAPI  H10Y19658   4.217   4.937   9.229  0.2444  2.4316  0.9788
  173SAPI  C31119659   4.157   4.931   9.019  0.3235  0.0602 -0.0720
  173SAPI  H11X19660   4.231   5.007   8.987 -0.5525  0.7797 -0.4036
  173SAPI  H11Y19661   4.063   4.937   8.962  0.4524 -0.7419 -0.3951
  173SAPI  C31219662   4.206   4.786   8.990 -0.0732  0.6901 -0.4383
  173SAPI  H12X19663   4.120   4.716   8.981 -0.1910  0.4527  1.9059
  173SAPI  H12Y19664   4.259   4.758   9.083 -0.0155 -0.0460 -0.6838
  173SAPI  C31319665   4.302   4.767   8.872 -0.3553  0.6470 -0.1910
  173SAPI  H13X19666   4.400   4.816   8.886  0.0983  0.3052 -1.9618
  173SAPI  H13Y19667   4.258   4.826   8.789 -2.1329  0.1773  0.3666
  173SAPI  C31419668   4.322   4.626   8.823 -0.4291  0.2098  0.6767
  173SAPI  H14X19669   4.285   4.632   8.718  2.5092  0.0290 -0.4904
  173SAPI  H14Y19670   4.256   4.560   8.882  2.3690 -2.9076  0.6511
  173SAPI  C31519671   4.467   4.573   8.829  0.4708  1.1325 -0.1178
  173SAPI  H15X19672   4.456   4.464   8.842 -0.6311  0.7694 -3.2779
  173SAPI  H15Y19673   4.534   4.613   8.908 -0.4811  1.3430  0.6039
  173SAPI  C31619674   4.543   4.594   8.695 -0.1363 -0.2078 -0.0850
  173SAPI  H16X19675   4.545   4.704   8.684 -1.9413 -0.0137  1.1761
  173SAPI  H16Y19676   4.489   4.545   8.611 -3.5024  0.2269  1.6725
  173SAPI  C31719677   4.678   4.522   8.707  0.1151  0.1946 -0.5051
  173SAPI  H17X19678   4.672   4.421   8.751 -1.6395  0.4622 -0.0348
  173SAPI  H17Y19679   4.733   4.587   8.778 -0.0593  0.4917 -0.6381
  173SAPI  C31819680   4.757   4.524   8.577  0.1612  1.1064 -0.3584
  173SAPI  H18X19681   4.868   4.515   8.586  0.1192 -0.1435 -0.9070
  173SAPI  H18Y19682   4.745   4.626   8.534 -0.9584  1.1915  0.1306
  173SAPI  H18Z19683   4.723   4.456   8.495 -0.7873 -0.8937  1.5757
  174SAPI   C1219684   2.291   5.044  10.746  0.0160 -0.0436 -0.0437
  174SAPI    H219685   2.244   4.978  10.670  0.5208 -2.3582  1.5454
  174SAPI    O219686   2.283   4.968  10.866  0.0652 -0.1218 -0.0828
  174SAPI   HO219687   2.339   4.890  10.860  2.3664  1.3266  1.4574
  174SAPI   C1319688   2.434   5.091  10.715 -0.1656  0.2115 -0.3977
  174SAPI    H319689   2.443   5.141  10.616  0.5268 -0.5391 -0.7212
  174SAPI    O319690   2.523   4.979  10.715  0.1166  0.6584  0.1148
  174SAPI   HO319691   2.596   5.005  10.659  0.2778 -0.6108 -0.2882
  174SAPI   C1419692   2.480   5.188  10.823 -0.6174 -0.0484 -0.0599
  174SAPI    H419693   2.480   5.130  10.918  0.9930 -0.5613 -0.3478
  174SAPI    O419694   2.621   5.224  10.806  0.1643 -0.0363 -0.2046
  174SAPI   HO419695   2.627   5.287  10.735 -0.3463 -0.7096 -0.8664
  174SAPI   C1519696   2.395   5.307  10.829  0.1698 -0.3271 -0.0316
  174SAPI    H519697   2.408   5.362  10.733  0.9443 -0.1305  0.1821
  174SAPI    O519698   2.434   5.407  10.926  0.0013  0.8746 -0.0096
  174SAPI   HO519699   2.417   5.490  10.882  1.2131  2.4522  2.2904
  174SAPI   C1619700   2.246   5.276  10.850  0.0114  0.2667  0.4262
  174SAPI    H619701   2.241   5.220  10.946  0.9977 -1.6890 -0.6015
  174SAPI    O619702   2.174   5.400  10.842  0.4151  0.0545 -0.9476
  174SAPI   HO619703   2.156   5.408  10.749  0.9131 -0.4324 -1.0955
  174SAPI   C1119704   2.195   5.172  10.752 -0.5518 -0.0017  0.7368
  174SAPI    H119705   2.205   5.224  10.655 -0.2983 -0.5757  0.4495
  174SAPI     P19706   1.939   5.119  10.666 -0.2305 -0.2180  0.2815
  174SAPI   O1319707   1.940   5.240  10.579 -0.2013  0.4983 -0.3336
  174SAPI   O1419708   1.809   5.076  10.729 -0.5263 -0.0120  0.1087
  174SAPI   O1219709   2.061   5.133  10.779  0.1475 -0.6794  0.0383
  174SAPI   O1119710   1.981   4.983  10.587  0.5227 -0.0493  0.3449
  174SAPI    C119711   1.955   4.979  10.445  0.5006  0.3185  0.0545
  174SAPI    HA19712   1.924   5.078  10.405 -0.8549  0.1086  0.5267
  174SAPI    HB19713   2.041   4.935  10.392 -0.7622  0.5495 -2.3543
  174SAPI    C219714   1.839   4.884  10.416  0.7048 -0.3047  0.1592
  174SAPI    HS19715   1.781   4.896  10.510 -1.1565 -0.3456 -0.9334
  174SAPI   O2119716   1.892   4.749  10.406 -0.3764 -0.9004 -0.5429
  174SAPI   C2119717   1.804   4.651  10.393 -0.8674  0.3323 -0.7171
  174SAPI   O2219718   1.687   4.663  10.421  0.0945 -0.0232  0.3134
  174SAPI   C2219719   1.868   4.520  10.343  0.3245  0.4456  0.0426
  174SAPI   H2R19720   1.977   4.542  10.336 -0.1289  2.6638 -0.8663
  174SAPI   H2S19721   1.867   4.441  10.421  0.2783 -2.0018 -2.2712
  174SAPI    C319722   1.746   4.940  10.299  0.1159  0.7398 -0.2351
  174SAPI    HX19723   1.717   5.040  10.337  0.5095  0.2589  1.3894
  174SAPI    HY19724   1.652   4.881  10.293  0.6743 -0.1466 -0.4994
  174SAPI   O3119725   1.828   4.945  10.183  0.1382  0.3448 -0.4318
  174SAPI   C3119726   1.770   5.008  10.090  0.5571  0.0205  0.1486
  174SAPI   O3219727   1.653   5.050  10.093 -0.2148  0.4936  0.0625
  174SAPI   C3219728   1.855   5.003   9.967  0.3800  0.0105 -0.1840
  174SAPI   H2X19729   1.926   4.918   9.964 -0.1479 -0.4647  0.4702
  174SAPI   H2Y19730   1.918   5.093   9.981 -0.3077  0.3867  0.6088
  174SAPI   C2319731   1.798   4.452  10.216 -0.2836 -0.3867 -0.1515
  174SAPI   H3R19732   1.703   4.403  10.247  0.3637 -1.0224  0.8848
  174SAPI   H3S19733   1.862   4.372  10.173 -0.6885  0.9687 -3.5815
  174SAPI   C2419734   1.756   4.551  10.110  0.0562  0.5104 -0.1560
  174SAPI   H4R19735   1.695   4.629  10.160 -1.3069 -0.3998 -0.3373
  174SAPI   H4S19736   1.695   4.494  10.036  3.2851 -0.2305 -2.4441
  174SAPI   C2519737   1.875   4.590  10.031  0.1602 -0.4797 -0.7066
  174SAPI   H5R19738   1.941   4.663  10.081 -1.5643 -0.0373  1.0978
  174SAPI   C2619739   1.921   4.555   9.912 -0.4352  0.3115  0.3329
  174SAPI   H6R19740   1.996   4.620   9.865 -0.7560 -0.4031 -1.2620
  174SAPI   C2719741   1.864   4.449   9.819 -0.0852 -0.3061 -0.1259
  174SAPI   H7R19742   1.795   4.389   9.881 -1.4462  1.7028  0.4202
  174SAPI   H7S19743   1.952   4.384   9.800  0.5032  0.0965  1.0808
  174SAPI   C2819744   1.804   4.490   9.691  0.4197 -0.4858  0.3827
  174SAPI   H8R19745   1.698   4.462   9.678 -0.1820  1.2312  1.2978
  174SAPI   C2919746   1.873   4.536   9.581  0.9016  0.7121  0.2501
  174SAPI   H9R19747   1.810   4.571   9.498 -0.6673  0.3498  1.2353
  174SAPI  C21019748   2.022   4.547   9.562  0.0476  0.1444 -0.1398
  174SAPI  H10R19749   2.085   4.533   9.653 -0.3369  0.1476  0.1329
  174SAPI  H10S19750   2.037   4.656   9.556 -1.0632  0.2487 -1.7303
  174SAPI  C21119751   2.081   4.472   9.448  0.2074 -0.6562 -0.0465
  174SAPI  H11R19752   2.115   4.369   9.468  0.1305 -0.2076  2.8356
  174SAPI  C21219753   2.101   4.518   9.323 -0.0244 -0.5978 -0.0793
  174SAPI  H12R19754   2.151   4.448   9.255  0.3235 -1.6350  1.2034
  174SAPI  C21319755   2.070   4.658   9.262 -0.0421  0.2803 -0.3104
  174SAPI  H13R19756   2.161   4.699   9.214  0.6476  0.0145  0.7339
  174SAPI  H13S19757   2.050   4.721   9.351 -0.5690 -0.1581 -0.1127
  174SAPI  C21419758   1.949   4.633   9.171 -0.5153 -0.1304  0.5195
  174SAPI  H14R19759   1.845   4.652   9.201 -1.6957 -0.5141 -2.8557
  174SAPI  C21519760   1.960   4.595   9.039  0.1602  0.1604  0.3866
  174SAPI  H15R19761   1.865   4.575   8.988  0.1570  0.2558  0.3550
  174SAPI  C21619762   2.088   4.564   8.976 -0.4433 -0.4776 -0.1688
  174SAPI  H16R19763   2.094   4.454   8.958 -0.4338 -0.4020 -0.6254
  174SAPI  H16S19764   2.171   4.594   9.043 -1.1091  1.2284 -0.0574
  174SAPI  C21719765   2.124   4.636   8.841  0.3590 -0.3168 -0.9652
  174SAPI  H17R19766   2.154   4.741   8.862 -0.9517 -0.0845 -0.2025
  174SAPI  H17S19767   2.031   4.650   8.781 -0.7243 -1.1094  0.4800
  174SAPI  C21819768   2.238   4.567   8.769  0.9379  0.0381  0.0792
  174SAPI  H18R19769   2.218   4.458   8.760 -1.4736  0.4430 -0.2059
  174SAPI  H18S19770   2.327   4.586   8.831  0.5181  1.1089  0.3715
  174SAPI  C21919771   2.266   4.622   8.626  0.4426  0.5488  0.2124
  174SAPI  H19R19772   2.355   4.564   8.595 -0.5742  0.0873 -2.0670
  174SAPI  H19S19773   2.302   4.726   8.643  0.1014  0.5554  0.9228
  174SAPI  C22019774   2.149   4.611   8.523 -0.2588  0.4477  0.5254
  174SAPI  H20R19775   2.184   4.649   8.425  2.6159 -1.1115  0.8220
  174SAPI  H20S19776   2.059   4.669   8.553 -0.3169  0.0022  1.2350
  174SAPI  H20T19777   2.118   4.504   8.518  2.0054 -0.3675  2.1639
  174SAPI   C3319778   1.769   5.012   9.841 -0.2242 -1.2718  0.8634
  174SAPI   H3X19779   1.688   5.088   9.851 -0.4358 -0.7831 -3.0168
  174SAPI   H3Y19780   1.726   4.915   9.811  2.3457 -1.5664 -2.3853
  174SAPI   C3419781   1.856   5.049   9.711 -0.3770 -0.5563 -0.9526
  174SAPI   H4X19782   1.959   5.011   9.730  0.5641  2.3030  0.1964
  174SAPI   H4Y19783   1.855   5.160   9.704 -1.1650 -0.2607  2.2351
  174SAPI   C3519784   1.806   4.975   9.590  0.2713  0.0054 -1.0834
  174SAPI   H5X19785   1.697   4.990   9.604  0.8930  1.9262  3.5612
  174SAPI   H5Y19786   1.835   4.868   9.585  1.1401 -0.2111  3.6373
  174SAPI   C3619787   1.849   5.041   9.460 -0.3008  0.9984  0.3763
  174SAPI   H6X19788   1.960   5.036   9.459 -0.3288 -0.2153  1.5202
  174SAPI   H6Y19789   1.816   5.147   9.466  0.1961  1.1528  0.4107
  174SAPI   C3719790   1.809   4.979   9.321  0.0208 -0.3799 -0.1395
  174SAPI   H7X19791   1.700   5.001   9.315 -0.3431 -1.0621  2.6636
  174SAPI   H7Y19792   1.816   4.869   9.316 -1.5727 -0.6102  1.4831
  174SAPI   C3819793   1.870   5.047   9.202  0.1518 -0.4089  0.0710
  174SAPI   H8X19794   1.976   5.014   9.205 -0.7707 -4.0870 -1.7284
  174SAPI   H8Y19795   1.855   5.155   9.222  1.8745 -0.4763  2.0542
  174SAPI   C3919796   1.818   5.010   9.063 -0.7969  0.0322 -0.5183
  174SAPI   H9X19797   1.708   4.994   9.070 -1.2680  2.4959 -1.2903
  174SAPI   H9Y19798   1.861   4.910   9.040 -0.3896  0.5374 -2.1013
  174SAPI  C31019799   1.835   5.111   8.952  0.0784 -0.4141 -0.2095
  174SAPI  H10X19800   1.757   5.187   8.974 -0.8677 -1.5322  0.3791
  174SAPI  H10Y19801   1.786   5.069   8.861 -0.4796  1.5600 -0.8563
  174SAPI  C31119802   1.985   5.156   8.930  0.2339 -0.4682  0.4380
  174SAPI  H11X19803   2.008   5.223   9.015 -0.4231  0.7197 -0.2816
  174SAPI  H11Y19804   1.988   5.210   8.832  0.3370 -0.6212  0.3571
  174SAPI  C31219805   2.072   5.031   8.915 -0.6613  0.4719 -0.1004
  174SAPI  H12X19806   2.018   4.963   8.847 -1.0689 -0.5725  1.2263
  174SAPI  H12Y19807   2.070   4.987   9.017 -2.1162 -1.1854 -0.7916
  174SAPI  C31319808   2.215   5.059   8.855  0.5146  0.6123  0.1161
  174SAPI  H13X19809   2.270   4.962   8.858 -2.1603 -0.9875  1.9522
  174SAPI  H13Y19810   2.262   5.133   8.923 -2.0667  3.6541 -1.1727
  174SAPI  C31419811   2.222   5.100   8.710 -0.4655  0.1367 -0.5884
  174SAPI  H14X19812   2.326   5.097   8.670 -0.1117  0.3818  0.2958
  174SAPI  H14Y19813   2.195   5.207   8.693  1.4113  0.5597 -1.2013
  174SAPI  C31519814   2.133   5.017   8.618  0.1441  0.5489 -0.2963
  174SAPI  H15X19815   2.025   5.033   8.640  0.1470 -1.0895  1.1262
  174SAPI  H15Y19816   2.158   4.909   8.626 -3.6398 -0.5320 -1.3406
  174SAPI  C31619817   2.155   5.047   8.472 -0.7654  0.2821 -0.4433
  174SAPI  H16X19818   2.257   5.009   8.450 -0.8537 -0.8330  0.9687
  174SAPI  H16Y19819   2.167   5.157   8.463  2.8827  0.3009  2.2821
  174SAPI  C31719820   2.054   4.991   8.375 -0.1092  0.3842 -0.3287
  174SAPI  H17X19821   1.982   5.075   8.361  0.9558  1.2895 -0.4699
  174SAPI  H17Y19822   1.993   4.913   8.426 -3.4698  2.4296 -0.9138
  174SAPI  C31819823   2.108   4.934   8.242 -0.0021  0.1152 -0.3601
  174SAPI  H18X19824   2.164   5.018   8.196 -1.6468  1.6456  0.3595
  174SAPI  H18Y19825   2.030   4.915   8.166  0.5695 -2.6551 -0.3859
  174SAPI  H18Z19826   2.187   4.856   8.252  1.0959  1.2741  0.2746
  175SAPI   C1219827   4.496   3.264   6.111 -0.3126 -0.1285 -0.0552
  175SAPI    H219828   4.489   3.227   6.216 -2.0566 -3.0637 -1.0799
  175SAPI    O219829   4.496   3.149   6.030 -0.1290 -0.0383  0.5609
  175SAPI   HO219830   4.584   3.111   6.033  0.2486  0.8826  1.6035
  175SAPI   C1319831   4.371   3.352   6.090  0.1919  0.3147 -0.3741
  175SAPI    H319832   4.357   3.425   6.172  0.7223 -1.3606  1.2915
  175SAPI    O319833   4.246   3.277   6.087  0.2549  0.6722  0.7356
  175SAPI   HO319834   4.259   3.190   6.127 -3.1969 -0.3124  0.1011
  175SAPI   C1419835   4.380   3.439   5.963 -0.6757 -0.6675  0.5564
  175SAPI    H419836   4.381   3.374   5.874 -0.9756  2.3092 -1.7796
  175SAPI    O419837   4.263   3.522   5.950 -0.4866 -0.5365 -0.3473
  175SAPI   HO419838   4.211   3.512   6.030 -0.0786  1.9628  0.3077
  175SAPI   C1519839   4.515   3.513   5.958 -0.2485 -0.2363 -0.2145
  175SAPI    H519840   4.537   3.563   6.055  1.6725 -0.2573 -0.5892
  175SAPI    O519841   4.523   3.612   5.859 -0.3653  0.1009  0.6589
  175SAPI   HO519842   4.480   3.692   5.890  0.1637 -0.7739  4.0705
  175SAPI   C1619843   4.624   3.412   5.954 -0.1784  0.6261  0.0263
  175SAPI    H619844   4.593   3.338   5.877 -0.7488  0.0807  0.7670
  175SAPI    O619845   4.746   3.463   5.913 -0.6535 -0.0645  0.1193
  175SAPI   HO619846   4.793   3.513   5.980  0.9253 -1.1879 -0.0850
  175SAPI   C1119847   4.630   3.340   6.094 -0.1754  0.9054 -1.0038
  175SAPI    H119848   4.640   3.418   6.173  1.7007  0.2187 -0.5188
  175SAPI     P19849   4.857   3.272   6.209 -0.0570 -0.3636  0.0745
  175SAPI   O1319850   4.935   3.396   6.177  0.1858 -0.0117 -0.5125
  175SAPI   O1419851   4.930   3.147   6.211 -0.2378  0.5025 -0.1649
  175SAPI   O1219852   4.738   3.246   6.109  0.3529 -0.6562  0.0978
  175SAPI   O1119853   4.779   3.293   6.345 -0.1139  0.0222 -0.0528
  175SAPI    C119854   4.703   3.186   6.415  0.3067 -0.1056  0.9340
  175SAPI    HA19855   4.594   3.208   6.411  0.3687  0.0492 -0.3434
  175SAPI    HB19856   4.713   3.089   6.362 -0.2648 -0.7196  1.9107
  175SAPI    C219857   4.744   3.175   6.564 -0.1067 -0.2764 -0.1772
  175SAPI    HS19858   4.708   3.077   6.600  0.1023  0.5974  2.6239
  175SAPI   O2119859   4.705   3.293   6.632 -0.1816 -0.0104  0.6050
  175SAPI   C2119860   4.656   3.269   6.749  0.6625 -0.6928 -0.7527
  175SAPI   O2219861   4.654   3.166   6.807  0.2634 -0.0788  0.7370
  175SAPI   C2219862   4.610   3.405   6.813 -0.4477 -0.1422 -0.2350
  175SAPI   H2R19863   4.658   3.480   6.747 -0.8904  0.5645  0.2315
  175SAPI   H2S19864   4.501   3.422   6.800 -0.4077 -1.4748 -2.8738
  175SAPI    C319865   4.899   3.151   6.579 -0.1648 -0.2220  0.6184
  175SAPI    HX19866   4.943   3.245   6.540  2.6131 -1.2290  1.0858
  175SAPI    HY19867   4.933   3.068   6.514  0.1546  0.6827 -0.3879
  175SAPI   O3119868   4.938   3.120   6.716 -0.0536  0.0863 -0.5391
  175SAPI   C3119869   5.016   3.211   6.774  0.0321 -0.0556  0.2568
  175SAPI   O3219870   5.043   3.322   6.726  0.2357  0.4667  0.0927
  175SAPI   C3219871   5.063   3.157   6.914 -0.0070 -0.5129  0.0493
  175SAPI   H2X19872   5.173   3.171   6.920  0.3796 -3.2531  0.7759
  175SAPI   H2Y19873   5.029   3.052   6.913 -1.3165 -0.1132  0.4751
  175SAPI   C2319874   4.647   3.436   6.959  1.0390  0.6243  0.0199
  175SAPI   H3R19875   4.607   3.539   6.973 -1.7938 -0.3021 -0.6927
  175SAPI   H3S19876   4.757   3.427   6.972  0.9333 -1.3353 -0.2275
  175SAPI   C2419877   4.575   3.358   7.067 -0.1858  0.3916  0.3637
  175SAPI   H4R19878   4.592   3.249   7.051  0.3339  0.6540 -0.9527
  175SAPI   H4S19879   4.466   3.355   7.044  0.1570 -1.8387 -1.3462
  175SAPI   C2519880   4.601   3.412   7.206  0.9406 -0.0959 -0.3936
  175SAPI   H5R19881   4.571   3.517   7.211  0.6482 -0.1564 -0.7983
  175SAPI   C2619882   4.630   3.350   7.327 -0.6922 -1.2879 -0.4525
  175SAPI   H6R19883   4.649   3.408   7.418 -3.1549 -1.5059  0.2724
  175SAPI   C2719884   4.659   3.210   7.345 -0.5867  0.7018  0.3672
  175SAPI   H7R19885   4.765   3.202   7.376 -0.2670  0.8559 -0.6795
  175SAPI   H7S19886   4.649   3.160   7.247  1.5149  0.5294  0.2036
  175SAPI   C2819887   4.578   3.143   7.452 -0.2722 -0.2754  0.1401
  175SAPI   H8R19888   4.508   3.067   7.414 -0.7577 -1.0475  2.3965
  175SAPI   C2919889   4.575   3.158   7.588 -0.7269  0.2064  0.7490
  175SAPI   H9R19890   4.486   3.120   7.642 -2.3616  0.2834 -1.7442
  175SAPI  C21019891   4.659   3.251   7.667  0.7592  0.3648 -0.2423
  175SAPI  H10R19892   4.623   3.353   7.644 -0.0226 -0.1693 -1.4877
  175SAPI  H10S19893   4.761   3.252   7.622  2.0216  2.1119  2.3923
  175SAPI  C21119894   4.682   3.208   7.808  1.5876  0.1760 -0.5316
  175SAPI  H11R19895   4.663   3.102   7.833 -1.3476  0.7010 -0.1635
  175SAPI  C21219896   4.698   3.284   7.917  0.3186 -0.2035  0.3133
  175SAPI  H12R19897   4.716   3.239   8.016 -0.9315 -3.7520 -0.9236
  175SAPI  C21319898   4.713   3.435   7.928 -1.0931  0.3504 -0.2744
  175SAPI  H13R19899   4.702   3.486   7.830 -0.2560 -0.8568 -1.0208
  175SAPI  H13S19900   4.821   3.452   7.944 -1.2028  0.6921  0.1291
  175SAPI  C21419901   4.630   3.513   8.030 -0.1947  0.7203  0.6124
  175SAPI  H14R19902   4.532   3.537   7.987  0.3772 -1.1129 -1.9027
  175SAPI  C21519903   4.667   3.539   8.159  0.1921  0.1194  0.3730
  175SAPI  H15R19904   4.597   3.603   8.214 -0.4538  0.2764 -0.6227
  175SAPI  C21619905   4.804   3.495   8.209  0.3582  0.3655  1.0775
  175SAPI  H16R19906   4.873   3.519   8.126 -1.6335  1.1231 -0.4260
  175SAPI  H16S19907   4.798   3.384   8.221  1.3123  0.1996  0.1258
  175SAPI  C21719908   4.855   3.550   8.340 -0.0400 -0.2502  0.4742
  175SAPI  H17R19909   4.830   3.658   8.341 -1.6055 -0.5997  0.3752
  175SAPI  H17S19910   4.965   3.531   8.342  0.0574 -0.2008 -1.8993
  175SAPI  C21819911   4.783   3.491   8.460 -0.0600  0.1552 -0.3200
  175SAPI  H18R19912   4.806   3.382   8.465  1.9046  0.5859  1.1292
  175SAPI  H18S19913   4.674   3.490   8.441 -0.0057 -3.0047 -0.9979
  175SAPI  C21919914   4.837   3.542   8.596  0.4859  0.8195 -0.4130
  175SAPI  H19R19915   4.941   3.511   8.617 -0.3177 -0.4307  2.1010
  175SAPI  H19S19916   4.779   3.483   8.671 -0.2331 -0.9873 -2.2959
  175SAPI  C22019917   4.822   3.692   8.619  0.3247  0.2283  0.8437
  175SAPI  H20R19918   4.717   3.724   8.629 -0.7413 -2.0681 -1.7932
  175SAPI  H20S19919   4.867   3.751   8.537 -0.4575  1.3074  1.1757
  175SAPI  H20T19920   4.878   3.717   8.712  1.0323 -0.3004  0.5774
  175SAPI   C3319921   5.003   3.233   7.031  0.5406  0.4626  0.3355
  175SAPI   H3X19922   4.893   3.247   7.023  0.3856  1.1973  2.7252
  175SAPI   H3Y19923   5.039   3.336   7.052 -2.4304  1.5718  0.3883
  175SAPI   C3419924   5.027   3.152   7.160  0.0989 -0.2346 -0.7922
  175SAPI   H4X19925   5.126   3.103   7.155  0.2512 -0.1539  0.7876
  175SAPI   H4Y19926   4.949   3.074   7.169 -1.9425  1.6664 -1.0563
  175SAPI   C3519927   5.042   3.238   7.287  0.1560 -0.2357 -0.0479
  175SAPI   H5X19928   4.956   3.303   7.313 -1.1089 -0.3584 -3.4528
  175SAPI   H5Y19929   5.126   3.310   7.273 -0.1716  0.8852  3.0236
  175SAPI   C3619930   5.064   3.154   7.414 -0.3895  0.0567 -0.5716
  175SAPI   H6X19931   5.158   3.098   7.396  0.0250  1.1825 -2.2431
  175SAPI   H6Y19932   4.983   3.078   7.415 -0.2144 -0.1790 -1.9600
  175SAPI   C3719933   5.074   3.222   7.552 -0.0704  0.4844  0.0255
  175SAPI   H7X19934   4.983   3.285   7.564  1.0486  2.7338 -2.3853
  175SAPI   H7Y19935   5.160   3.293   7.553 -0.8453  1.5545 -2.5370
  175SAPI   C3819936   5.097   3.127   7.672  0.3190  0.0177  0.6910
  175SAPI   H8X19937   5.187   3.065   7.656 -0.3493 -0.1734 -3.1774
  175SAPI   H8Y19938   5.019   3.050   7.689 -1.3710  1.1910 -1.2084
  175SAPI   C3919939   5.111   3.194   7.805 -0.0611 -0.2766 -0.3938
  175SAPI   H9X19940   5.024   3.262   7.809 -0.6871 -0.7040 -3.7181
  175SAPI   H9Y19941   5.206   3.252   7.811  0.8411 -1.6210 -1.2376
  175SAPI  C31019942   5.105   3.099   7.929 -0.1450  0.7464  0.6856
  175SAPI  H10X19943   5.192   3.030   7.925  1.7701  3.0993 -1.3180
  175SAPI  H10Y19944   5.008   3.046   7.913  1.1493 -1.0951 -1.7196
  175SAPI  C31119945   5.102   3.157   8.071 -0.2371  0.9851  0.6994
  175SAPI  H11X19946   5.044   3.098   8.145  1.3142  1.2523  2.1931
  175SAPI  H11Y19947   5.073   3.264   8.067  0.9170  1.3430  1.5478
  175SAPI  C31219948   5.239   3.152   8.138  0.0683  0.0618  0.3793
  175SAPI  H12X19949   5.320   3.192   8.073 -1.4872  1.6445 -0.6754
  175SAPI  H12Y19950   5.248   3.043   8.159 -0.9466  0.1538  1.4323
  175SAPI  C31319951   5.249   3.220   8.268  0.3324  0.1877 -0.4808
  175SAPI  H13X19952   5.204   3.322   8.255 -0.2021 -0.2242 -2.1832
  175SAPI  H13Y19953   5.349   3.244   8.308  0.4066  2.0386 -1.6111
  175SAPI  C31419954   5.166   3.176   8.393 -0.2790 -0.6113 -0.3420
  175SAPI  H14X19955   5.199   3.073   8.416  0.9753 -0.2607 -0.5429
  175SAPI  H14Y19956   5.060   3.177   8.358 -0.1566 -0.9654 -0.7358
  175SAPI  C31519957   5.184   3.275   8.514 -0.6350  0.0620  0.3847
  175SAPI  H15X19958   5.166   3.375   8.468 -0.5614 -0.2298 -0.2882
  175SAPI  H15Y19959   5.291   3.258   8.535 -0.3338 -0.4833 -1.4142
  175SAPI  C31619960   5.098   3.245   8.634  0.1660  0.2509 -1.2249
  175SAPI  H16X19961   4.988   3.242   8.622  0.0945 -0.0551 -0.5635
  175SAPI  H16Y19962   5.129   3.310   8.719  0.5253  1.3075 -2.1370
  175SAPI  C31719963   5.122   3.106   8.699 -0.1813  0.0015  0.2221
  175SAPI  H17X19964   5.230   3.103   8.722 -0.1742 -0.7730  0.1185
  175SAPI  H17Y19965   5.103   3.027   8.623  0.4925 -1.5100  1.5669
  175SAPI  C31819966   5.041   3.084   8.823 -0.2358 -0.2475  0.8786
  175SAPI  H18X19967   4.932   3.073   8.806 -0.5454 -2.0436  3.3856
  175SAPI  H18Y19968   5.055   3.160   8.902  1.8438  0.5801 -0.2171
  175SAPI  H18Z19969   5.065   2.984   8.866 -1.1602 -1.1822 -0.6569
  176SAPI   C1219970   5.676   2.226   6.274 -0.3789 -0.0023  0.0755
  176SAPI    H219971   5.661   2.120   6.302 -3.0184 -0.0669 -1.3035
  176SAPI    O219972   5.807   2.251   6.223  0.5363  0.7387  0.2463
  176SAPI   HO219973   5.858   2.188   6.275 -1.2244  0.0443  1.2125
  176SAPI   C1319974   5.579   2.249   6.161 -0.3657  0.5123  0.2602
  176SAPI    H319975   5.478   2.227   6.203 -0.6029 -0.2372 -0.6643
  176SAPI    O319976   5.598   2.154   6.055 -0.0079  0.5834 -0.2830
  176SAPI   HO319977   5.691   2.131   6.049 -0.3660 -2.3273  2.3288
  176SAPI   C1419978   5.574   2.392   6.118  0.8207 -0.4125 -0.3115
  176SAPI    H419979   5.674   2.417   6.076  0.2924  0.2625 -1.2001
  176SAPI    O419980   5.485   2.416   6.005 -0.1059 -0.5138 -0.2421
  176SAPI   HO419981   5.523   2.388   5.921 -0.3087 -0.4322 -0.3614
  176SAPI   C1519982   5.545   2.491   6.231  0.3389  0.2371  0.1341
  176SAPI    H519983   5.440   2.478   6.264  0.5399  0.4720  0.8879
  176SAPI    O519984   5.547   2.630   6.187 -0.2653  0.1104  0.2686
  176SAPI   HO519985   5.479   2.642   6.121  0.0641 -1.3006 -0.3632
  176SAPI   C1619986   5.640   2.465   6.344  0.0809  0.5467  0.2779
  176SAPI    H619987   5.740   2.496   6.308 -0.4241  1.5838 -0.2867
  176SAPI    O619988   5.598   2.552   6.448 -0.1303  0.3834 -0.1453
  176SAPI   HO619989   5.503   2.546   6.457 -0.1382 -0.6133 -0.7331
  176SAPI   C1119990   5.643   2.318   6.391  0.0922  0.3533 -0.3199
  176SAPI    H119991   5.537   2.296   6.417  0.6784 -0.7097  1.3488
  176SAPI     P19992   5.729   2.164   6.598 -0.0949 -0.1961 -0.1538
  176SAPI   O1319993   5.869   2.140   6.650 -0.2658  0.0548 -0.5893
  176SAPI   O1419994   5.654   2.054   6.538 -0.2297  0.6087  0.0212
  176SAPI   O1219995   5.739   2.293   6.494  0.2416 -0.6176 -0.2396
  176SAPI   O1119996   5.638   2.221   6.711  0.0508 -0.0810  0.4607
  176SAPI    C119997   5.641   2.361   6.749  0.2721  0.5727  0.2761
  176SAPI    HA19998   5.724   2.412   6.696  2.1239 -2.3990  0.0489
  176SAPI    HB19999   5.541   2.403   6.729  0.4312  1.1285  0.6224
  176SAPI    C220000   5.672   2.378   6.895  0.5157  0.1038 -0.7614
  176SAPI    HS20001   5.648   2.482   6.925  0.0754 -0.6062  1.5939
  176SAPI   O2120002   5.809   2.337   6.938 -0.4459 -0.5363 -0.4313
  176SAPI   C2120003   5.890   2.442   6.923 -0.6218 -0.2842  0.0976
  176SAPI   O2220004   5.862   2.541   6.859 -0.2664 -0.0952  0.2621
  176SAPI   C2220005   6.020   2.416   6.998  0.6128 -0.5090  1.1547
  176SAPI   H2R20006   6.015   2.397   7.107 -1.5957 -1.3042  0.9564
  176SAPI   H2S20007   6.071   2.333   6.945  2.4271  2.0439 -1.4260
  176SAPI    C320008   5.570   2.303   6.989 -0.1030  0.5642 -0.2533
  176SAPI    HX20009   5.556   2.197   6.958  2.2404 -0.9965  3.2412
  176SAPI    HY20010   5.474   2.354   6.969  0.6691  1.9646 -0.5175
  176SAPI   O3120011   5.601   2.304   7.129 -0.7473  0.8646 -0.1296
  176SAPI   C3120012   5.597   2.415   7.199 -0.8834  0.3714  0.5548
  176SAPI   O3220013   5.560   2.522   7.162  0.0823 -0.3006  0.6380
  176SAPI   C3220014   5.657   2.390   7.340 -0.3373 -0.0626  0.0456
  176SAPI   H2X20015   5.649   2.280   7.352 -0.0026 -0.3242 -1.8517
  176SAPI   H2Y20016   5.600   2.440   7.422  0.4245  3.2961 -1.2969
  176SAPI   C2320017   6.126   2.525   6.979  0.5056 -0.4124  0.8111
  176SAPI   H3R20018   6.143   2.545   6.871  2.8110 -0.0426  1.2013
  176SAPI   H3S20019   6.222   2.495   7.025  0.5671 -0.9580  0.3429
  176SAPI   C2420020   6.091   2.663   7.051 -0.7113 -0.2932  0.2899
  176SAPI   H4R20021   5.992   2.707   7.025 -0.8410  0.7384  2.3394
  176SAPI   H4S20022   6.165   2.738   7.015 -0.1961 -0.7259  0.4388
  176SAPI   C2520023   6.087   2.640   7.202  0.3167 -0.6075 -0.0663
  176SAPI   H5R20024   5.987   2.659   7.244  1.0329 -0.4170  1.6479
  176SAPI   C2620025   6.184   2.632   7.292 -0.1615 -0.3337 -0.7900
  176SAPI   H6R20026   6.170   2.609   7.399  0.7754 -0.1262 -0.6169
  176SAPI   C2720027   6.332   2.629   7.259  0.3516 -0.5311  0.8052
  176SAPI   H7R20028   6.387   2.687   7.337  0.6599 -0.0240  0.2182
  176SAPI   H7S20029   6.361   2.687   7.169  3.0989 -0.9423  1.3283
  176SAPI   C2820030   6.391   2.493   7.250  0.9239 -0.7618 -0.8166
  176SAPI   H8R20031   6.403   2.453   7.149  0.1846 -1.8566 -0.4876
  176SAPI   C2920032   6.413   2.406   7.350 -0.6706  0.1412 -0.8915
  176SAPI   H9R20033   6.462   2.310   7.327 -0.1394  0.4306 -0.9742
  176SAPI  C21020034   6.395   2.427   7.499 -0.1087 -0.5826 -0.7963
  176SAPI  H10R20035   6.438   2.529   7.513  1.2913 -0.9639 -2.1226
  176SAPI  H10S20036   6.450   2.349   7.555  1.0563  0.8270  0.0808
  176SAPI  C21120037   6.256   2.433   7.550  0.1882  0.3466  0.1259
  176SAPI  H11R20038   6.180   2.430   7.470 -0.3132 -1.1729  0.6141
  176SAPI  C21220039   6.216   2.479   7.669  0.3884  1.4857  0.0013
  176SAPI  H12R20040   6.109   2.470   7.692  0.0111 -0.0705 -2.0482
  176SAPI  C21320041   6.307   2.520   7.783 -0.1659  1.0802 -0.2069
  176SAPI  H13R20042   6.302   2.630   7.765 -1.3026  0.9272 -0.9067
  176SAPI  H13S20043   6.408   2.477   7.764  0.6094  2.1257  1.3637
  176SAPI  C21420044   6.263   2.482   7.925 -0.4818 -0.1416  0.1159
  176SAPI  H14R20045   6.169   2.426   7.939 -1.2560  1.3989  1.4524
  176SAPI  C21520046   6.347   2.506   8.026  0.1750  0.2847 -0.5448
  176SAPI  H15R20047   6.306   2.490   8.127  0.0211  1.4229 -0.4091
  176SAPI  C21620048   6.484   2.574   8.015  0.1633 -0.4560 -0.1481
  176SAPI  H16R20049   6.486   2.644   7.929  0.2142  0.9933  0.9921
  176SAPI  H16S20050   6.562   2.500   7.988 -0.8214 -1.8582  0.7297
  176SAPI  C21720051   6.529   2.655   8.139 -0.8384  0.4630 -0.9392
  176SAPI  H17R20052   6.634   2.688   8.124 -0.9703  1.1708 -0.3909
  176SAPI  H17S20053   6.522   2.578   8.219  2.8579 -0.1730 -1.0124
  176SAPI  C21820054   6.439   2.776   8.168  0.6321 -0.2665 -0.3015
  176SAPI  H18R20055   6.333   2.743   8.175  0.0262  1.8578  1.5302
  176SAPI  H18S20056   6.443   2.847   8.082  0.0244 -0.9798 -0.9442
  176SAPI  C21920057   6.467   2.855   8.296  0.8052 -0.1144  0.4852
  176SAPI  H19R20058   6.387   2.931   8.310  0.4847 -0.4164  0.3199
  176SAPI  H19S20059   6.561   2.913   8.285 -1.0602  2.9799 -0.1476
  176SAPI  C22020060   6.473   2.772   8.424 -0.2350  0.1890  0.3969
  176SAPI  H20R20061   6.507   2.837   8.506 -0.7675  1.3407 -0.2751
  176SAPI  H20S20062   6.553   2.695   8.409 -0.4172 -0.0174  0.4856
  176SAPI  H20T20063   6.377   2.723   8.449  1.3081 -1.7513  3.0829
  176SAPI   C3320064   5.801   2.434   7.338 -0.2028 -1.0839  0.1109
  176SAPI   H3X20065   5.797   2.546   7.340 -0.9137 -1.0750 -0.8193
  176SAPI   H3Y20066   5.851   2.419   7.241 -1.3548  0.2004 -0.7316
  176SAPI   C3420067   5.875   2.391   7.459 -0.5388 -0.4708 -0.4686
  176SAPI   H4X20068   5.964   2.456   7.464 -0.9986  0.0765  2.8238
  176SAPI   H4Y20069   5.914   2.288   7.442  0.8063  0.1560 -1.2884
  176SAPI   C3520070   5.809   2.410   7.591 -0.7522 -0.3770 -0.8601
  176SAPI   H5X20071   5.856   2.348   7.670 -2.3605  1.6947  1.9222
  176SAPI   H5Y20072   5.705   2.371   7.601 -0.2661 -1.3182  1.0942
  176SAPI   C3620073   5.811   2.557   7.636  0.0951 -0.3846  0.1264
  176SAPI   H6X20074   5.757   2.625   7.567 -0.3867  0.8357  1.6460
  176SAPI   H6Y20075   5.915   2.595   7.650 -0.3156  0.7395  0.2154
  176SAPI   C3720076   5.751   2.570   7.782 -0.4954  0.2349 -0.0865
  176SAPI   H7X20077   5.649   2.527   7.783 -1.1669  1.6272 -2.1048
  176SAPI   H7Y20078   5.750   2.679   7.804  0.7127  0.1938  0.2418
  176SAPI   C3820079   5.847   2.514   7.889  0.2178 -0.2916  0.2966
  176SAPI   H8X20080   5.951   2.546   7.865  0.3726  0.3005  1.7153
  176SAPI   H8Y20081   5.854   2.403   7.892 -0.2179 -0.3003  1.1237
  176SAPI   C3920082   5.807   2.557   8.035 -0.1148  0.3072  0.9396
  176SAPI   H9X20083   5.725   2.486   8.061  0.2787 -1.2424 -1.6973
  176SAPI   H9Y20084   5.778   2.664   8.043  0.6946  0.3963  3.3135
  176SAPI  C31020085   5.918   2.529   8.134 -0.3920  0.6873  0.4886
  176SAPI  H10X20086   6.020   2.567   8.111  0.7609 -1.9367  0.9693
  176SAPI  H10Y20087   5.928   2.421   8.158  1.0124  0.9972  1.3903
  176SAPI  C31120088   5.871   2.606   8.259  0.6068  0.2838 -0.3476
  176SAPI  H11X20089   5.763   2.605   8.283  1.1092 -2.3672  2.5403
  176SAPI  H11Y20090   5.899   2.712   8.250  0.0160  0.5270  0.4772
  176SAPI  C31220091   5.948   2.551   8.380  0.1613  0.6238 -0.3034
  176SAPI  H12X20092   6.052   2.533   8.346  0.3883 -2.1004  1.4783
  176SAPI  H12Y20093   5.914   2.448   8.407 -0.9106  1.2415  0.8218
  176SAPI  C31320094   5.938   2.640   8.509 -0.3828  0.6264 -0.5959
  176SAPI  H13X20095   5.835   2.652   8.548  0.5787 -1.4730  3.0489
  176SAPI  H13Y20096   5.976   2.744   8.500  2.7399 -0.2155  1.1642
  176SAPI  C31420097   6.006   2.571   8.623 -0.0812  0.0043 -0.1563
  176SAPI  H14X20098   6.114   2.556   8.600 -0.2059 -0.8407 -0.2145
  176SAPI  H14Y20099   5.957   2.473   8.636  0.1622 -0.1629 -0.4735
  176SAPI  C31520100   6.002   2.655   8.758 -0.3091 -0.4581  0.4424
  176SAPI  H15X20101   6.041   2.759   8.747  2.0693 -1.2744  0.6680
  176SAPI  H15Y20102   6.075   2.612   8.830  0.6407  0.4485  0.0617
  176SAPI  C31620103   5.871   2.658   8.837 -0.5112 -0.2074 -0.2669
  176SAPI  H16X20104   5.830   2.557   8.858 -0.7025  0.4724  3.2488
  176SAPI  H16Y20105   5.787   2.712   8.787 -0.7890 -1.7998 -1.5909
  176SAPI  C31720106   5.901   2.714   8.980  0.2316  0.6967  0.2335
  176SAPI  H17X20107   5.965   2.804   8.971  0.7515  0.2387 -0.8161
  176SAPI  H17Y20108   5.957   2.650   9.051 -1.9454 -2.2364 -0.4734
  176SAPI  C31820109   5.773   2.749   9.050 -0.0274  0.4388 -0.0209
  176SAPI  H18X20110   5.788   2.796   9.150 -0.2817 -0.1251  0.2912
  176SAPI  H18Y20111   5.714   2.655   9.060 -0.4620  0.6174 -0.8743
  176SAPI  H18Z20112   5.710   2.814   8.987 -2.5878 -3.0171 -1.3553
  177SLPC     N20113   4.112   5.724  10.822 -0.3827 -0.1155  0.3091
  177SLPC   C1320114   4.099   5.866  10.846  0.3968  0.0273  0.2987
  177SLPC  H13A20115   4.007   5.895  10.895  0.5595  0.2023  0.5036
  177SLPC  H13B20116   4.180   5.907  10.904 -1.7535  2.1067  2.0263
  177SLPC  H13C20117   4.102   5.910  10.748 -0.2578  0.4976  0.4822
  177SLPC   C1420118   3.981   5.664  10.795 -0.2276 -0.7502  0.0772
  177SLPC  H14A20119   3.928   5.705  10.710  1.3479  0.1997 -0.4851
  177SLPC  H14B20120   3.993   5.559  10.774 -1.9216 -0.7779 -0.9196
  177SLPC  H14C20121   3.913   5.674  10.879 -0.9915 -2.0124 -0.3675
  177SLPC   C1520122   4.168   5.663  10.940 -0.1174  0.2379 -0.5880
  177SLPC  H15A20123   4.271   5.688  10.956  0.8960 -1.3677 -3.7857
  177SLPC  H15B20124   4.111   5.694  11.027 -1.0979  2.0726 -1.8212
  177SLPC  H15C20125   4.163   5.555  10.928 -1.5715  0.3444 -1.2665
  177SLPC   C1220126   4.204   5.698  10.706  0.0746 -0.0715 -0.1280
  177SLPC  H12A20127   4.289   5.765  10.714 -1.1843  1.6056 -0.2366
  177SLPC  H12B20128   4.158   5.730  10.613 -1.4987  1.7911  1.2208
  177SLPC   C1120129   4.259   5.560  10.676 -0.0244 -0.3290  0.4707
  177SLPC  H11A20130   4.277   5.552  10.566 -1.8075  1.5297 -0.0326
  177SLPC  H11B20131   4.176   5.488  10.693  1.0199 -1.9308 -0.8452
  177SLPC     P20132   4.509   5.596  10.764  0.0733 -0.1628  0.2902
  177SLPC   O1320133   4.500   5.742  10.762  0.6626  0.8405 -0.2312
  177SLPC   O1420134   4.583   5.544  10.881 -0.6495  0.0608  0.0246
  177SLPC   O1220135   4.366   5.529  10.761  0.1667  0.6671  0.4145
  177SLPC   O1120136   4.576   5.536  10.629  0.2119 -0.4803 -0.0381
  177SLPC    C120137   4.581   5.399  10.595 -0.0232 -0.8918 -0.4404
  177SLPC    HA20138   4.664   5.356  10.656 -0.0910  0.0899  0.3614
  177SLPC    HB20139   4.481   5.354  10.614  0.6015 -2.1912 -0.0903
  177SLPC    C220140   4.628   5.365  10.457  0.2290  0.3744  0.7696
  177SLPC    HS20141   4.738   5.377  10.453  0.4820 -1.5846  0.7194
  177SLPC   O2120142   4.563   5.461  10.363  0.7883  0.6594 -1.0320
  177SLPC   C2120143   4.640   5.487  10.257 -0.1129  0.6040 -0.2497
  177SLPC   O2220144   4.755   5.450  10.240  0.3348  0.0901 -0.2545
  177SLPC   C2220145   4.564   5.582  10.157  0.3049  0.0898  0.3962
  177SLPC   H2R20146   4.467   5.535  10.131 -0.0253  1.3300 -0.6934
  177SLPC   H2S20147   4.559   5.688  10.190  2.9882  1.0910 -2.0324
  177SLPC    C320148   4.597   5.213  10.444 -0.7075  0.0670  0.2151
  177SLPC    HX20149   4.493   5.193  10.476 -1.0150  0.2051 -0.6575
  177SLPC    HY20150   4.659   5.155  10.516  0.3360 -1.1562 -1.5815
  177SLPC   O3120151   4.613   5.173  10.308 -0.2227 -0.1536  0.5158
  177SLPC   C3120152   4.694   5.078  10.280  0.2818  0.5089 -0.4384
  177SLPC   O3220153   4.717   4.984  10.357 -0.5150 -0.0490 -0.3722
  177SLPC   C3220154   4.756   5.108  10.146  0.9649  0.0581  0.5121
  177SLPC   H2X20155   4.821   5.198  10.148 -0.5259  1.1927 -0.0243
  177SLPC   H2Y20156   4.673   5.132  10.076  0.9388 -0.1103  0.4838
  177SLPC   C2320157   4.637   5.610  10.019  0.8401  0.2432  0.0264
  177SLPC   H3R20158   4.662   5.512   9.973 -0.5140 -0.0584 -0.0935
  177SLPC   H3S20159   4.732   5.655  10.056  0.3387  1.3873 -0.0627
  177SLPC   C2420160   4.584   5.704   9.916  0.6139 -0.6333  0.3373
  177SLPC   H4R20161   4.605   5.806   9.956 -0.7259 -0.0088 -0.4524
  177SLPC   H4S20162   4.473   5.696   9.907  0.4477  1.4319 -0.0492
  177SLPC   C2520163   4.654   5.687   9.778 -0.3595 -0.4680  0.3115
  177SLPC   H5R20164   4.656   5.577   9.758 -2.7344 -0.5216  0.0742
  177SLPC   H5S20165   4.763   5.709   9.780 -0.5598  0.9921 -1.6682
  177SLPC   C2620166   4.574   5.755   9.666  0.5257  0.3442 -1.1756
  177SLPC   H6R20167   4.578   5.865   9.678  1.1532  0.1721  0.3527
  177SLPC   H6S20168   4.468   5.724   9.676  0.1196  2.1203  0.6393
  177SLPC   C2720169   4.622   5.723   9.523 -0.9012  0.2834  0.7341
  177SLPC   H7R20170   4.619   5.612   9.524 -0.4228  0.2720  0.8598
  177SLPC   H7S20171   4.729   5.750   9.515  0.2793 -3.7855  0.5429
  177SLPC   C2820172   4.531   5.784   9.416  0.5152  0.2818 -0.3585
  177SLPC   H8R20173   4.515   5.894   9.425 -1.4606  0.0118 -0.0286
  177SLPC   H8S20174   4.428   5.747   9.398  0.3703  1.2141 -1.5924
  177SLPC   C2920175   4.605   5.745   9.290  0.0980 -0.3977 -0.5144
  177SLPC   H9R20176   4.670   5.828   9.261 -2.5424  1.4687 -1.5329
  177SLPC  C21020177   4.600   5.634   9.212 -0.0941  0.0221 -0.2480
  177SLPC  H10R20178   4.660   5.641   9.120  0.8095 -0.2024  0.3109
  177SLPC  C21120179   4.508   5.506   9.226 -0.0660  0.1356 -0.4632
  177SLPC  H11R20180   4.441   5.522   9.313 -1.1280 -0.4119 -1.1696
  177SLPC  H11S20181   4.439   5.496   9.140 -0.4547 -0.8702 -0.0505
  177SLPC  C21220182   4.593   5.382   9.224 -0.7673 -0.6558 -0.0954
  177SLPC  H12R20183   4.674   5.381   9.150 -0.6069  0.2127  0.0516
  177SLPC  C21320184   4.577   5.277   9.304  0.6311 -0.3087  0.0712
  177SLPC  H13R20185   4.644   5.190   9.302 -0.0108 -0.8328 -2.8113
  177SLPC  C21420186   4.462   5.265   9.399 -0.6341 -0.7450  0.3610
  177SLPC  H14R20187   4.442   5.157   9.415 -1.3259 -1.1822 -2.6894
  177SLPC  H14S20188   4.374   5.324   9.366 -0.5420 -0.3092  0.8767
  177SLPC  C21520189   4.490   5.318   9.540 -1.1505 -0.4001 -0.6316
  177SLPC  H15R20190   4.518   5.425   9.533  2.0570 -1.1206 -0.5057
  177SLPC  H15S20191   4.584   5.268   9.574 -0.4690 -0.6290 -2.7313
  177SLPC  C21620192   4.371   5.291   9.635  0.2883 -0.3062 -0.2768
  177SLPC  H16R20193   4.369   5.183   9.662  0.8358 -0.1345  0.4988
  177SLPC  H16S20194   4.281   5.316   9.576 -0.4981 -0.5783  0.7938
  177SLPC  C21720195   4.379   5.378   9.753 -0.0992 -0.6517  0.1880
  177SLPC  H17R20196   4.276   5.369   9.795 -0.5213  0.8075 -0.4997
  177SLPC  H17S20197   4.388   5.484   9.721 -0.9487 -0.9273 -1.0206
  177SLPC  C21820198   4.482   5.344   9.866 -0.2935 -0.0341  0.4498
  177SLPC  H18R20199   4.585   5.368   9.830 -0.3963 -0.6373 -0.2636
  177SLPC  H18S20200   4.471   5.240   9.905 -0.5445  0.0800  0.6878
  177SLPC  H18T20201   4.472   5.411   9.953 -0.3849  1.3924 -0.6245
  177SLPC   C3320202   4.844   4.989  10.099 -0.0848 -0.0098 -0.0394
  177SLPC   H3X20203   4.789   4.898  10.066 -1.1344  0.1427  1.2198
  177SLPC   H3Y20204   4.904   4.949  10.183 -0.1160  0.7212  0.3361
  177SLPC   C3420205   4.940   5.031   9.978 -0.8411  0.6813 -0.0989
  177SLPC   H4X20206   5.018   5.100  10.017  1.8664 -0.8609 -2.4131
  177SLPC   H4Y20207   4.878   5.078   9.898 -0.2024  0.7434 -0.5654
  177SLPC   C3520208   5.026   4.907   9.921 -0.3125 -0.0298  0.3581
  177SLPC   H5X20209   4.950   4.835   9.884 -1.9103  2.3208 -1.1974
  177SLPC   H5Y20210   5.091   4.868  10.002 -0.0797 -0.0713  0.1522
  177SLPC   C3620211   5.111   4.939   9.796 -0.7196 -0.3270 -0.2509
  177SLPC   H6X20212   5.184   5.021   9.813  0.0516 -0.9029 -0.6980
  177SLPC   H6Y20213   5.043   4.968   9.713  0.4767  0.8715 -0.8407
  177SLPC   C3720214   5.197   4.814   9.763  0.0085  0.0173  0.0971
  177SLPC   H7X20215   5.134   4.724   9.744  0.5107 -1.2195  3.5850
  177SLPC   H7Y20216   5.254   4.804   9.858 -1.6017 -0.4659  1.0577
  177SLPC   C3820217   5.303   4.828   9.654 -0.1309 -0.0289  0.1502
  177SLPC   H8X20218   5.358   4.732   9.663  0.2604  0.2573  0.9143
  177SLPC   H8Y20219   5.360   4.920   9.678 -2.1187  1.0047  1.1378
  177SLPC   C3920220   5.245   4.843   9.515  0.2380  0.1907 -0.0937
  177SLPC   H9X20221   5.204   4.945   9.494  1.2391  0.8835  1.1808
  177SLPC   H9Y20222   5.161   4.772   9.500  0.0742 -0.3620  2.7760
  177SLPC  C31020223   5.347   4.816   9.399 -0.6737 -0.2238 -0.1356
  177SLPC  H10X20224   5.402   4.724   9.430 -0.6767 -0.9812 -2.2192
  177SLPC  H10Y20225   5.413   4.905   9.392 -2.4960  1.0658 -1.5881
  177SLPC  C31120226   5.282   4.800   9.263 -0.2952  0.3259  0.2089
  177SLPC  H11X20227   5.189   4.861   9.265  0.6121  1.8380 -1.1106
  177SLPC  H11Y20228   5.261   4.692   9.244  0.8259 -0.0046  0.7652
  177SLPC  C31220229   5.365   4.861   9.153  0.0979 -0.2362 -0.9430
  177SLPC  H12X20230   5.466   4.815   9.157 -0.8545 -2.3659  0.5999
  177SLPC  H12Y20231   5.394   4.963   9.187  0.1629  0.2211 -2.2907
  177SLPC  C31320232   5.295   4.882   9.019 -0.0254  0.4842  0.4508
  177SLPC  H13X20233   5.228   4.971   9.013  1.1360  1.3521 -0.1318
  177SLPC  H13Y20234   5.230   4.796   8.993  1.6787 -1.2382  1.6210
  177SLPC  C31420235   5.405   4.912   8.917 -0.0279 -0.8854 -0.3651
  177SLPC  H14X20236   5.481   4.831   8.914  0.9296 -0.0143 -0.3174
  177SLPC  H14Y20237   5.468   4.994   8.958 -1.0005 -1.0925  1.6957
  177SLPC  C31520238   5.339   4.953   8.787  0.1430  0.3168 -0.2568
  177SLPC  H15X20239   5.311   5.060   8.799  1.1892  0.5445  0.2913
  177SLPC  H15Y20240   5.248   4.892   8.768  1.0884 -0.4838 -2.6499
  177SLPC  C31620241   5.427   4.930   8.666 -0.1916 -0.6162  0.0138
  177SLPC  H16X20242   5.454   4.824   8.643 -2.3368 -1.1017 -0.5159
  177SLPC  H16Y20243   5.529   4.971   8.679 -0.1726 -0.7538  0.3113
  177SLPC  C31720244   5.355   4.980   8.536  0.8911 -0.2873  0.1103
  177SLPC  H17X20245   5.325   5.086   8.546 -1.6612 -1.0357  1.4359
  177SLPC  H17Y20246   5.264   4.917   8.530  1.2785 -0.9162  0.6578
  177SLPC  C31820247   5.431   4.961   8.399  0.0437  0.2042  0.0665
  177SLPC  H18X20248   5.473   4.858   8.397  1.4052  0.7371 -1.0402
  177SLPC  H18Y20249   5.524   5.022   8.399 -0.0569  0.3609  0.3793
  177SLPC  H18Z20250   5.372   4.998   8.313 -0.9803 -0.8322  0.2993
  178SLPC     N20251   5.149   0.288  11.434  0.0490  0.5648 -0.0808
  178SLPC   C1320252   5.088   0.203  11.327  0.6340  0.3667  0.4802
  178SLPC  H13A20253   5.042   0.116  11.371  0.2301 -0.7524 -2.0014
  178SLPC  H13B20254   5.015   0.261  11.272  0.9923 -0.4148 -0.8674
  178SLPC  H13C20255   5.163   0.171  11.256 -0.1094  0.5349 -0.4131
  178SLPC   C1420256   5.247   0.209  11.520 -0.2749  0.0090 -0.2092
  178SLPC  H14A20257   5.203   0.124  11.570  0.2848  0.5760  1.3081
  178SLPC  H14B20258   5.318   0.171  11.449  1.3143 -2.4933  2.4707
  178SLPC  H14C20259   5.295   0.269  11.596 -0.0770 -1.8385  1.1996
  178SLPC   C1520260   5.045   0.338  11.522  0.2283 -0.4633 -0.2898
  178SLPC  H15A20261   4.981   0.257  11.553  0.1014 -0.0781  0.4850
  178SLPC  H15B20262   5.081   0.382  11.614 -2.3531  1.2061  0.0113
  178SLPC  H15C20263   4.988   0.420  11.480  0.1709  1.4538  3.1401
  178SLPC   C1220264   5.228   0.404  11.369  0.1982  0.2207  0.0517
  178SLPC  H12A20265   5.249   0.484  11.438 -2.2707  1.7575 -0.8382
  178SLPC  H12B20266   5.151   0.449  11.309 -0.8308 -1.9560 -0.3802
  178SLPC   C1120267   5.347   0.377  11.273 -1.4737  0.7838  0.2565
  178SLPC  H11A20268   5.422   0.322  11.333  0.9357  0.3087 -2.9254
  178SLPC  H11B20269   5.389   0.476  11.245 -3.7079  2.2969  1.9177
  178SLPC     P20270   5.297   0.341  11.019  0.6084  0.0903  0.1351
  178SLPC   O1320271   5.228   0.240  10.942  0.7933 -0.0269  0.0432
  178SLPC   O1420272   5.237   0.475  11.026 -0.1979 -0.8872 -0.0443
  178SLPC   O1220273   5.311   0.293  11.166  0.0824 -0.1815 -0.3391
  178SLPC   O1120274   5.443   0.347  10.966  0.5677 -0.2799 -0.7593
  178SLPC    C120275   5.527   0.243  10.933 -0.3399  0.1342 -0.6614
  178SLPC    HA20276   5.612   0.229  11.002 -1.7213  0.4525  1.1825
  178SLPC    HB20277   5.480   0.144  10.914 -1.1394  0.3777  0.0158
  178SLPC    C220278   5.588   0.271  10.786  0.2577 -0.1235 -0.0772
  178SLPC    HS20279   5.621   0.377  10.789 -0.3073  0.1067 -1.4650
  178SLPC   O2120280   5.485   0.243  10.687  0.0684 -0.0241 -0.1121
  178SLPC   C2120281   5.422   0.338  10.634  0.3333 -0.7136 -0.0083
  178SLPC   O2220282   5.439   0.458  10.666 -0.3676 -0.0981  0.7354
  178SLPC   C2220283   5.336   0.289  10.521  0.4016 -1.0011 -0.2549
  178SLPC   H2R20284   5.401   0.230  10.453 -1.5016 -2.4112 -0.9415
  178SLPC   H2S20285   5.262   0.212  10.552  1.0264 -2.0947 -1.3947
  178SLPC    C320286   5.707   0.184  10.759 -0.5472 -0.2312  0.6248
  178SLPC    HX20287   5.670   0.080  10.759 -1.5708  0.1079 -0.4119
  178SLPC    HY20288   5.784   0.201  10.837 -0.9550  1.7565  0.6626
  178SLPC   O3120289   5.759   0.209  10.634  0.4295 -0.0138  0.1182
  178SLPC   C3120290   5.838   0.325  10.623  0.0399  0.3857  0.2360
  178SLPC   O3220291   5.888   0.380  10.720 -0.8413  0.2808  0.5520
  178SLPC   C3220292   5.864   0.368  10.481 -0.1779 -0.5820  0.1448
  178SLPC   H2X20293   5.918   0.283  10.435  0.0826  0.5076 -1.6641
  178SLPC   H2Y20294   5.919   0.464  10.477 -2.0670  0.5023 -2.2131
  178SLPC   C2320295   5.272   0.401  10.442  0.1977 -0.5501 -0.1010
  178SLPC   H3R20296   5.351   0.473  10.413  1.5245 -2.2633 -0.9063
  178SLPC   H3S20297   5.190   0.437  10.507  1.0506 -2.5834  2.2453
  178SLPC   C2420298   5.204   0.345  10.314 -0.3772 -0.1306  0.3025
  178SLPC   H4R20299   5.127   0.270  10.345  2.8412 -3.1629  1.6572
  178SLPC   H4S20300   5.267   0.286  10.244 -1.6735 -1.8221  0.4740
  178SLPC   C2520301   5.136   0.463  10.238  1.0940  0.4986  0.2849
  178SLPC   H5R20302   5.100   0.423  10.141  3.5185 -1.4241  0.0509
  178SLPC   H5S20303   5.217   0.531  10.205  0.8008 -0.3523 -2.4256
  178SLPC   C2620304   5.031   0.550  10.313 -0.0212 -1.0644 -0.2824
  178SLPC   H6R20305   5.086   0.636  10.357 -0.0296  0.2548 -2.6679
  178SLPC   H6S20306   4.981   0.500  10.399  1.5530  0.0154  1.3462
  178SLPC   C2720307   4.926   0.609  10.217  0.1804 -0.3888 -0.6322
  178SLPC   H7R20308   4.850   0.659  10.282  1.2050 -0.4986  0.6930
  178SLPC   H7S20309   4.868   0.527  10.169  0.5158  0.0136 -1.7531
  178SLPC   C2820310   4.986   0.708  10.111  0.0248 -0.3103 -0.0010
  178SLPC   H8R20311   5.054   0.646  10.049 -1.7627 -0.2768 -2.1304
  178SLPC   H8S20312   5.052   0.781  10.161 -2.2321  2.6493 -1.0749
  178SLPC   C2920313   4.875   0.780  10.034 -0.1997  0.3740  0.6381
  178SLPC   H9R20314   4.793   0.826  10.091  0.4247  0.8858  1.1391
  178SLPC  C21020315   4.875   0.807   9.901  0.0895 -0.4452 -0.8390
  178SLPC  H10R20316   4.792   0.872   9.869 -0.2731  0.7432  2.2347
  178SLPC  C21120317   4.979   0.766   9.800  0.3585 -0.1345  0.2632
  178SLPC  H11R20318   4.923   0.703   9.728 -0.5512  0.9350  0.0055
  178SLPC  H11S20319   5.070   0.711   9.833  0.0048 -1.2348 -0.5381
  178SLPC  C21220320   5.032   0.893   9.723  0.4357  0.2003  0.4447
  178SLPC  H12R20321   5.122   0.936   9.769  0.5017  1.3577 -0.7132
  178SLPC  C21320322   4.993   0.926   9.594  0.2786 -0.2686 -0.1217
  178SLPC  H13R20323   5.023   1.024   9.554  1.2003 -0.4959  0.0059
  178SLPC  C21420324   4.892   0.850   9.511  0.3225  0.5108 -0.4663
  178SLPC  H14R20325   4.843   0.928   9.449  1.4032  0.5364 -1.3139
  178SLPC  H14S20326   4.817   0.809   9.583  2.6253 -1.0078  1.2040
  178SLPC  C21520327   4.926   0.725   9.421 -0.2024  0.0139  0.1983
  178SLPC  H15R20328   4.845   0.651   9.434  0.6531 -0.7398  1.4602
  178SLPC  H15S20329   5.012   0.675   9.471 -1.0941 -1.2245  0.5460
  178SLPC  C21620330   4.953   0.764   9.274  0.2005  0.4837  0.1534
  178SLPC  H16R20331   5.022   0.850   9.261 -0.1109  0.5221 -1.3996
  178SLPC  H16S20332   4.859   0.798   9.225  1.2555  1.6071 -1.1631
  178SLPC  C21720333   5.013   0.640   9.204  0.5949 -0.1698 -0.3468
  178SLPC  H17R20334   4.942   0.558   9.224 -1.5947  1.0510 -2.4803
  178SLPC  H17S20335   5.109   0.629   9.259 -1.5230 -2.0798  3.3166
  178SLPC  C21820336   5.030   0.655   9.053 -0.8151  0.5315  0.8597
  178SLPC  H18R20337   4.931   0.698   9.028 -0.3307  0.7873 -0.6804
  178SLPC  H18S20338   5.047   0.562   8.995 -3.0336  0.6758 -0.1247
  178SLPC  H18T20339   5.114   0.721   9.025  0.4769 -1.0981  0.7545
  178SLPC   C3320340   5.727   0.392  10.419  0.1468 -0.0622 -0.0961
  178SLPC   H3X20341   5.676   0.482  10.459 -0.8741  0.3283 -2.1484
  178SLPC   H3Y20342   5.662   0.304  10.436 -0.7154  0.5268 -0.2726
  178SLPC   C3420343   5.722   0.399  10.266 -0.6260  0.3757  0.0038
  178SLPC   H4X20344   5.748   0.299  10.224 -0.4412  0.0515  0.8620
  178SLPC   H4Y20345   5.799   0.474  10.237 -2.7964  3.4681  1.6375
  178SLPC   C3520346   5.586   0.441  10.209  0.5677  0.1640  0.6100
  178SLPC   H5X20347   5.576   0.546  10.245  0.7205  0.1532  0.6842
  178SLPC   H5Y20348   5.515   0.369  10.255  0.9852 -0.1409  0.7849
  178SLPC   C3620349   5.574   0.420  10.061  0.1126  0.3628 -0.1942
  178SLPC   H6X20350   5.578   0.311  10.042  3.3113  0.0947  1.3554
  178SLPC   H6Y20351   5.658   0.467  10.005 -1.2053 -1.3207 -3.8400
  178SLPC   C3720352   5.452   0.491   9.999  0.2164  0.1428  0.5100
  178SLPC   H7X20353   5.436   0.593  10.041 -1.1162  0.4110 -0.5928
  178SLPC   H7Y20354   5.354   0.450  10.031  0.8881 -1.4828  0.5780
  178SLPC   C3820355   5.455   0.504   9.849  0.4869 -0.0344 -0.5165
  178SLPC   H8X20356   5.482   0.415   9.787  1.2763  0.2043 -0.5350
  178SLPC   H8Y20357   5.532   0.584   9.838  0.5144  0.0369  0.1968
  178SLPC   C3920358   5.317   0.556   9.801 -0.6580  0.8371 -0.4623
  178SLPC   H9X20359   5.285   0.643   9.863  1.2561 -0.7265  3.0512
  178SLPC   H9Y20360   5.235   0.483   9.817 -1.7831  2.2712  0.6056
  178SLPC  C31020361   5.310   0.603   9.658  0.4736  0.0713 -0.3443
  178SLPC  H10X20362   5.211   0.643   9.626  0.6199 -0.9418 -2.1781
  178SLPC  H10Y20363   5.310   0.512   9.594 -0.5883  0.5461 -1.0579
  178SLPC  C31120364   5.414   0.701   9.603 -0.5173 -0.3377  0.1077
  178SLPC  H11X20365   5.499   0.635   9.575 -0.0672 -0.4367  1.5922
  178SLPC  H11Y20366   5.458   0.766   9.682  0.8016 -0.5640 -0.4161
  178SLPC  C31220367   5.368   0.769   9.477 -0.0638  0.6972  0.4983
  178SLPC  H12X20368   5.308   0.859   9.499 -1.3739  0.1922 -0.8537
  178SLPC  H12Y20369   5.308   0.707   9.407 -1.3896  2.6677 -0.1901
  178SLPC  C31320370   5.486   0.818   9.389 -0.4653  0.2302 -0.2936
  178SLPC  H13X20371   5.562   0.737   9.380 -0.7426  0.0082 -0.6837
  178SLPC  H13Y20372   5.537   0.893   9.453  0.3516 -0.7432  0.2313
  178SLPC  C31420373   5.447   0.872   9.242 -1.1560  0.1026 -0.3163
  178SLPC  H14X20374   5.422   0.782   9.182  0.3663 -0.0671 -0.7502
  178SLPC  H14Y20375   5.534   0.930   9.203 -0.2109  2.2646  4.3233
  178SLPC  C31520376   5.325   0.964   9.231 -0.8444 -0.1858 -0.0005
  178SLPC  H15X20377   5.237   0.951   9.298  0.1978  0.6417  1.5883
  178SLPC  H15Y20378   5.360   1.061   9.271  1.2254 -1.8834  2.6283
  178SLPC  C31620379   5.272   0.978   9.087  0.4822  0.1509  0.1942
  178SLPC  H16X20380   5.225   0.881   9.058  1.4273 -0.0831 -0.6378
  178SLPC  H16Y20381   5.358   0.979   9.016  0.3686  0.0057  0.0533
  178SLPC  C31720382   5.190   1.099   9.052  1.0855  0.1007 -0.1138
  178SLPC  H17X20383   5.143   1.092   8.951 -0.9395 -0.6012  0.8382
  178SLPC  H17Y20384   5.262   1.184   9.042  0.0116  1.0547  0.0614
  178SLPC  C31820385   5.071   1.133   9.153 -0.1343 -0.3692 -0.2529
  178SLPC  H18X20386   5.104   1.151   9.258 -0.3959 -1.4050  0.0288
  178SLPC  H18Y20387   4.999   1.050   9.171 -1.4902  1.5932  5.6276
  178SLPC  H18Z20388   5.016   1.222   9.115 -1.7384 -1.7368 -1.2966
  179SLPC     N20389   0.751   4.459  10.583 -0.5319 -0.3415 -0.0194
  179SLPC   C1320390   0.786   4.513  10.717  0.2453 -0.0655 -0.3752
  179SLPC  H13A20391   0.701   4.547  10.775  0.1633 -1.2040  0.2103
  179SLPC  H13B20392   0.839   4.438  10.774 -1.0649  0.2885  1.3765
  179SLPC  H13C20393   0.850   4.600  10.718  0.0351  0.0834  0.1573
  179SLPC   C1420394   0.682   4.326  10.601  0.3061  0.3842  0.3583
  179SLPC  H14A20395   0.722   4.268  10.683  0.2102  0.7120  0.6406
  179SLPC  H14B20396   0.577   4.333  10.626  0.1298  1.6725 -0.6416
  179SLPC  H14C20397   0.684   4.277  10.505  1.9626  1.5456 -0.2467
  179SLPC   C1520398   0.879   4.447  10.498 -0.5494  0.5281 -0.5259
  179SLPC  H15A20399   0.865   4.402  10.401  1.7324 -0.1750 -0.5938
  179SLPC  H15B20400   0.932   4.540  10.483 -0.4296  0.4291 -0.7195
  179SLPC  H15C20401   0.951   4.387  10.552 -1.0993  0.9148  0.6620
  179SLPC   C1220402   0.661   4.551  10.508 -0.1150 -0.6326  0.2716
  179SLPC  H12A20403   0.719   4.643  10.507  1.0788 -1.3529  0.6479
  179SLPC  H12B20404   0.565   4.557  10.556 -1.6014 -3.3435 -2.0545
  179SLPC   C1120405   0.623   4.513  10.354 -0.3924 -0.0304  0.0702
  179SLPC  H11A20406   0.714   4.497  10.292 -0.0777 -0.1036  0.5484
  179SLPC  H11B20407   0.577   4.608  10.319 -1.5889 -0.0258  1.5697
  179SLPC     P20408   0.380   4.418  10.380 -0.2152 -0.0212 -0.3303
  179SLPC   O1320409   0.338   4.282  10.414 -0.4030  0.3128 -0.3134
  179SLPC   O1420410   0.357   4.524  10.480  0.0781  0.5565 -0.3051
  179SLPC   O1220411   0.530   4.405  10.342 -0.1352 -0.0790  0.5717
  179SLPC   O1120412   0.313   4.465  10.244 -0.0761  0.1612  1.0005
  179SLPC    C120413   0.286   4.352  10.152  0.2795  0.0387 -0.4531
  179SLPC    HA20414   0.358   4.268  10.162 -1.9159 -2.0936 -1.5022
  179SLPC    HB20415   0.183   4.320  10.178  0.6325 -0.9531 -0.1966
  179SLPC    C220416   0.275   4.402  10.002  0.6319 -0.7412 -0.7315
  179SLPC    HS20417   0.243   4.312   9.945  0.2572 -1.5773  0.7147
  179SLPC   O2120418   0.412   4.438   9.952  0.3049 -0.1934 -0.2864
  179SLPC   C2120419   0.486   4.329   9.920 -0.3438  0.2672  0.2193
  179SLPC   O2220420   0.454   4.212   9.927  0.4637 -0.6812 -0.2142
  179SLPC   C2220421   0.622   4.377   9.873 -0.4328  1.0928 -0.0021
  179SLPC   H2R20422   0.604   4.464   9.805 -0.5108  1.5953  0.6485
  179SLPC   H2S20423   0.678   4.425   9.957 -1.1140  0.5609  0.7670
  179SLPC    C320424   0.186   4.526   9.989  0.3493 -0.0034 -0.0924
  179SLPC    HX20425   0.233   4.598  10.060  2.2684 -1.5620  0.3076
  179SLPC    HY20426   0.080   4.501  10.009  0.3782  1.1376  1.8148
  179SLPC   O3120427   0.200   4.575   9.854 -0.3854  0.3049  0.2718
  179SLPC   C3120428   0.144   4.502   9.747 -0.1248 -0.3117 -0.0092
  179SLPC   O3220429   0.055   4.420   9.757  0.5332  0.5477  0.5523
  179SLPC   C3220430   0.199   4.564   9.615 -0.1334 -0.5045  0.1099
  179SLPC   H2X20431   0.290   4.625   9.635 -0.7863  1.2617 -1.8894
  179SLPC   H2Y20432   0.109   4.622   9.584  0.1530 -1.0383 -1.8915
  179SLPC   C2320433   0.708   4.265   9.801  0.2168 -0.0791 -0.2857
  179SLPC   H3R20434   0.646   4.190   9.748  0.4393 -0.2680 -0.2811
  179SLPC   H3S20435   0.758   4.211   9.885 -0.8647  0.9954  1.0972
  179SLPC   C2420436   0.810   4.334   9.707 -0.1830  0.4988 -0.2208
  179SLPC   H4R20437   0.871   4.407   9.764  0.7666 -0.2531 -0.2648
  179SLPC   H4S20438   0.762   4.396   9.628 -2.9402 -0.7264  0.3546
  179SLPC   C2520439   0.902   4.229   9.635 -0.6789  0.3784 -0.1487
  179SLPC   H5R20440   0.910   4.135   9.694  0.0795  0.0222 -0.7990
  179SLPC   H5S20441   1.004   4.271   9.623 -0.2200 -0.8670 -0.8896
  179SLPC   C2620442   0.859   4.184   9.494  0.2428  0.1612 -0.4614
  179SLPC   H6R20443   0.749   4.172   9.491  0.2830 -1.7010  2.3901
  179SLPC   H6S20444   0.913   4.089   9.476 -0.8341 -0.9674  1.8338
  179SLPC   C2720445   0.902   4.300   9.401 -0.4490  0.3649  0.1162
  179SLPC   H7R20446   1.013   4.314   9.397 -0.3629 -0.5531 -1.2597
  179SLPC   H7S20447   0.857   4.391   9.446 -0.1878  0.1086  0.9226
  179SLPC   C2820448   0.869   4.275   9.255 -0.1105  0.0880 -0.3601
  179SLPC   H8R20449   0.920   4.183   9.219  0.6126 -0.1583  1.2329
  179SLPC   H8S20450   0.923   4.360   9.207  2.2397  0.1421  2.1111
  179SLPC   C2920451   0.723   4.278   9.224 -0.2029  0.1684 -0.8981
  179SLPC   H9R20452   0.654   4.287   9.309 -1.6033 -2.4251 -1.6618
  179SLPC  C21020453   0.671   4.283   9.099 -0.3635 -0.7442 -0.4426
  179SLPC  H10R20454   0.562   4.287   9.085 -0.4122 -0.5901 -0.0364
  179SLPC  C21120455   0.749   4.280   8.973  0.2916 -0.5377  0.2885
  179SLPC  H11R20456   0.724   4.191   8.911 -0.1548  0.3295 -0.8099
  179SLPC  H11S20457   0.857   4.275   8.996  0.5685  0.9421 -0.5225
  179SLPC  C21220458   0.735   4.417   8.903  1.2271 -0.1161  0.5964
  179SLPC  H12R20459   0.767   4.499   8.970  1.2448 -0.2329  0.7289
  179SLPC  C21320460   0.706   4.434   8.772 -0.9031  0.8096 -0.3960
  179SLPC  H13R20461   0.710   4.533   8.723  1.2383  0.2763 -1.3958
  179SLPC  C21420462   0.674   4.327   8.672  0.2521 -0.1255  0.4519
  179SLPC  H14R20463   0.693   4.221   8.700  0.8631 -0.2939 -0.5567
  179SLPC  H14S20464   0.728   4.350   8.578  0.7901 -1.3727  0.4333
  179SLPC  C21520465   0.521   4.324   8.622 -0.3907 -0.0899  0.1719
  179SLPC  H15R20466   0.522   4.258   8.533 -0.9757  1.3211 -0.9113
  179SLPC  H15S20467   0.501   4.424   8.579  1.4577  0.5445  0.6644
  179SLPC  C21620468   0.417   4.280   8.728  0.6037  0.2294 -0.4905
  179SLPC  H16R20469   0.419   4.333   8.826 -1.2495  0.7878 -0.7099
  179SLPC  H16S20470   0.455   4.180   8.758 -0.3089  0.1783  0.5521
  179SLPC  C21720471   0.272   4.275   8.682  0.0303 -0.2457 -0.3667
  179SLPC  H17R20472   0.230   4.377   8.663 -0.4728 -0.0808  1.4927
  179SLPC  H17S20473   0.222   4.233   8.771  0.8184  0.1301  0.2603
  179SLPC  C21820474   0.238   4.196   8.548  0.2702  0.3851 -0.1029
  179SLPC  H18R20475   0.255   4.087   8.560  1.9091  0.7661  1.4613
  179SLPC  H18S20476   0.288   4.227   8.454 -0.6478  0.1786 -0.6787
  179SLPC  H18T20477   0.131   4.209   8.521  0.8346 -0.4217 -3.0640
  179SLPC   C3320478   0.214   4.453   9.509  0.2531 -0.6791 -0.9733
  179SLPC   H3X20479   0.125   4.388   9.513  0.0362 -0.4062  2.7778
  179SLPC   H3Y20480   0.306   4.395   9.531  0.3569 -0.4066 -0.6752
  179SLPC   C3420481   0.235   4.523   9.371 -0.0726  1.1127  0.2551
  179SLPC   H4X20482   0.322   4.592   9.372 -0.1376  1.1925  0.5274
  179SLPC   H4Y20483   0.149   4.590   9.352 -0.3800  0.9754  1.0835
  179SLPC   C3520484   0.260   4.427   9.252  0.2328  0.3887 -0.2666
  179SLPC   H5X20485   0.180   4.350   9.250 -2.0788  2.6822 -2.0629
  179SLPC   H5Y20486   0.358   4.380   9.273  2.3251  2.9854 -3.2177
  179SLPC   C3620487   0.278   4.483   9.116 -0.1216 -0.3438 -0.2959
  179SLPC   H6X20488   0.173   4.511   9.092 -0.4970 -1.5996 -0.1493
  179SLPC   H6Y20489   0.304   4.398   9.050  0.1825  0.7641 -1.6726
  179SLPC   C3720490   0.363   4.618   9.099  0.6576  0.1114 -0.0800
  179SLPC   H7X20491   0.446   4.609   9.172 -1.4091  1.9575  2.7109
  179SLPC   H7Y20492   0.295   4.700   9.130 -1.4321 -1.4437 -0.3025
  179SLPC   C3820493   0.402   4.649   8.956 -0.2614 -0.2668  0.8885
  179SLPC   H8X20494   0.437   4.557   8.904  0.9631  0.3416  0.6271
  179SLPC   H8Y20495   0.487   4.719   8.961 -0.2443 -0.3008  1.0812
  179SLPC   C3920496   0.275   4.708   8.878 -0.3416  0.5268  1.2549
  179SLPC   H9X20497   0.238   4.801   8.926  0.1440  0.8362  1.0388
  179SLPC   H9Y20498   0.193   4.635   8.860 -0.8510  1.5768 -1.0695
  179SLPC  C31020499   0.319   4.753   8.743 -0.0535 -0.1657 -0.2371
  179SLPC  H10X20500   0.225   4.782   8.692 -0.6388 -1.0063  0.3399
  179SLPC  H10Y20501   0.367   4.667   8.692 -2.4420 -1.4848 -0.3696
  179SLPC  C31120502   0.412   4.872   8.730 -0.3876 -0.8405  0.3135
  179SLPC  H11X20503   0.516   4.834   8.741  0.6653  1.7898  0.1416
  179SLPC  H11Y20504   0.396   4.949   8.809  0.5674  0.1728 -0.4452
  179SLPC  C31220505   0.387   4.954   8.601  0.3973 -0.8558 -1.0525
  179SLPC  H12X20506   0.462   5.035   8.597  1.1673 -1.5366 -0.8097
  179SLPC  H12Y20507   0.290   5.001   8.625  1.5988  1.6775 -0.7940
  179SLPC  C31320508   0.391   4.893   8.463  0.2607  0.1810 -0.4137
  179SLPC  H13X20509   0.339   4.794   8.458  1.0182 -0.2380 -0.0797
  179SLPC  H13Y20510   0.495   4.855   8.456 -0.4556 -2.1801  0.6467
  179SLPC  C31420511   0.347   4.981   8.347  0.2533 -0.0135  0.0676
  179SLPC  H14X20512   0.406   5.075   8.337 -0.7447  0.3946 -2.9871
  179SLPC  H14Y20513   0.239   5.007   8.346 -0.1089 -1.4245  0.6564
  179SLPC  C31520514   0.369   4.918   8.202  0.7466 -0.0672  0.0752
  179SLPC  H15X20515   0.291   4.964   8.138  1.1367 -0.3946 -0.6430
  179SLPC  H15Y20516   0.334   4.813   8.198 -0.9899  0.4735  0.1316
  179SLPC  C31620517   0.510   4.930   8.141  0.6127 -0.5142 -0.6812
  179SLPC  H16X20518   0.587   4.906   8.217 -1.3641  0.7738  1.9096
  179SLPC  H16Y20519   0.519   5.040   8.123  0.5207 -0.1322  1.3314
  179SLPC  C31720520   0.512   4.846   8.013  0.1224 -0.5051 -0.1578
  179SLPC  H17X20521   0.450   4.896   7.936 -1.1250 -0.0324  1.1090
  179SLPC  H17Y20522   0.479   4.744   8.044  0.8933 -0.1463  2.0671
  179SLPC  C31820523   0.646   4.824   7.957 -0.4083 -0.0468  0.0703
  179SLPC  H18X20524   0.654   4.734   7.892 -1.5378 -0.9617  1.1512
  179SLPC  H18Y20525   0.728   4.820   8.032 -2.3387  0.5216  2.3111
  179SLPC  H18Z20526   0.665   4.919   7.902 -3.6710  0.3325 -0.5570
  180SLPC     N20527   0.326   2.230  10.579  0.1545  0.1712 -0.0137
  180SLPC   C1320528   0.366   2.189  10.435 -0.0431 -0.1314 -0.6979
  180SLPC  H13A20529   0.316   2.251  10.362  1.6658  0.2033 -1.6418
  180SLPC  H13B20530   0.472   2.208  10.422 -0.7592  2.6549 -4.4280
  180SLPC  H13C20531   0.336   2.089  10.408  2.3041 -1.7911  2.2150
  180SLPC   C1420532   0.381   2.369  10.595 -0.4812 -0.4484 -0.5595
  180SLPC  H14A20533   0.337   2.422  10.678 -2.7955 -0.9658 -1.3984
  180SLPC  H14B20534   0.489   2.365  10.606 -0.5937  1.1548  1.7977
  180SLPC  H14C20535   0.362   2.427  10.505  0.3312  1.8193  0.6353
  180SLPC   C1520536   0.393   2.141  10.674  0.9688 -0.8584  0.2988
  180SLPC  H15A20537   0.403   2.194  10.768 -1.1890  2.6740 -1.2717
  180SLPC  H15B20538   0.337   2.051  10.693 -0.6721  0.1102  0.1922
  180SLPC  H15C20539   0.493   2.109  10.648  0.8242 -1.2681  0.2322
  180SLPC   C1220540   0.172   2.229  10.594  0.1647  0.5783  0.4324
  180SLPC  H12A20541   0.148   2.125  10.575  0.2320  0.7750 -0.7935
  180SLPC  H12B20542   0.127   2.288  10.517  1.2980  0.0210 -0.6863
  180SLPC   C1120543   0.104   2.263  10.728  0.0442  0.3573  0.0970
  180SLPC  H11A20544   0.141   2.188  10.801 -0.3353 -0.9002 -0.9472
  180SLPC  H11B20545  -0.002   2.229  10.725  0.5380 -1.2337 -0.9384
  180SLPC     P20546   0.058   2.527  10.722 -0.1244 -0.0659 -0.1201
  180SLPC   O1320547   0.018   2.600  10.848  0.2110 -0.2493  0.0616
  180SLPC   O1420548   0.158   2.597  10.634  0.2237  0.2914  0.3728
  180SLPC   O1220549   0.129   2.399  10.779  0.3047  0.1771  0.1396
  180SLPC   O1120550  -0.073   2.478  10.651  0.5937  0.0227  0.1685
  180SLPC    C120551  -0.154   2.578  10.575  0.9094 -0.1816  0.1842
  180SLPC    HA20552  -0.263   2.560  10.589  1.2528 -3.5852 -0.5362
  180SLPC    HB20553  -0.150   2.681  10.617 -0.8209  1.1321 -2.5316
  180SLPC    C220554  -0.130   2.573  10.430 -0.2375  0.8464  0.4729
  180SLPC    HS20555  -0.020   2.569  10.413 -0.2188 -1.7718  0.7446
  180SLPC   O2120556  -0.196   2.685  10.370 -0.3846  0.1700  0.4246
  180SLPC   C2120557  -0.139   2.735  10.258  0.2328  0.0802  0.5929
  180SLPC   O2220558  -0.029   2.702  10.215 -0.2638 -0.5285 -0.3402
  180SLPC   C2220559  -0.221   2.858  10.213  0.1554  0.0023 -0.2513
  180SLPC   H2R20560  -0.329   2.834  10.225 -0.2977  1.6478 -0.8023
  180SLPC   H2S20561  -0.188   2.939  10.281  0.3750  0.6731 -1.1308
  180SLPC    C320562  -0.180   2.445  10.368 -0.3920 -0.2827  0.0387
  180SLPC    HX20563  -0.291   2.437  10.359 -0.3790 -0.0928 -0.3092
  180SLPC    HY20564  -0.160   2.355  10.431 -0.0538 -1.0631 -1.1494
  180SLPC   O3120565  -0.141   2.426  10.229 -0.1453  0.0452  0.4602
  180SLPC   C3120566  -0.015   2.370  10.214 -0.2889  0.3771  0.1808
  180SLPC   O3220567   0.059   2.335  10.304  0.3250  0.0812 -0.6997
  180SLPC   C3220568   0.003   2.342  10.061 -0.2658  0.7667 -0.0738
  180SLPC   H2X20569  -0.026   2.436  10.009 -0.4969 -0.3157 -1.9836
  180SLPC   H2Y20570  -0.074   2.270  10.025  0.7407 -0.0626 -0.6278
  180SLPC   C2320571  -0.191   2.898  10.066 -0.1712  0.1036  0.0810
  180SLPC   H3R20572  -0.219   2.807  10.009 -0.0614  0.5316 -0.6793
  180SLPC   H3S20573  -0.081   2.908  10.053 -0.2323  1.1429  0.2413
  180SLPC   C2420574  -0.275   3.023  10.018 -0.7949  0.2836  0.0921
  180SLPC   H4R20575  -0.215   3.109  10.054 -0.8350 -0.9652  3.5994
  180SLPC   H4S20576  -0.371   3.040  10.072 -0.8780 -0.5217  0.2132
  180SLPC   C2520577  -0.295   3.015   9.863  0.3404 -0.0994 -0.9490
  180SLPC   H5R20578  -0.334   2.914   9.839  2.0380 -1.2112  0.6614
  180SLPC   H5S20579  -0.189   3.016   9.831  2.2568  2.1974  4.2746
  180SLPC   C2620580  -0.381   3.134   9.808  0.9361 -0.4456  0.3851
  180SLPC   H6R20581  -0.344   3.232   9.845 -1.9984  2.4773 -3.6735
  180SLPC   H6S20582  -0.485   3.112   9.840  0.2574 -0.8584 -1.9601
  180SLPC   C2720583  -0.366   3.142   9.658  0.5930 -0.0700 -0.2584
  180SLPC   H7R20584  -0.259   3.169   9.646  0.8556 -1.0022 -0.0883
  180SLPC   H7S20585  -0.434   3.222   9.622  0.2528 -0.6863 -1.0160
  180SLPC   C2820586  -0.416   3.027   9.572 -0.4438  0.1319 -0.5070
  180SLPC   H8R20587  -0.525   3.024   9.591 -0.1783  2.5201  2.1036
  180SLPC   H8S20588  -0.366   2.932   9.603  0.0454  1.2724  2.5439
  180SLPC   C2920589  -0.386   3.057   9.427 -0.4814 -0.7982 -0.1098
  180SLPC   H9R20590  -0.479   3.090   9.378 -0.2770 -0.0813 -0.0269
  180SLPC  C21020591  -0.272   3.047   9.357  0.2873 -0.7324  0.0929
  180SLPC  H10R20592  -0.279   3.081   9.253  1.5932 -0.4202  0.0816
  180SLPC  C21120593  -0.134   3.001   9.413 -0.7219 -0.1133 -0.4704
  180SLPC  H11R20594  -0.149   2.913   9.480 -2.8245  0.1154 -0.5831
  180SLPC  H11S20595  -0.103   3.076   9.489  1.8189  0.0765 -1.5949
  180SLPC  C21220596  -0.017   2.993   9.320  0.5307 -0.3948  0.0131
  180SLPC  H12R20597   0.061   3.069   9.334  0.2401  0.2715 -1.7302
  180SLPC  C21320598   0.001   2.893   9.239 -0.2127 -0.2235  0.4836
  180SLPC  H13R20599   0.086   2.900   9.170 -1.3144 -0.0419 -0.8995
  180SLPC  C21420600  -0.085   2.767   9.223 -0.3478  0.7141  0.5001
  180SLPC  H14R20601  -0.151   2.791   9.138  0.1548  1.8738  0.4142
  180SLPC  H14S20602  -0.139   2.757   9.319 -1.0940 -2.1664 -0.1307
  180SLPC  C21520603  -0.016   2.627   9.197 -0.0685 -0.4033 -0.1377
  180SLPC  H15R20604   0.069   2.606   9.265  1.5842 -1.9822 -2.5708
  180SLPC  H15S20605   0.028   2.622   9.095 -3.8835  1.3948 -2.0941
  180SLPC  C21620606  -0.126   2.514   9.198  0.9838  0.4346  0.3826
  180SLPC  H16R20607  -0.071   2.418   9.189 -0.4769 -0.3051 -0.9802
  180SLPC  H16S20608  -0.193   2.512   9.110  1.6676 -3.3878 -0.2351
  180SLPC  C21720609  -0.209   2.512   9.333  0.2581  0.0834 -0.4021
  180SLPC  H17R20610  -0.272   2.603   9.346  1.7867  1.3457 -1.4254
  180SLPC  H17S20611  -0.137   2.513   9.418 -0.2792 -0.1381  0.0635
  180SLPC  C21820612  -0.294   2.384   9.349 -0.0853  0.4910 -0.2865
  180SLPC  H18R20613  -0.345   2.384   9.250  1.5133 -0.8457 -1.1556
  180SLPC  H18S20614  -0.373   2.396   9.426 -0.4110  1.6946 -0.7861
  180SLPC  H18T20615  -0.228   2.295   9.358 -0.9659 -0.3196 -1.5217
  180SLPC   C3320616   0.142   2.292  10.010 -0.2735 -0.3857 -0.3675
  180SLPC   H3X20617   0.163   2.193  10.057 -0.7134  0.0831  0.8563
  180SLPC   H3Y20618   0.230   2.351  10.042  0.3943 -0.7800 -1.4345
  180SLPC   C3420619   0.152   2.278   9.855  0.5375  0.6829 -0.5177
  180SLPC   H4X20620   0.135   2.381   9.818 -0.5364  0.4330 -0.7578
  180SLPC   H4Y20621   0.062   2.216   9.835  1.5329 -1.6413  1.6490
  180SLPC   C3520622   0.282   2.222   9.809 -0.4203 -0.5097 -0.2598
  180SLPC   H5X20623   0.327   2.141   9.871  0.2030  0.0243 -0.0017
  180SLPC   H5Y20624   0.363   2.296   9.792 -0.8066 -0.4973 -2.2762
  180SLPC   C3620625   0.275   2.155   9.671 -0.1012  0.0787 -0.3673
  180SLPC   H6X20626   0.178   2.100   9.672 -1.2386  1.9839 -0.9521
  180SLPC   H6Y20627   0.359   2.085   9.655  1.4013  1.8688 -0.6959
  180SLPC   C3720628   0.281   2.254   9.555  0.2698  0.0991  0.4232
  180SLPC   H7X20629   0.369   2.322   9.558 -2.3705  3.7818  0.8022
  180SLPC   H7Y20630   0.193   2.316   9.581 -0.0919 -0.1462 -0.2027
  180SLPC   C3820631   0.270   2.199   9.412  0.2683  0.0136 -0.2076
  180SLPC   H8X20632   0.194   2.121   9.432 -0.8942  1.5200  1.5498
  180SLPC   H8Y20633   0.364   2.149   9.378  0.9856 -0.6296  2.4609
  180SLPC   C3920634   0.226   2.304   9.318 -0.7806  0.2769  0.3417
  180SLPC   H9X20635   0.311   2.375   9.309 -1.3111  1.1435  1.8290
  180SLPC   H9Y20636   0.145   2.361   9.367 -2.4594 -1.7178  0.0360
  180SLPC  C31020637   0.198   2.240   9.181 -0.8507 -0.1731 -0.2497
  180SLPC  H10X20638   0.292   2.210   9.129 -1.3627  0.1680 -1.4206
  180SLPC  H10Y20639   0.158   2.321   9.116  0.6946  0.3530 -0.5808
  180SLPC  C31120640   0.106   2.116   9.173 -0.5356  0.3311 -0.8818
  180SLPC  H11X20641   0.021   2.144   9.240  0.2058  0.7475 -0.0892
  180SLPC  H11Y20642   0.156   2.023   9.208  2.4876  2.3138  0.4721
  180SLPC  C31220643   0.056   2.091   9.026  0.1629  0.0264 -0.2459
  180SLPC  H12X20644   0.026   1.984   9.021  1.4326 -0.4283  1.1418
  180SLPC  H12Y20645   0.149   2.109   8.967 -0.0158 -1.3144 -0.9899
  180SLPC  C31320646  -0.058   2.185   8.983  0.1741 -0.0759  0.0569
  180SLPC  H13X20647  -0.008   2.285   8.986 -1.9353  1.0467  2.5648
  180SLPC  H13Y20648  -0.133   2.175   9.065  0.5111 -2.9728  0.1035
  180SLPC  C31420649  -0.117   2.160   8.842  0.2550  0.7398 -0.0464
  180SLPC  H14X20650  -0.207   2.096   8.853  1.6765 -1.4684 -0.6225
  180SLPC  H14Y20651  -0.041   2.110   8.778  0.5353  1.2909 -0.1476
  180SLPC  C31520652  -0.178   2.288   8.766 -0.3601 -0.2807  0.0890
  180SLPC  H15X20653  -0.210   2.262   8.663  0.5195 -0.6282 -0.1014
  180SLPC  H15Y20654  -0.097   2.361   8.743 -0.9724  0.4701  0.2579
  180SLPC  C31620655  -0.291   2.367   8.838 -0.4093 -0.0564  0.5034
  180SLPC  H16X20656  -0.281   2.477   8.825  1.0240 -0.0278  1.5442
  180SLPC  H16Y20657  -0.275   2.343   8.946 -0.1337 -1.3927  0.1779
  180SLPC  C31720658  -0.425   2.319   8.795  0.3086  0.5521  0.4129
  180SLPC  H17X20659  -0.501   2.362   8.864 -0.3780 -0.3812  0.2654
  180SLPC  H17Y20660  -0.432   2.208   8.793  4.2078  0.1160  1.6837
  180SLPC  C31820661  -0.464   2.366   8.652 -0.2559 -0.6657  0.3628
  180SLPC  H18X20662  -0.393   2.328   8.575  0.7472  0.1207  0.8845
  180SLPC  H18Y20663  -0.457   2.477   8.653 -1.6503 -0.5652  1.1203
  180SLPC  H18Z20664  -0.568   2.344   8.618  1.2207 -0.1099 -5.6229
  181SLPC     N20665   5.027   0.740  10.839  0.0248 -0.0124  0.1397
  181SLPC   C1320666   5.083   0.633  10.747  0.3377  0.2509 -0.3065
  181SLPC  H13A20667   5.172   0.590  10.790  1.7593  2.1819 -1.1689
  181SLPC  H13B20668   5.011   0.557  10.722 -0.5224  1.0890 -0.4604
  181SLPC  H13C20669   5.135   0.678  10.664  0.7176  0.7749  0.1969
  181SLPC   C1420670   5.148   0.830  10.866  0.4088 -0.4592  0.5554
  181SLPC  H14A20671   5.179   0.878  10.774 -2.1233 -0.0513 -0.1649
  181SLPC  H14B20672   5.130   0.898  10.948 -0.5390  0.9323 -0.7507
  181SLPC  H14C20673   5.230   0.767  10.896 -0.0092 -2.5089 -2.2017
  181SLPC   C1520674   4.989   0.688  10.972 -0.4541 -0.1526 -0.2338
  181SLPC  H15A20675   5.072   0.631  11.012  1.9047  4.0052  1.3965
  181SLPC  H15B20676   4.963   0.762  11.046 -0.1234 -1.4640  1.2440
  181SLPC  H15C20677   4.895   0.634  10.978 -0.1048 -0.7059  0.4881
  181SLPC   C1220678   4.913   0.814  10.780  0.4809  0.1804  0.1463
  181SLPC  H12A20679   4.831   0.752  10.747 -0.5012  2.6488 -2.5102
  181SLPC  H12B20680   4.942   0.861  10.687 -3.0447  0.0818 -1.1265
  181SLPC   C1120681   4.837   0.913  10.866  0.4471  0.1269 -0.4283
  181SLPC  H11A20682   4.781   0.984  10.802  0.8816  2.3586  1.5369
  181SLPC  H11B20683   4.913   0.966  10.927  1.0984 -1.0561 -0.1799
  181SLPC     P20684   4.617   0.793  10.929  0.2488  0.0265 -0.1112
  181SLPC   O1320685   4.574   0.709  11.046 -0.3995 -0.6402 -0.3419
  181SLPC   O1420686   4.533   0.914  10.893 -0.3615  0.2780 -0.4734
  181SLPC   O1220687   4.761   0.847  10.963 -0.0240  0.6816 -0.3398
  181SLPC   O1120688   4.645   0.709  10.794 -0.2861 -0.3182  0.0463
  181SLPC    C120689   4.681   0.573  10.796 -0.7660  0.1909 -0.5096
  181SLPC    HA20690   4.772   0.555  10.858 -0.7436 -1.7953 -1.0303
  181SLPC    HB20691   4.592   0.518  10.833 -1.8280  0.8186 -2.0329
  181SLPC    C220692   4.709   0.507  10.659  0.6754  0.6680  0.7793
  181SLPC    HS20693   4.810   0.544  10.630 -0.3560  1.8565 -1.5145
  181SLPC   O2120694   4.620   0.555  10.558  0.0757 -0.5943  0.2744
  181SLPC   C2120695   4.653   0.668  10.496 -1.0656 -0.4221 -0.0217
  181SLPC   O2220696   4.760   0.722  10.514 -0.4465 -1.1199  0.2751
  181SLPC   C2220697   4.551   0.700  10.394  0.4987  0.9491  0.3512
  181SLPC   H2R20698   4.543   0.618  10.320  1.0806  0.1728  1.1361
  181SLPC   H2S20699   4.454   0.712  10.448  1.0842  1.2008  1.3542
  181SLPC    C320700   4.720   0.358  10.668  0.9263  0.6754 -0.2362
  181SLPC    HX20701   4.618   0.318  10.686  1.8764 -2.4473 -1.1833
  181SLPC    HY20702   4.785   0.323  10.751  2.4124 -0.1118 -1.6800
  181SLPC   O3120703   4.774   0.305  10.547 -0.2544  0.1538 -0.0810
  181SLPC   C3120704   4.731   0.194  10.510  0.3235  0.5297  0.2116
  181SLPC   O3220705   4.640   0.127  10.566 -0.0529  0.7173 -0.2954
  181SLPC   C3220706   4.786   0.170  10.364 -0.1046  0.1521  0.0847
  181SLPC   H2X20707   4.789   0.064  10.333 -1.5003  0.0227  0.3021
  181SLPC   H2Y20708   4.893   0.195  10.381 -0.8781  2.5399  2.1044
  181SLPC   C2320709   4.578   0.835  10.316 -0.0514 -0.0436  0.3536
  181SLPC   H3R20710   4.683   0.869  10.329  0.4376 -0.7702 -1.3636
  181SLPC   H3S20711   4.508   0.906  10.365 -0.4905  2.1062 -3.0145
  181SLPC   C2420712   4.525   0.836  10.167 -0.1752 -0.5269  0.0820
  181SLPC   H4R20713   4.416   0.813  10.171 -0.4494  0.4164 -1.1562
  181SLPC   H4S20714   4.588   0.756  10.124  1.1429  0.4533  0.1117
  181SLPC   C2520715   4.536   0.967  10.089 -0.5401  0.7275 -0.0937
  181SLPC   H5R20716   4.643   0.991  10.070 -0.0144 -1.0359  0.4015
  181SLPC   H5S20717   4.486   1.046  10.150 -0.6416  1.2642 -0.8650
  181SLPC   C2620718   4.469   0.944   9.946 -0.1639 -0.5947 -0.2095
  181SLPC   H6R20719   4.361   0.928   9.968  0.8995 -4.3975  3.7424
  181SLPC   H6S20720   4.504   0.846   9.909  1.0534  0.2194 -1.2923
  181SLPC   C2720721   4.494   1.068   9.854 -0.1668 -0.1119 -0.3159
  181SLPC   H7R20722   4.602   1.093   9.849 -0.7764  2.6529 -3.0962
  181SLPC   H7S20723   4.445   1.154   9.904 -0.2329 -0.8777  0.9945
  181SLPC   C2820724   4.424   1.064   9.719  0.7377  0.5805  0.2856
  181SLPC   H8R20725   4.401   1.166   9.680  1.2209  1.1936  1.5372
  181SLPC   H8S20726   4.318   1.032   9.730  0.9378  0.4945  2.4030
  181SLPC   C2920727   4.488   0.963   9.629  0.4824  0.5365 -0.9768
  181SLPC   H9R20728   4.502   0.868   9.682  1.5460  1.3606  0.2763
  181SLPC  C21020729   4.542   0.976   9.508  0.1073 -0.1863 -0.9712
  181SLPC  H10R20730   4.585   0.889   9.456  0.0570 -0.0156 -1.3020
  181SLPC  C21120731   4.538   1.101   9.424 -0.4700 -0.1659 -0.3486
  181SLPC  H11R20732   4.450   1.165   9.444 -3.9439 -4.5140 -0.2597
  181SLPC  H11S20733   4.514   1.063   9.322  0.3687 -1.0391 -0.2419
  181SLPC  C21220734   4.659   1.193   9.421 -0.8296 -0.7719 -1.1038
  181SLPC  H12R20735   4.696   1.213   9.523 -1.8434 -4.9814  0.2600
  181SLPC  C21320736   4.718   1.266   9.322 -0.0901  0.1388  0.6308
  181SLPC  H13R20737   4.804   1.331   9.346 -0.2011  0.2884  0.6262
  181SLPC  C21420738   4.668   1.266   9.183  0.0985  0.1316 -0.1852
  181SLPC  H14R20739   4.559   1.247   9.192  0.0643  1.2443  3.5742
  181SLPC  H14S20740   4.713   1.180   9.129 -3.0537 -1.5209 -0.4039
  181SLPC  C21520741   4.693   1.396   9.114 -0.2527  0.5318 -0.1806
  181SLPC  H15R20742   4.800   1.422   9.122 -0.3452  1.1458 -0.8355
  181SLPC  H15S20743   4.637   1.473   9.172 -0.6231  1.6307 -1.9069
  181SLPC  C21620744   4.641   1.381   8.973 -0.3439  0.3096 -0.0603
  181SLPC  H16R20745   4.539   1.336   8.978 -1.3683  2.6127  1.8854
  181SLPC  H16S20746   4.718   1.315   8.928 -0.7814  1.4113 -2.5387
  181SLPC  C21720747   4.613   1.513   8.905 -0.0823  0.0533  0.4187
  181SLPC  H17R20748   4.600   1.586   8.988  0.6407 -0.4268  0.9717
  181SLPC  H17S20749   4.518   1.501   8.849 -0.3428  2.1556  0.3109
  181SLPC  C21820750   4.728   1.568   8.818  0.1533  0.1228  0.1744
  181SLPC  H18R20751   4.812   1.563   8.890 -0.2279  0.8437  0.6831
  181SLPC  H18S20752   4.704   1.674   8.793 -2.2059 -0.0999  1.1869
  181SLPC  H18T20753   4.760   1.505   8.733 -2.2090 -0.7523 -0.1593
  181SLPC   C3320754   4.723   0.272  10.274  0.7930  0.1784 -0.5652
  181SLPC   H3X20755   4.773   0.368  10.302 -1.7032  1.1794  0.8086
  181SLPC   H3Y20756   4.613   0.270  10.285  0.9561 -0.6183  1.5753
  181SLPC   C3420757   4.756   0.241  10.128 -0.3403  0.2452 -0.3202
  181SLPC   H4X20758   4.719   0.140  10.103 -0.7835  0.1020  0.8552
  181SLPC   H4Y20759   4.867   0.239  10.117 -0.4696  0.2753 -1.9745
  181SLPC   C3520760   4.676   0.331  10.035 -0.3181  0.5384 -0.5466
  181SLPC   H5X20761   4.681   0.437  10.066 -1.2456  0.6167 -0.6392
  181SLPC   H5Y20762   4.572   0.295  10.047 -0.3495  1.0874  1.0718
  181SLPC   C3620763   4.724   0.308   9.894 -0.3975  0.1171  0.4153
  181SLPC   H6X20764   4.632   0.311   9.833 -1.5097  2.2766  2.0862
  181SLPC   H6Y20765   4.769   0.206   9.885 -0.2745  0.1811  0.3038
  181SLPC   C3720766   4.826   0.413   9.849  0.4204  0.1234 -0.0338
  181SLPC   H7X20767   4.928   0.419   9.892  0.1412  0.5146  0.5892
  181SLPC   H7Y20768   4.786   0.513   9.875  1.2896  0.6079 -0.5232
  181SLPC   C3820769   4.858   0.416   9.696 -0.9672 -0.7595 -0.4987
  181SLPC   H8X20770   4.943   0.487   9.687 -3.0413  2.3376  2.1139
  181SLPC   H8Y20771   4.771   0.464   9.646 -0.5107 -0.3591 -0.9218
  181SLPC   C3920772   4.891   0.286   9.621 -0.1936 -0.0249 -0.3554
  181SLPC   H9X20773   4.802   0.220   9.634 -1.5963  0.9484 -3.8509
  181SLPC   H9Y20774   4.980   0.244   9.672 -0.1449 -0.0111 -0.4291
  181SLPC  C31020775   4.918   0.309   9.472  0.2554 -0.1643 -0.3425
  181SLPC  H10X20776   4.991   0.230   9.446  1.2725  0.6669 -0.0619
  181SLPC  H10Y20777   4.958   0.411   9.451 -2.7218  1.5566  1.5185
  181SLPC  C31120778   4.792   0.292   9.381  0.2276 -0.2489  0.1249
  181SLPC  H11X20779   4.725   0.381   9.388  1.0092  0.4000 -0.4522
  181SLPC  H11Y20780   4.737   0.207   9.427 -0.6488 -0.4892 -1.3052
  181SLPC  C31220781   4.834   0.285   9.233 -0.5462  0.8329 -0.2230
  181SLPC  H12X20782   4.913   0.359   9.206 -0.6119  0.1980 -2.3635
  181SLPC  H12Y20783   4.745   0.310   9.171 -2.1909 -0.0667  1.6802
  181SLPC  C31320784   4.887   0.144   9.189 -0.2612 -0.4807 -0.6855
  181SLPC  H13X20785   4.815   0.073   9.233 -0.8668  0.7795  0.4438
  181SLPC  H13Y20786   4.994   0.128   9.217 -0.5552  0.2147  0.9793
  181SLPC  C31420787   4.894   0.140   9.031 -0.0542 -0.0327  0.1161
  181SLPC  H14X20788   4.794   0.162   8.988  0.4240  2.8114  0.2605
  181SLPC  H14Y20789   4.925   0.035   9.012  0.4118 -0.1739  1.5388
  181SLPC  C31520790   4.979   0.244   8.963 -0.4363 -0.0385 -0.0482
  181SLPC  H15X20791   5.082   0.235   9.003 -1.4388  0.5437  2.8514
  181SLPC  H15Y20792   4.948   0.346   8.995  0.5469  0.1118  0.4769
  181SLPC  C31620793   5.000   0.233   8.807  0.1623  0.5499  0.4013
  181SLPC  H16X20794   5.055   0.325   8.775 -1.3745  1.6742  0.8794
  181SLPC  H16Y20795   4.904   0.251   8.755 -0.8342  2.2179  2.6248
  181SLPC  C31720796   5.069   0.099   8.762  0.1026 -0.0628 -0.0583
  181SLPC  H17X20797   5.030   0.064   8.663  1.3724  0.2717 -0.7040
  181SLPC  H17Y20798   5.044   0.012   8.826 -1.0513 -0.8921 -1.5591
  181SLPC  C31820799   5.220   0.103   8.757 -0.5435  0.2119 -0.5307
  181SLPC  H18X20800   5.252   0.147   8.660 -2.7788  1.8411 -0.6073
  181SLPC  H18Y20801   5.265   0.002   8.765  0.8489  0.8752  0.4853
  181SLPC  H18Z20802   5.264   0.164   8.839  1.0590 -0.3538 -0.9324
  182SLPC     N20803   2.466   0.747  10.871 -0.3639 -0.1898  0.5434
  182SLPC   C1320804   2.507   0.722  11.015 -0.5589  0.4751  0.5493
  182SLPC  H13A20805   2.493   0.806  11.081 -2.0443  0.3092  0.4741
  182SLPC  H13B20806   2.446   0.647  11.063 -1.5160 -0.9672 -2.6303
  182SLPC  H13C20807   2.613   0.702  11.022 -1.0302 -1.9756  1.8670
  182SLPC   C1420808   2.320   0.791  10.866 -0.7631  0.7361 -0.7363
  182SLPC  H14A20809   2.305   0.875  10.932  0.5922 -0.2555  0.9151
  182SLPC  H14B20810   2.303   0.825  10.765 -0.4851  2.5817 -0.1918
  182SLPC  H14C20811   2.256   0.708  10.895  0.0349  0.0071 -1.0325
  182SLPC   C1520812   2.483   0.610  10.809 -0.4808  0.0759 -0.3462
  182SLPC  H15A20813   2.431   0.540  10.872  0.4947  0.2583  0.6955
  182SLPC  H15B20814   2.455   0.593  10.706  1.2876 -2.0582 -0.5546
  182SLPC  H15C20815   2.585   0.578  10.825 -0.8237 -0.1290  1.5756
  182SLPC   C1220816   2.554   0.846  10.792 -0.2542 -0.0023 -0.1851
  182SLPC  H12A20817   2.657   0.815  10.802  0.6317  3.2343  2.7984
  182SLPC  H12B20818   2.546   0.934  10.855 -0.7557 -0.7197  0.7659
  182SLPC   C1120819   2.526   0.884  10.642 -0.3170 -0.1390 -0.7622
  182SLPC  H11A20820   2.541   0.791  10.582 -0.2465 -0.1582 -0.7160
  182SLPC  H11B20821   2.598   0.960  10.604 -0.2177 -0.5786 -1.4834
  182SLPC     P20822   2.357   1.080  10.650 -0.3905 -0.2440 -0.3423
  182SLPC   O1320823   2.218   1.082  10.707 -0.1620  0.1856 -0.6317
  182SLPC   O1420824   2.467   1.135  10.735 -0.4263 -0.1068  0.5840
  182SLPC   O1220825   2.388   0.928  10.626 -0.2504  0.1969  0.2331
  182SLPC   O1120826   2.375   1.158  10.510  0.3419  0.3571 -0.0541
  182SLPC    C120827   2.495   1.172  10.430  0.3203  0.5377  0.0764
  182SLPC    HA20828   2.525   1.279  10.431  1.5107  0.2745  3.6394
  182SLPC    HB20829   2.585   1.118  10.465  1.9270  3.0802  0.1188
  182SLPC    C220830   2.452   1.137  10.292 -0.4081 -0.4821  0.1000
  182SLPC    HS20831   2.351   1.178  10.273 -0.4643 -0.1530  1.0796
  182SLPC   O2120832   2.462   0.991  10.277  0.2936 -0.6840 -0.2994
  182SLPC   C2120833   2.359   0.938  10.219  0.7345 -0.9947  0.3500
  182SLPC   O2220834   2.252   0.998  10.194  0.0719 -0.0072  0.4633
  182SLPC   C2220835   2.393   0.789  10.198  0.6022  0.0260  1.2612
  182SLPC   H2R20836   2.501   0.785  10.171 -0.0121 -0.7586 -1.4069
  182SLPC   H2S20837   2.381   0.733  10.293  0.0758 -1.7742  0.1777
  182SLPC    C320838   2.541   1.210  10.189  0.1013  0.0426 -0.5893
  182SLPC    HX20839   2.641   1.165  10.205 -1.1261 -2.5983  0.1570
  182SLPC    HY20840   2.562   1.318  10.206  0.8650  0.0562 -1.5340
  182SLPC   O3120841   2.510   1.180  10.057  0.0492  0.7604 -0.0905
  182SLPC   C3120842   2.414   1.252  10.011  0.0095  0.7953  0.2262
  182SLPC   O3220843   2.355   1.345  10.062  0.2543 -0.1822  0.0763
  182SLPC   C3220844   2.385   1.207   9.870 -0.0058 -0.9724 -0.1908
  182SLPC   H2X20845   2.342   1.106   9.883 -0.4194 -0.6354  1.2413
  182SLPC   H2Y20846   2.484   1.188   9.824  0.6505  0.6427  0.4633
  182SLPC   C2320847   2.302   0.720  10.089  0.4386 -0.0717  0.0594
  182SLPC   H3R20848   2.192   0.726  10.107  0.1738 -0.7954 -1.1597
  182SLPC   H3S20849   2.326   0.612  10.084  0.4330 -0.0454 -0.6774
  182SLPC   C2420850   2.344   0.781   9.948 -0.1310  0.1109 -0.2826
  182SLPC   H4R20851   2.455   0.783   9.938  0.3268 -4.3164  1.5643
  182SLPC   H4S20852   2.311   0.886   9.933  1.4506  0.6023 -0.5151
  182SLPC   C2520853   2.296   0.702   9.822 -0.2634  0.3354  0.6647
  182SLPC   H5R20854   2.334   0.737   9.724 -0.0670  2.2055  1.3638
  182SLPC   H5S20855   2.185   0.710   9.817 -0.4582 -1.7795  0.9750
  182SLPC   C2620856   2.317   0.553   9.828  0.2499  1.0069  0.3125
  182SLPC   H6R20857   2.272   0.508   9.919 -0.3624 -1.8971 -1.2918
  182SLPC   H6S20858   2.427   0.550   9.838  0.3091 -1.3371 -0.4597
  182SLPC   C2720859   2.269   0.480   9.701  0.1330  0.6885  0.1599
  182SLPC   H7R20860   2.301   0.376   9.725  1.0443  1.5278  3.0359
  182SLPC   H7S20861   2.324   0.527   9.617  1.0195 -3.4928 -1.8664
  182SLPC   C2820862   2.117   0.484   9.665 -0.3076 -0.2183 -0.5632
  182SLPC   H8R20863   2.106   0.586   9.625 -1.2937 -0.9379 -2.2076
  182SLPC   H8S20864   2.052   0.458   9.751  1.0485  0.2854  0.6573
  182SLPC   C2920865   2.100   0.394   9.551  0.0774  0.5591 -0.2286
  182SLPC   H9R20866   2.090   0.287   9.577  2.0959  0.2584 -0.4772
  182SLPC  C21020867   2.105   0.429   9.416  0.0567  0.2201  0.4690
  182SLPC  H10R20868   2.104   0.347   9.342 -3.6910  0.6821 -0.2021
  182SLPC  C21120869   2.139   0.562   9.365  0.0783  0.9378  0.3987
  182SLPC  H11R20870   2.237   0.559   9.313  0.8024 -2.4495  1.7488
  182SLPC  H11S20871   2.143   0.642   9.442 -3.8334 -0.1162  1.9543
  182SLPC  C21220872   2.027   0.602   9.266 -1.0089  0.0744  0.3759
  182SLPC  H12R20873   1.948   0.657   9.319  0.6489  1.9201  1.0799
  182SLPC  C21320874   2.024   0.593   9.127  0.1595  0.8819 -0.2003
  182SLPC  H13R20875   1.939   0.630   9.068 -1.8035 -0.8506  1.4132
  182SLPC  C21420876   2.139   0.539   9.050  0.3187  0.6039  0.4126
  182SLPC  H14R20877   2.109   0.456   8.983  0.6368 -0.2338  1.2792
  182SLPC  H14S20878   2.220   0.500   9.116 -0.5159  1.1427  1.8094
  182SLPC  C21520879   2.201   0.648   8.957 -0.8907  0.0011 -0.8889
  182SLPC  H15R20880   2.301   0.613   8.923  0.2179  2.7304 -0.7096
  182SLPC  H15S20881   2.231   0.733   9.023 -0.8239 -0.6968 -0.0019
  182SLPC  C21620882   2.140   0.696   8.834  0.4661 -0.5127 -0.5615
  182SLPC  H16R20883   2.204   0.775   8.789  0.8618 -2.0622 -2.8980
  182SLPC  H16S20884   2.038   0.738   8.850  0.7918  0.1290 -0.1549
  182SLPC  C21720885   2.119   0.581   8.732  0.2076  0.5190 -0.7112
  182SLPC  H17R20886   2.061   0.497   8.777  0.6386  0.3354 -0.4883
  182SLPC  H17S20887   2.219   0.540   8.706 -0.7840 -2.4148 -0.3166
  182SLPC  C21820888   2.034   0.620   8.610 -0.0857 -0.0435  1.1004
  182SLPC  H18R20889   2.005   0.539   8.539 -2.5949  1.7273 -0.0450
  182SLPC  H18S20890   2.068   0.714   8.560 -0.7204 -0.4648 -0.1652
  182SLPC  H18T20891   1.939   0.649   8.658 -0.1029  0.7164  0.6317
  182SLPC   C3320892   2.305   1.301   9.781  0.6727  0.6829 -0.0768
  182SLPC   H3X20893   2.362   1.393   9.754 -0.6695  1.3799 -0.6128
  182SLPC   H3Y20894   2.218   1.349   9.831  0.6493  0.5018  0.0546
  182SLPC   C3420895   2.247   1.240   9.654  0.2503 -0.1272  0.4861
  182SLPC   H4X20896   2.184   1.304   9.589  0.2478 -1.7208 -1.1752
  182SLPC   H4Y20897   2.189   1.155   9.696 -0.4015 -0.2052 -0.5344
  182SLPC   C3520898   2.357   1.179   9.557 -0.0736 -0.5554 -0.0997
  182SLPC   H5X20899   2.386   1.074   9.577  0.7419 -0.6565 -1.6264
  182SLPC   H5Y20900   2.452   1.231   9.580 -1.3553  0.7068  2.8859
  182SLPC   C3620901   2.323   1.193   9.407  0.3136  0.6913  0.3150
  182SLPC   H6X20902   2.402   1.139   9.351 -0.1744  0.3049 -0.0178
  182SLPC   H6Y20903   2.327   1.301   9.378 -2.3507  1.2547  1.6644
  182SLPC   C3720904   2.190   1.132   9.352 -0.6923 -0.5846 -0.4238
  182SLPC   H7X20905   2.107   1.203   9.374 -0.0246  0.3779 -0.9521
  182SLPC   H7Y20906   2.185   1.031   9.397 -0.6741 -0.6816 -0.6384
  182SLPC   C3820907   2.214   1.110   9.201 -0.1896  0.3080 -0.0435
  182SLPC   H8X20908   2.305   1.048   9.191 -1.6230 -1.9670  0.3317
  182SLPC   H8Y20909   2.230   1.210   9.155 -0.3104 -0.3956 -1.6575
  182SLPC   C3920910   2.094   1.050   9.127  0.6240  0.4965 -0.2913
  182SLPC   H9X20911   2.011   1.124   9.122  2.1949  2.3385 -0.0590
  182SLPC   H9Y20912   2.065   0.956   9.179  2.2916 -0.9136 -1.7808
  182SLPC  C31020913   2.132   1.000   8.986  0.7832 -0.8008  0.4929
  182SLPC  H10X20914   2.044   0.939   8.958 -1.0694  2.2299 -0.7744
  182SLPC  H10Y20915   2.224   0.940   9.007  3.3819  2.8794  0.5819
  182SLPC  C31120916   2.157   1.126   8.899  0.4017 -0.5285 -0.4021
  182SLPC  H11X20917   2.241   1.185   8.943 -0.4361 -0.3978  1.0841
  182SLPC  H11Y20918   2.066   1.189   8.894  0.2883 -0.7405 -1.1294
  182SLPC  C31220919   2.190   1.095   8.752  0.0514  0.4972  0.4813
  182SLPC  H12X20920   2.107   1.035   8.710 -0.8507 -0.2515  3.1703
  182SLPC  H12Y20921   2.286   1.040   8.744  0.0776  0.8289 -3.5934
  182SLPC  C31320922   2.208   1.229   8.670  0.2839 -0.0462  0.4594
  182SLPC  H13X20923   2.278   1.299   8.719 -0.8353 -0.6189  3.0349
  182SLPC  H13Y20924   2.109   1.278   8.684 -0.0446 -0.8640  1.1613
  182SLPC  C31420925   2.236   1.209   8.521  0.3881 -0.0982  0.4258
  182SLPC  H14X20926   2.149   1.161   8.471  1.0689  1.2420 -2.2216
  182SLPC  H14Y20927   2.326   1.145   8.513 -2.0645 -3.6304 -1.9369
  182SLPC  C31520928   2.249   1.342   8.444  0.0276  0.1799  0.8257
  182SLPC  H15X20929   2.273   1.416   8.524  0.7359  1.5316 -0.5720
  182SLPC  H15Y20930   2.155   1.390   8.410  0.8123  2.1244  1.2565
  182SLPC  C31620931   2.355   1.336   8.337 -0.4380 -0.0592  0.3324
  182SLPC  H16X20932   2.323   1.253   8.269  0.4455 -0.8762  0.8888
  182SLPC  H16Y20933   2.448   1.293   8.381 -1.4178 -2.0826  0.5517
  182SLPC  C31720934   2.394   1.462   8.268  0.2843  0.4507  0.6905
  182SLPC  H17X20935   2.422   1.538   8.344  3.6294  0.0821 -0.0415
  182SLPC  H17Y20936   2.300   1.499   8.220  0.5770 -2.2873 -2.3158
  182SLPC  C31820937   2.513   1.459   8.166 -0.0623  0.6009 -0.2534
  182SLPC  H18X20938   2.480   1.411   8.072 -1.2617 -0.9597  0.9056
  182SLPC  H18Y20939   2.598   1.402   8.209 -0.1913  1.7169  1.6248
  182SLPC  H18Z20940   2.541   1.566   8.155 -1.8463  1.2131  0.6213
  183SLPC     N20941   5.004   1.391  10.988  0.1141 -1.0459 -0.5435
  183SLPC   C1320942   4.886   1.472  11.047 -0.3055 -0.0233 -0.9845
  183SLPC  H13A20943   4.816   1.501  10.971 -1.5890 -1.2294 -0.3119
  183SLPC  H13B20944   4.834   1.414  11.122 -0.6204  0.4309 -0.8510
  183SLPC  H13C20945   4.928   1.561  11.092  0.3614 -0.5233 -0.5945
  183SLPC   C1420946   4.938   1.279  10.915  0.0451  0.4068  0.4075
  183SLPC  H14A20947   5.009   1.208  10.876  0.9306  1.1347  0.6514
  183SLPC  H14B20948   4.871   1.219  10.976  1.7967 -0.3780  1.6770
  183SLPC  H14C20949   4.882   1.317  10.832  0.0925 -2.4432 -1.0561
  183SLPC   C1520950   5.100   1.357  11.099  0.3405  0.1046 -0.5280
  183SLPC  H15A20951   5.163   1.280  11.056 -0.5121  0.2009 -2.0591
  183SLPC  H15B20952   5.166   1.437  11.128  0.7035 -1.0361  2.0902
  183SLPC  H15C20953   5.048   1.324  11.188  0.9844 -0.4513 -0.3549
  183SLPC   C1220954   5.084   1.484  10.898 -0.6057 -0.4224 -0.3553
  183SLPC  H12A20955   5.111   1.570  10.958 -0.8767 -2.1295  2.4195
  183SLPC  H12B20956   5.022   1.538  10.828 -0.6867  0.0147  0.0458
  183SLPC   C1120957   5.214   1.431  10.827 -0.1344  0.1734  0.3437
  183SLPC  H11A20958   5.298   1.422  10.899  0.3982  3.1852  0.2194
  183SLPC  H11B20959   5.251   1.511  10.760 -0.7134 -0.8295 -1.2279
  183SLPC     P20960   5.265   1.177  10.766 -0.1473 -0.2050 -0.3151
  183SLPC   O1320961   5.256   1.129  10.914  0.2498 -0.6980 -0.3039
  183SLPC   O1420962   5.203   1.091  10.671  0.0990  0.3699 -0.0818
  183SLPC   O1220963   5.193   1.313  10.747 -0.5197 -0.5434  0.2779
  183SLPC   O1120964   5.419   1.197  10.721  0.1492 -0.1679  0.8739
  183SLPC    C120965   5.446   1.277  10.605  0.0964 -0.8161 -1.1941
  183SLPC    HA20966   5.359   1.339  10.575 -1.3182 -2.7964 -1.3820
  183SLPC    HB20967   5.532   1.346  10.614 -1.3879  1.1943 -1.9419
  183SLPC    C220968   5.485   1.187  10.491 -0.2228 -0.2649 -0.2420
  183SLPC    HS20969   5.556   1.235  10.420 -0.2321  1.3047  0.7407
  183SLPC   O2120970   5.373   1.134  10.423 -0.1633  0.2359  0.0717
  183SLPC   C2120971   5.305   1.214  10.344  0.0595  0.2927  0.4781
  183SLPC   O2220972   5.325   1.326  10.303  0.0303 -0.0047 -0.5212
  183SLPC   C2220973   5.178   1.139  10.310 -0.2576  0.1167 -0.6553
  183SLPC   H2R20974   5.200   1.034  10.282 -0.0925 -0.4236  1.3637
  183SLPC   H2S20975   5.107   1.138  10.396 -0.2260  0.8072 -0.6155
  183SLPC    C320976   5.566   1.067  10.547 -0.0721 -0.2492  0.9464
  183SLPC    HX20977   5.496   0.993  10.593 -0.5584 -1.0588 -1.0156
  183SLPC    HY20978   5.628   1.105  10.631  2.6015  3.2551 -2.2854
  183SLPC   O3120979   5.650   1.010  10.443 -0.0976 -0.5488 -0.5346
  183SLPC   C3120980   5.596   0.915  10.363  0.0485  0.1865 -0.5633
  183SLPC   O3220981   5.487   0.868  10.388 -0.0736  0.5107  0.3601
  183SLPC   C3220982   5.689   0.889  10.242  0.1721 -0.5670  0.2032
  183SLPC   H2X20983   5.723   0.786  10.267 -2.0481 -2.3567 -3.3157
  183SLPC   H2Y20984   5.768   0.966  10.246  0.4138 -0.8592  1.4460
  183SLPC   C2320985   5.104   1.193  10.184  0.4827 -0.1796 -0.2347
  183SLPC   H3R20986   5.174   1.207  10.099 -1.6361  1.5542 -1.7995
  183SLPC   H3S20987   5.053   1.285  10.219  2.8827  0.5924  1.5149
  183SLPC   C2420988   5.004   1.093  10.127  0.3442  0.0717  0.4412
  183SLPC   H4R20989   4.944   1.054  10.212 -1.3826 -0.0475 -0.7853
  183SLPC   H4S20990   5.057   1.009  10.078  4.0664  3.7943 -2.6970
  183SLPC   C2520991   4.902   1.145  10.023 -0.9005 -0.2563  0.4902
  183SLPC   H5R20992   4.848   1.226  10.076 -1.4785 -1.5827  2.0063
  183SLPC   H5S20993   4.833   1.062   9.997 -1.9113 -0.1617  2.6996
  183SLPC   C2620994   4.967   1.213   9.894 -0.1925 -0.1409  0.4573
  183SLPC   H6R20995   5.006   1.127   9.835 -1.0164 -0.2123  0.0093
  183SLPC   H6S20996   5.055   1.270   9.932  0.1966  0.1353 -0.8108
  183SLPC   C2720997   4.873   1.301   9.808  0.0141 -0.2442 -0.0251
  183SLPC   H7R20998   4.820   1.378   9.868 -0.6826  1.0080 -2.1318
  183SLPC   H7S20999   4.790   1.236   9.773 -2.1566  0.7611  2.9269
  183SLPC   C2821000   4.931   1.354   9.680 -0.4763 -0.3744  0.4317
  183SLPC   H8R21001   4.848   1.374   9.610  0.2592  0.4290 -0.2373
  183SLPC   H8S21002   5.006   1.290   9.628 -0.9406  1.1549 -2.2995
  183SLPC   C2921003   4.999   1.485   9.705  0.7989  0.2339  0.1058
  183SLPC   H9R21004   5.062   1.495   9.795  2.7541  0.9255 -1.2537
  183SLPC  C21021005   4.980   1.594   9.628 -0.5353  0.2358 -0.1612
  183SLPC  H10R21006   5.035   1.683   9.663 -2.0531  1.5279 -0.8891
  183SLPC  C21121007   4.892   1.614   9.509  0.7151  0.2711 -0.1248
  183SLPC  H11R21008   4.922   1.536   9.436 -1.8352 -0.8649 -0.0566
  183SLPC  H11S21009   4.909   1.711   9.458 -1.1461  1.4090  1.3071
  183SLPC  C21221010   4.742   1.607   9.528  0.3499  0.5885  0.3797
  183SLPC  H12R21011   4.703   1.517   9.577 -1.3566  1.9489  1.6988
  183SLPC  C21321012   4.654   1.699   9.489  0.2793 -0.6404  0.1639
  183SLPC  H13R21013   4.549   1.675   9.510  0.2567 -0.6620  0.0259
  183SLPC  C21421014   4.674   1.829   9.418 -0.5971 -0.0256  0.0318
  183SLPC  H14R21015   4.774   1.875   9.432 -0.9081  0.5023  0.6261
  183SLPC  H14S21016   4.609   1.906   9.466  2.0406  0.4919  3.1306
  183SLPC  C21521017   4.631   1.815   9.268  0.3762 -0.0057  0.4826
  183SLPC  H15R21018   4.526   1.780   9.258  0.6205 -0.9606  1.0833
  183SLPC  H15S21019   4.695   1.740   9.217 -2.0312 -0.4823 -2.0440
  183SLPC  C21621020   4.628   1.950   9.186 -0.0052 -0.1131 -0.5831
  183SLPC  H16R21021   4.728   1.993   9.163 -0.5576  0.8795 -1.2020
  183SLPC  H16S21022   4.584   2.024   9.256  0.1037 -1.0537  0.5261
  183SLPC  C21721023   4.552   1.935   9.055  0.1436  0.2576  0.1517
  183SLPC  H17R21024   4.453   1.890   9.076  0.9897 -1.6503  0.2240
  183SLPC  H17S21025   4.600   1.851   9.001 -0.4722 -1.2755  1.8908
  183SLPC  C21821026   4.553   2.062   8.963  0.4312 -0.6757  0.0490
  183SLPC  H18R21027   4.492   2.041   8.872 -1.2809  0.1482  0.9463
  183SLPC  H18S21028   4.659   2.083   8.939  0.3183 -1.3148 -1.0989
  183SLPC  H18T21029   4.510   2.147   9.019  1.6100  1.3124 -1.8955
  183SLPC   C3321030   5.592   0.878  10.123 -0.2074 -0.1640 -0.4424
  183SLPC   H3X21031   5.512   0.803  10.143 -0.1459 -0.1575 -0.1802
  183SLPC   H3Y21032   5.649   0.841  10.035 -2.0616  2.2416 -2.8494
  183SLPC   C3421033   5.538   1.008  10.078  0.1595 -0.3548 -0.0304
  183SLPC   H4X21034   5.623   1.074  10.051 -1.7837  1.5138 -1.9408
  183SLPC   H4Y21035   5.486   1.065  10.158  0.4406 -0.9487  0.5781
  183SLPC   C3521036   5.431   0.992   9.964 -0.8125  0.5055  0.3171
  183SLPC   H5X21037   5.344   0.936  10.002  0.3424  0.9391  3.9739
  183SLPC   H5Y21038   5.473   0.923   9.888 -3.0536 -2.3714  1.5302
  183SLPC   C3621039   5.384   1.130   9.917 -0.7640 -0.6286 -0.7757
  183SLPC   H6X21040   5.400   1.206   9.996  0.7589 -0.2984 -1.3615
  183SLPC   H6Y21041   5.276   1.141   9.894 -0.4650  2.4179 -1.1358
  183SLPC   C3721042   5.436   1.174   9.786 -0.4712  0.5075 -0.5881
  183SLPC   H7X21043   5.434   1.091   9.712  0.8259  2.8313 -3.4500
  183SLPC   H7Y21044   5.533   1.226   9.798 -0.7937  0.9311  0.2383
  183SLPC   C3821045   5.331   1.266   9.711 -0.9487 -0.4799  0.2050
  183SLPC   H8X21046   5.299   1.354   9.770 -3.4641  0.3420 -2.1766
  183SLPC   H8Y21047   5.245   1.199   9.690 -1.9402  0.6836  0.4778
  183SLPC   C3921048   5.388   1.317   9.573  0.3941 -0.1089 -0.2271
  183SLPC   H9X21049   5.419   1.233   9.506  1.3433  0.0880 -0.0476
  183SLPC   H9Y21050   5.477   1.382   9.589  0.3896 -0.2669  0.4737
  183SLPC  C31021051   5.280   1.404   9.499  0.1001  0.0062  0.0263
  183SLPC  H10X21052   5.246   1.490   9.560  1.6338  1.2397 -0.7897
  183SLPC  H10Y21053   5.199   1.331   9.479  0.2820  0.1494 -1.3569
  183SLPC  C31121054   5.308   1.457   9.361 -0.1688  0.5922  0.4737
  183SLPC  H11X21055   5.370   1.383   9.306 -0.5201  0.1726  0.6319
  183SLPC  H11Y21056   5.368   1.550   9.374  0.2365  0.1927  1.6829
  183SLPC  C31221057   5.185   1.482   9.277 -0.2070  0.1884  0.1769
  183SLPC  H12X21058   5.139   1.572   9.321  0.3074  0.3729  0.3464
  183SLPC  H12Y21059   5.120   1.394   9.296  1.4848 -0.8870  1.3194
  183SLPC  C31321060   5.222   1.490   9.129 -0.4516  0.0863 -1.0636
  183SLPC  H13X21061   5.270   1.394   9.100 -0.1421 -0.0549 -0.1243
  183SLPC  H13Y21062   5.296   1.568   9.101 -1.9028  1.6821 -0.5633
  183SLPC  C31421063   5.106   1.500   9.038  0.2535 -0.0011 -0.8816
  183SLPC  H14X21064   5.048   1.593   9.054 -0.0529 -0.2180 -0.7181
  183SLPC  H14Y21065   5.034   1.417   9.057 -0.2976  1.0114  2.0004
  183SLPC  C31521066   5.149   1.487   8.893 -0.8032  0.3455  0.7247
  183SLPC  H15X21067   5.053   1.486   8.836  0.4795  0.4029 -1.5631
  183SLPC  H15Y21068   5.187   1.384   8.878 -2.2931  0.1781 -3.1344
  183SLPC  C31621069   5.235   1.600   8.834 -0.1144 -0.9873  0.4270
  183SLPC  H16X21070   5.332   1.616   8.887  1.2348  1.2407 -2.4643
  183SLPC  H16Y21071   5.179   1.695   8.847  0.7335 -0.5746  1.2081
  183SLPC  C31721072   5.264   1.585   8.679  0.2940 -0.7911 -0.3722
  183SLPC  H17X21073   5.169   1.562   8.626 -0.5591 -0.8740  1.1547
  183SLPC  H17Y21074   5.326   1.497   8.655  0.8318 -0.2169 -1.1392
  183SLPC  C31821075   5.318   1.726   8.632  0.0680 -0.6809 -0.6392
  183SLPC  H18X21076   5.253   1.816   8.625 -0.2468 -0.9144 -0.7191
  183SLPC  H18Y21077   5.372   1.723   8.535 -0.0521  0.8085 -0.7775
  183SLPC  H18Z21078   5.394   1.755   8.708  0.8833 -2.0645 -0.8879
  184SLPC     N21079   0.109   6.089  11.095 -0.3921 -0.2952 -0.3170
  184SLPC   C1321080   0.087   6.069  11.242  0.4075 -0.5444  1.0845
  184SLPC  H13A21081   0.155   6.120  11.309 -1.0877 -0.4750  2.6149
  184SLPC  H13B21082  -0.013   6.092  11.277 -0.8737 -3.4522 -0.2611
  184SLPC  H13C21083   0.081   5.964  11.267  0.5984 -0.5033  1.3041
  184SLPC   C1421084   0.013   6.008  11.021 -0.4544  0.1332  0.1796
  184SLPC  H14A21085  -0.087   6.023  11.060 -0.2610  0.0814  0.7031
  184SLPC  H14B21086   0.020   6.020  10.914  0.1803 -2.2344 -0.0918
  184SLPC  H14C21087   0.024   5.902  11.037 -2.6051  0.1364  2.2717
  184SLPC   C1521088   0.244   6.028  11.075 -0.8463 -0.4620 -0.3081
  184SLPC  H15A21089   0.260   5.923  11.096 -0.0202  0.0765  2.1281
  184SLPC  H15B21090   0.280   6.060  10.979 -0.4860  2.3569  0.6778
  184SLPC  H15C21091   0.310   6.083  11.141 -2.6192  0.0329  1.1556
  184SLPC   C1221092   0.107   6.237  11.052  0.3439  0.2419 -0.1173
  184SLPC  H12A21093   0.172   6.295  11.115 -1.3217  0.8145  1.1563
  184SLPC  H12B21094   0.012   6.282  11.078  1.3225  0.8446  2.6577
  184SLPC   C1121095   0.136   6.264  10.902  0.6337  0.4101  0.5444
  184SLPC  H11A21096   0.153   6.373  10.884 -1.6920  0.8747  0.9015
  184SLPC  H11B21097   0.038   6.251  10.851  2.4676 -1.0929 -3.0135
  184SLPC     P21098   0.220   6.103  10.712  0.1103 -0.4908  0.1855
  184SLPC   O1321099   0.348   6.034  10.695  0.1183 -0.0632  0.2630
  184SLPC   O1421100   0.099   6.017  10.737  0.0507  0.2700  0.3863
  184SLPC   O1221101   0.242   6.186  10.842 -0.6854 -0.1285 -0.4591
  184SLPC   O1121102   0.182   6.208  10.601  0.0203 -0.0521 -0.4180
  184SLPC    C121103   0.255   6.330  10.571 -0.5059  0.2794  0.1760
  184SLPC    HA21104   0.332   6.344  10.650  0.3612 -1.5006 -0.2888
  184SLPC    HB21105   0.298   6.315  10.469  0.8370 -2.0009  0.9968
  184SLPC    C221106   0.151   6.444  10.560  0.4416 -0.1705  0.6266
  184SLPC    HS21107   0.107   6.443  10.662  0.6778 -0.6890  0.7265
  184SLPC   O2121108   0.061   6.425  10.449 -0.1308  0.3879 -0.5112
  184SLPC   C2121109  -0.069   6.440  10.468 -0.4997 -0.9391 -0.4023
  184SLPC   O2221110  -0.116   6.487  10.571 -0.2560 -0.1288 -0.1320
  184SLPC   C2221111  -0.148   6.382  10.352 -0.3688 -0.1132 -0.1925
  184SLPC   H2R21112  -0.114   6.276  10.346  1.5326  0.4025  0.7688
  184SLPC   H2S21113  -0.248   6.375  10.400 -0.2419 -0.2482  0.0568
  184SLPC    C321114   0.231   6.575  10.530  0.8847 -0.3569 -0.0691
  184SLPC    HX21115   0.281   6.566  10.431  0.4311 -2.6806 -0.1412
  184SLPC    HY21116   0.307   6.590  10.610  0.9452  1.0693 -0.3546
  184SLPC   O3121117   0.139   6.687  10.522 -0.2497  0.4647 -0.0841
  184SLPC   C3121118   0.179   6.810  10.496  0.9124  0.2519  0.2653
  184SLPC   O3221119   0.297   6.847  10.497  0.9120  0.3269  0.2421
  184SLPC   C3221120   0.067   6.904  10.453 -0.2073 -0.2914 -0.7973
  184SLPC   H2X21121   0.115   6.996  10.415 -1.3755  0.1964 -1.1550
  184SLPC   H2Y21122   0.023   6.937  10.550 -0.4596  0.2511 -1.0950
  184SLPC   C2321123  -0.150   6.458  10.220  0.2929 -0.2015  0.4074
  184SLPC   H3R21124  -0.167   6.562  10.256 -0.5231 -0.6042  1.2583
  184SLPC   H3S21125  -0.243   6.431  10.166 -0.3399 -0.6329  1.6649
  184SLPC   C2421126  -0.034   6.437  10.123  0.2789 -0.3512 -0.2523
  184SLPC   H4R21127   0.005   6.334  10.140 -0.5236 -0.5887  0.1816
  184SLPC   H4S21128   0.050   6.507  10.145 -1.0404  2.3158 -2.9030
  184SLPC   C2521129  -0.079   6.442   9.974  0.5062  0.4395 -0.2212
  184SLPC   H5R21130  -0.168   6.377   9.960  1.4823 -0.8570 -0.6723
  184SLPC   H5S21131   0.002   6.413   9.903  0.3826 -0.1435 -0.1321
  184SLPC   C2621132  -0.135   6.582   9.923 -0.7082 -0.1209 -0.2789
  184SLPC   H6R21133  -0.060   6.663   9.940 -2.0024  0.8597  0.9523
  184SLPC   H6S21134  -0.214   6.615   9.993 -0.6261 -0.0218 -0.2341
  184SLPC   C2721135  -0.177   6.580   9.777  0.4999 -0.8222  0.4616
  184SLPC   H7R21136  -0.206   6.686   9.759  0.1754 -1.0719 -0.5796
  184SLPC   H7S21137  -0.263   6.511   9.761 -0.2018  0.3925 -1.3522
  184SLPC   C2821138  -0.073   6.563   9.664 -0.3071  0.3782  0.0274
  184SLPC   H8R21139  -0.113   6.596   9.565  0.6610 -1.7738 -1.1594
  184SLPC   H8S21140  -0.051   6.455   9.647  0.5685  0.2562  1.7339
  184SLPC   C2921141   0.059   6.635   9.689 -0.7466  0.2572 -0.6720
  184SLPC   H9R21142   0.088   6.616   9.793  1.4660 -1.6030 -1.5430
  184SLPC  C21021143   0.126   6.726   9.617 -0.0711 -0.0669  0.3422
  184SLPC  H10R21144   0.211   6.776   9.666  0.1444  1.6970 -1.6541
  184SLPC  C21121145   0.088   6.772   9.476  0.1893  0.4211  0.7128
  184SLPC  H11R21146   0.022   6.861   9.489  0.5303  0.5903  1.3613
  184SLPC  H11S21147   0.031   6.694   9.422  1.1506  0.6264 -0.6391
  184SLPC  C21221148   0.211   6.811   9.404 -0.5668  0.2363  0.2803
  184SLPC  H12R21149   0.302   6.761   9.442  0.1577 -0.5403 -2.2951
  184SLPC  C21321150   0.229   6.902   9.309 -0.0220 -0.1977 -0.8013
  184SLPC  H13R21151   0.323   6.893   9.253 -0.9618  0.7583 -2.6241
  184SLPC  C21421152   0.123   6.990   9.242  0.3872  0.2256 -0.3652
  184SLPC  H14R21153   0.153   7.096   9.234  1.8226 -0.1179  0.1957
  184SLPC  H14S21154   0.018   6.980   9.277  0.0701  0.2631 -1.2841
  184SLPC  C21521155   0.116   6.949   9.088 -0.5178  0.8416  0.4243
  184SLPC  H15R21156   0.214   6.968   9.038 -0.9428  1.4900 -0.1710
  184SLPC  H15S21157   0.057   7.023   9.031  1.0130  1.5739 -0.2788
  184SLPC  C21621158   0.068   6.812   9.050  0.1228 -0.7215 -0.7111
  184SLPC  H16R21159   0.138   6.730   9.079 -0.5420 -1.2195 -0.4939
  184SLPC  H16S21160   0.062   6.787   8.942  0.5997 -1.9508 -0.4676
  184SLPC  C21721161  -0.067   6.785   9.099 -0.0936  0.5496  0.2654
  184SLPC  H17R21162  -0.140   6.867   9.082 -0.1869 -0.0029 -2.5008
  184SLPC  H17S21163  -0.053   6.774   9.209  0.1518  0.5866  0.2382
  184SLPC  C21821164  -0.123   6.657   9.035 -0.9526 -0.5238 -0.3895
  184SLPC  H18R21165  -0.223   6.637   9.080 -0.8218  1.6410  1.0207
  184SLPC  H18S21166  -0.044   6.580   9.046  1.6034  1.9618 -0.1405
  184SLPC  H18T21167  -0.135   6.675   8.926  0.2524  0.9728 -0.3041
  184SLPC   C3321168  -0.048   6.857  10.354  0.5399  0.2255 -0.1223
  184SLPC   H3X21169  -0.028   6.749  10.341  2.0098  0.2346  1.7545
  184SLPC   H3Y21170  -0.041   6.914  10.258 -1.4895  0.5324 -0.1414
  184SLPC   C3421171  -0.181   6.879  10.425  0.9254  0.1620  0.0457
  184SLPC   H4X21172  -0.202   6.987  10.438 -2.3573 -0.2084 -1.2241
  184SLPC   H4Y21173  -0.191   6.818  10.518 -1.4689 -0.8582 -0.8144
  184SLPC   C3521174  -0.312   6.826  10.352 -0.7475  0.0670 -0.3257
  184SLPC   H5X21175  -0.386   6.889  10.404 -0.5468  0.4237 -0.4679
  184SLPC   H5Y21176  -0.336   6.721  10.378  0.3371 -0.0563  0.2273
  184SLPC   C3621177  -0.315   6.846  10.203 -0.0035  0.1400 -0.1256
  184SLPC   H6X21178  -0.242   6.775  10.160 -1.1556 -1.6881  0.8206
  184SLPC   H6Y21179  -0.276   6.946  10.175 -0.3773  0.1811 -0.5211
  184SLPC   C3721180  -0.455   6.831  10.132 -0.2187 -0.1883  0.5643
  184SLPC   H7X21181  -0.523   6.906  10.176 -2.1903 -1.4755 -0.1691
  184SLPC   H7Y21182  -0.509   6.737  10.155 -0.5182  0.0795  0.9679
  184SLPC   C3821183  -0.442   6.834   9.978  0.6646  0.4519 -0.4485
  184SLPC   H8X21184  -0.376   6.749   9.950  0.6617  0.2437  0.1538
  184SLPC   H8Y21185  -0.406   6.934   9.946 -1.6553  1.4977  0.0243
  184SLPC   C3921186  -0.577   6.814   9.898  0.3909  0.5193  0.3176
  184SLPC   H9X21187  -0.651   6.889   9.933  2.2088  2.9524 -0.7834
  184SLPC   H9Y21188  -0.619   6.712   9.909  1.0826  0.2037  0.0939
  184SLPC  C31021189  -0.564   6.832   9.742 -0.2763 -0.3903 -0.3681
  184SLPC  H10X21190  -0.511   6.924   9.709 -1.2579  0.1730 -0.4432
  184SLPC  H10Y21191  -0.662   6.840   9.689 -0.1918  0.4846 -0.4116
  184SLPC  C31121192  -0.481   6.721   9.683 -0.6912  0.1652  0.0454
  184SLPC  H11X21193  -0.467   6.643   9.762 -0.7926 -0.2632 -0.3554
  184SLPC  H11Y21194  -0.379   6.750   9.649  0.1211 -2.6049 -0.2072
  184SLPC  C31221195  -0.556   6.648   9.566 -0.2344  0.8600  0.3157
  184SLPC  H12X21196  -0.575   6.722   9.485 -1.3140  0.6270  0.3348
  184SLPC  H12Y21197  -0.656   6.632   9.612 -0.3284 -2.8754 -0.8020
  184SLPC  C31321198  -0.475   6.519   9.531  0.7887  0.1622  0.1521
  184SLPC  H13X21199  -0.470   6.470   9.631 -1.5298  0.8571  0.6816
  184SLPC  H13Y21200  -0.377   6.543   9.484 -0.3095  0.3704 -2.1524
  184SLPC  C31421201  -0.539   6.423   9.423 -0.1760 -0.0157 -0.6845
  184SLPC  H14X21202  -0.455   6.359   9.391  0.2183 -0.1112  0.4949
  184SLPC  H14Y21203  -0.584   6.482   9.340 -1.9077  2.4749  1.8086
  184SLPC  C31521204  -0.653   6.336   9.482 -0.0234  0.6366  0.3301
  184SLPC  H15X21205  -0.738   6.406   9.496  0.1665  1.3063 -1.5767
  184SLPC  H15Y21206  -0.625   6.291   9.580 -1.0215  1.1469  0.8673
  184SLPC  C31621207  -0.700   6.222   9.387 -0.0181 -0.2875  0.5546
  184SLPC  H16X21208  -0.731   6.260   9.287 -0.4543 -0.0557  0.7767
  184SLPC  H16Y21209  -0.787   6.173   9.436  1.1657 -3.7161 -0.4810
  184SLPC  C31721210  -0.594   6.117   9.369 -0.5667 -0.1195 -0.1042
  184SLPC  H17X21211  -0.579   6.051   9.457 -0.6797 -0.7002 -0.5099
  184SLPC  H17Y21212  -0.498   6.165   9.342 -1.2920  1.1867 -0.4234
  184SLPC  C31821213  -0.642   6.020   9.253 -0.1104  0.6427 -0.2649
  184SLPC  H18X21214  -0.742   5.980   9.281 -0.5262  0.3388 -2.0324
  184SLPC  H18Y21215  -0.568   5.940   9.230 -1.3522 -0.1134 -1.8491
  184SLPC  H18Z21216  -0.642   6.068   9.152  2.3552  0.4868 -0.4086
  185SLPC     N21217   4.536   1.623   6.078 -0.2315  0.7977  0.6103
  185SLPC   C1321218   4.613   1.521   5.990 -0.5552  0.2517 -0.5760
  185SLPC  H13A21219   4.568   1.518   5.892  1.4909 -1.2267 -1.5519
  185SLPC  H13B21220   4.714   1.554   5.968  0.0957 -0.9883  0.4067
  185SLPC  H13C21221   4.622   1.421   6.030  2.8894  0.1666 -1.2177
  185SLPC   C1421222   4.395   1.579   6.087 -0.3084 -0.0156 -0.2656
  185SLPC  H14A21223   4.384   1.488   6.142 -0.3473  1.3794  2.1663
  185SLPC  H14B21224   4.338   1.651   6.144 -2.3760 -1.2363 -0.7103
  185SLPC  H14C21225   4.355   1.559   5.988  1.2027 -0.2327 -0.8550
  185SLPC   C1521226   4.540   1.751   6.011 -0.2652  0.3359 -0.1075
  185SLPC  H15A21227   4.484   1.741   5.919 -1.1709  1.8866  0.2413
  185SLPC  H15B21228   4.502   1.836   6.066  1.4460  1.9579 -1.3172
  185SLPC  H15C21229   4.642   1.782   5.995 -0.3142  1.4402  1.4725
  185SLPC   C1221230   4.607   1.629   6.214  0.9056  0.1109  0.0795
  185SLPC  H12A21231   4.703   1.671   6.189  0.0333  2.2042  0.0585
  185SLPC  H12B21232   4.614   1.528   6.253  1.0071  0.9320  2.3616
  185SLPC   C1121233   4.545   1.719   6.322 -0.0033  0.4123 -0.5343
  185SLPC  H11A21234   4.555   1.817   6.272  4.1714  0.7519  0.6104
  185SLPC  H11B21235   4.613   1.736   6.408 -0.1789 -0.1140 -0.2808
  185SLPC     P21236   4.402   1.548   6.435  0.3086  0.0907 -0.3060
  185SLPC   O1321237   4.298   1.467   6.372  0.7179  0.3888  0.3460
  185SLPC   O1421238   4.537   1.488   6.458  0.2175 -0.0994 -0.2478
  185SLPC   O1221239   4.408   1.689   6.361 -0.4242  0.1198  0.3092
  185SLPC   O1121240   4.348   1.587   6.579  0.8805  0.8835 -0.2034
  185SLPC    C121241   4.376   1.710   6.642 -0.1924 -0.2177  0.6210
  185SLPC    HA21242   4.368   1.794   6.569 -1.6678  0.3353  1.3863
  185SLPC    HB21243   4.300   1.736   6.718 -0.0038 -1.8283  1.3909
  185SLPC    C221244   4.514   1.701   6.711 -0.0192 -0.4549  0.6244
  185SLPC    HS21245   4.576   1.661   6.629  0.1677 -0.3594  0.7182
  185SLPC   O2121246   4.504   1.600   6.815  0.2120 -0.0647 -0.1535
  185SLPC   C2121247   4.611   1.583   6.884  0.2052  0.7430  0.0291
  185SLPC   O2221248   4.721   1.618   6.861 -0.0739 -0.4716 -0.1950
  185SLPC   C2221249   4.573   1.500   7.012 -0.3095  0.0610 -0.0151
  185SLPC   H2R21250   4.466   1.522   7.031 -0.8848 -0.6182 -2.1685
  185SLPC   H2S21251   4.580   1.390   6.993 -3.7519 -0.5585  1.5192
  185SLPC    C321252   4.562   1.841   6.759  0.8715 -0.4044 -0.0742
  185SLPC    HX21253   4.570   1.911   6.674 -2.3900 -0.3943 -0.5097
  185SLPC    HY21254   4.665   1.838   6.800  1.7112  3.3191 -1.5611
  185SLPC   O3121255   4.470   1.890   6.858  0.5086 -0.2947  0.0568
  185SLPC   C3121256   4.488   2.008   6.914  0.1647  0.2195 -0.3451
  185SLPC   O3221257   4.583   2.078   6.894 -0.2235 -0.5278  0.5319
  185SLPC   C3221258   4.390   2.036   7.023  0.0161  0.4468 -0.2435
  185SLPC   H2X21259   4.296   1.998   6.979  1.9635 -3.8099 -1.3017
  185SLPC   H2Y21260   4.377   2.144   7.047  1.7159  0.5776  0.2218
  185SLPC   C2321261   4.653   1.554   7.135  0.3120 -0.1042 -0.0859
  185SLPC   H3R21262   4.603   1.652   7.152 -0.8897 -0.9082  1.1909
  185SLPC   H3S21263   4.763   1.553   7.115  0.2381 -0.6778 -0.4773
  185SLPC   C2421264   4.637   1.462   7.254 -0.0831  0.1051 -0.1505
  185SLPC   H4R21265   4.673   1.364   7.216 -0.6295 -0.2184  0.1606
  185SLPC   H4S21266   4.529   1.450   7.279 -0.4676  2.2196 -0.6056
  185SLPC   C2521267   4.711   1.507   7.382  0.3559  0.2595 -0.0472
  185SLPC   H5R21268   4.712   1.618   7.393  0.4261  0.1848  0.7526
  185SLPC   H5S21269   4.816   1.471   7.377  1.0761  2.2825 -0.3323
  185SLPC   C2621270   4.646   1.450   7.501  0.0463 -0.0168 -0.5708
  185SLPC   H6R21271   4.607   1.352   7.465  0.1119 -0.1057 -0.4003
  185SLPC   H6S21272   4.553   1.505   7.526  1.1682  1.3406  0.8690
  185SLPC   C2721273   4.734   1.433   7.628 -0.5380 -0.0749 -0.3622
  185SLPC   H7R21274   4.782   1.533   7.624  0.8443 -0.7124 -0.3448
  185SLPC   H7S21275   4.812   1.355   7.617 -0.2634  0.0726  0.5147
  185SLPC   C2821276   4.664   1.416   7.759 -0.5658 -0.1974 -0.7400
  185SLPC   H8R21277   4.576   1.483   7.771 -0.5839 -0.1597 -1.0761
  185SLPC   H8S21278   4.732   1.444   7.843 -1.1924  0.3942 -0.4090
  185SLPC   C2921279   4.603   1.282   7.775 -0.3498 -0.7717 -0.3512
  185SLPC   H9R21280   4.518   1.271   7.706  0.0109 -0.4138 -0.8644
  185SLPC  C21021281   4.638   1.187   7.866  0.1311  0.9924  0.6216
  185SLPC  H10R21282   4.577   1.096   7.876  0.7067  0.7418  1.9503
  185SLPC  C21121283   4.749   1.198   7.964 -0.2595 -0.9422 -0.0669
  185SLPC  H11R21284   4.699   1.260   8.041  1.6102 -0.8608  1.1472
  185SLPC  H11S21285   4.843   1.243   7.928 -0.2143 -1.7343 -0.9986
  185SLPC  C21221286   4.779   1.064   8.022 -0.1161 -0.3575  0.7261
  185SLPC  H12R21287   4.850   1.002   7.966 -0.5014  0.6238 -0.9096
  185SLPC  C21321288   4.740   1.027   8.146  0.3005  0.1673 -1.0475
  185SLPC  H13R21289   4.795   0.938   8.182 -0.3149 -0.5438 -1.8310
  185SLPC  C21421290   4.661   1.103   8.244 -0.7243 -0.0665  0.3154
  185SLPC  H14R21291   4.556   1.098   8.208 -1.0206  3.0945  0.4233
  185SLPC  H14S21292   4.685   1.211   8.254 -0.1735 -0.4155  5.5787
  185SLPC  C21521293   4.672   1.035   8.381  0.0510 -0.0589  0.1704
  185SLPC  H15R21294   4.777   1.060   8.408 -0.0664  1.7388 -0.8389
  185SLPC  H15S21295   4.650   0.927   8.372 -0.0581  0.0097 -0.4841
  185SLPC  C21621296   4.570   1.092   8.479  0.0778  0.5978  0.6650
  185SLPC  H16R21297   4.470   1.060   8.445  0.7210 -0.4008 -0.3751
  185SLPC  H16S21298   4.566   1.203   8.480  1.2461  0.6611  0.4239
  185SLPC  C21721299   4.601   1.041   8.614 -0.0408 -0.4431 -0.4803
  185SLPC  H17R21300   4.691   1.088   8.660 -0.0632 -1.0259  0.1910
  185SLPC  H17S21301   4.616   0.931   8.607  0.5762 -0.3467 -0.7871
  185SLPC  C21821302   4.484   1.083   8.706  0.0177 -0.0581  0.2406
  185SLPC  H18R21303   4.491   1.189   8.737 -2.9644 -0.4383  2.6231
  185SLPC  H18S21304   4.497   1.020   8.796  3.2111 -1.9383 -1.3739
  185SLPC  H18T21305   4.383   1.060   8.665 -1.1465  1.9243  1.8050
  185SLPC   C3321306   4.434   1.962   7.151 -0.4622 -0.4045 -0.3224
  185SLPC   H3X21307   4.438   1.852   7.136  0.8445 -0.1157 -2.6500
  185SLPC   H3Y21308   4.359   1.977   7.231  0.3233  0.9809  0.1938
  185SLPC   C3421309   4.567   2.020   7.215 -0.1708 -0.6951  0.8126
  185SLPC   H4X21310   4.548   2.129   7.226  2.2685 -0.1738  0.4574
  185SLPC   H4Y21311   4.656   2.007   7.150 -0.0540  0.0184  0.8185
  185SLPC   C3521312   4.611   1.956   7.351 -0.1044 -0.1107  0.4134
  185SLPC   H5X21313   4.715   1.993   7.367 -0.2172  0.1859  0.4765
  185SLPC   H5Y21314   4.613   1.845   7.345  0.3190 -0.0747 -0.1445
  185SLPC   C3621315   4.531   1.984   7.478 -0.1094  0.1807  0.3555
  185SLPC   H6X21316   4.432   1.939   7.455  0.1852 -0.5176  0.4356
  185SLPC   H6Y21317   4.522   2.094   7.484 -0.4932  0.1350  0.6653
  185SLPC   C3721318   4.591   1.930   7.607 -0.1077  0.4515  0.0682
  185SLPC   H7X21319   4.701   1.945   7.601 -0.4221  2.7914 -1.0483
  185SLPC   H7Y21320   4.561   1.823   7.598  3.8269 -0.7195 -1.5898
  185SLPC   C3821321   4.514   1.988   7.727  0.8977 -0.8559 -0.1182
  185SLPC   H8X21322   4.405   1.968   7.725  0.6655  0.4001 -1.1221
  185SLPC   H8Y21323   4.530   2.098   7.727 -1.9340 -0.3498 -1.7572
  185SLPC   C3921324   4.572   1.950   7.867  0.0571  0.4670 -0.5643
  185SLPC   H9X21325   4.674   1.994   7.874  0.2190  0.1953 -1.1366
  185SLPC   H9Y21326   4.572   1.839   7.873 -2.0149  0.4483 -0.0496
  185SLPC  C31021327   4.486   2.011   7.982 -0.3094  0.7350 -0.2016
  185SLPC  H10X21328   4.380   1.979   7.977  0.6123 -2.8472  0.3085
  185SLPC  H10Y21329   4.492   2.120   7.964  0.0890  0.7933  0.2588
  185SLPC  C31121330   4.563   1.977   8.116  0.3495 -0.5875  0.5715
  185SLPC  H11X21331   4.666   2.015   8.104  0.0046 -0.4081 -2.7188
  185SLPC  H11Y21332   4.557   1.867   8.134 -1.5241 -0.7910 -0.9363
  185SLPC  C31221333   4.501   2.049   8.242 -0.5501 -0.2483  0.1400
  185SLPC  H12X21334   4.507   2.158   8.217  1.7748 -0.5417 -0.8768
  185SLPC  H12Y21335   4.575   2.036   8.324  0.9353  1.3800 -0.8503
  185SLPC  C31321336   4.352   2.010   8.249 -0.9262  0.2898  0.2092
  185SLPC  H13X21337   4.361   1.899   8.253  1.3790  0.3545 -0.9792
  185SLPC  H13Y21338   4.292   2.043   8.162 -0.4904 -0.1865 -0.2806
  185SLPC  C31421339   4.285   2.065   8.374 -0.0954 -0.1408 -0.1091
  185SLPC  H14X21340   4.287   2.176   8.376  1.4660 -0.1421 -0.6800
  185SLPC  H14Y21341   4.336   2.029   8.466  0.4322  1.9016  0.4491
  185SLPC  C31521342   4.137   2.022   8.394 -0.3402 -0.0804 -0.4142
  185SLPC  H15X21343   4.132   1.911   8.395  2.0144 -0.2547  0.9413
  185SLPC  H15Y21344   4.089   2.060   8.302 -1.3430  2.2996  1.0039
  185SLPC  C31621345   4.075   2.081   8.514 -0.2689 -0.5817  0.0103
  185SLPC  H16X21346   4.091   2.190   8.523 -1.4804 -0.4230  0.3090
  185SLPC  H16Y21347   4.111   2.027   8.604 -2.4120 -2.1570  0.0065
  185SLPC  C31721348   3.923   2.067   8.506  0.4298 -0.0225 -0.4220
  185SLPC  H17X21349   3.888   2.129   8.421 -1.8254  0.4144  0.7344
  185SLPC  H17Y21350   3.873   2.111   8.595 -0.6674 -1.2216 -0.4112
  185SLPC  C31821351   3.859   1.930   8.487 -0.4104  1.3771  0.2580
  185SLPC  H18X21352   3.748   1.937   8.489 -0.6988 -1.7237  0.8092
  185SLPC  H18Y21353   3.882   1.857   8.567 -2.4747  1.8770  1.3741
  185SLPC  H18Z21354   3.895   1.883   8.393  2.3848 -1.2432  2.4286
  186SLPC     N21355   6.592   3.977   6.399 -0.6779  0.4296  0.5905
  186SLPC   C1321356   6.717   3.903   6.444  0.2761 -0.1593  0.0425
  186SLPC  H13A21357   6.787   3.880   6.365 -0.1130  0.5887 -0.5275
  186SLPC  H13B21358   6.771   3.943   6.529 -0.3555 -0.8306  0.7806
  186SLPC  H13C21359   6.693   3.803   6.479  0.9127  0.2333  1.7326
  186SLPC   C1421360   6.644   4.098   6.339  0.0138 -0.9997 -0.4688
  186SLPC  H14A21361   6.570   4.167   6.304 -0.0178 -0.6381  0.2845
  186SLPC  H14B21362   6.699   4.158   6.410  0.1159 -2.1630  0.4847
  186SLPC  H14C21363   6.721   4.071   6.268  1.0083 -1.8994  0.8661
  186SLPC   C1521364   6.495   4.001   6.509 -0.3316 -0.2988 -0.2675
  186SLPC  H15A21365   6.403   4.038   6.467 -1.6263 -1.7751  1.1168
  186SLPC  H15B21366   6.475   3.907   6.559 -0.2005 -0.1494  0.0627
  186SLPC  H15C21367   6.525   4.071   6.585 -1.0849  0.8260 -0.9756
  186SLPC   C1221368   6.534   3.873   6.296 -0.1430  0.0413  0.1939
  186SLPC  H12A21369   6.500   3.787   6.351 -1.6539  0.1245 -0.5695
  186SLPC  H12B21370   6.622   3.847   6.239  0.2050  1.1184  0.2138
  186SLPC   C1121371   6.414   3.923   6.198 -0.4285 -0.4117 -0.2180
  186SLPC  H11A21372   6.391   3.832   6.139  2.2373 -0.7758 -0.7899
  186SLPC  H11B21373   6.472   3.991   6.132 -0.2910 -0.1969  0.1204
  186SLPC     P21374   6.259   4.129   6.211 -0.1674 -0.0752 -0.0238
  186SLPC   O1321375   6.378   4.216   6.204  0.0178  0.7760  0.0258
  186SLPC   O1421376   6.179   4.116   6.088 -0.1178  0.3160  0.0490
  186SLPC   O1221377   6.297   3.979   6.255  0.0762 -0.1081 -0.3550
  186SLPC   O1121378   6.176   4.192   6.334  0.3054  0.1984  0.2723
  186SLPC    C121379   6.059   4.119   6.370  0.8491 -0.9593  0.0789
  186SLPC    HA21380   5.976   4.142   6.301  0.8501 -1.7524 -0.2020
  186SLPC    HB21381   6.070   4.008   6.379  1.1176 -1.1189 -1.8685
  186SLPC    C221382   6.017   4.162   6.518 -0.0745 -0.1370 -0.0674
  186SLPC    HS21383   5.996   4.271   6.513 -1.0363 -0.1649  2.1645
  186SLPC   O2121384   6.124   4.116   6.604 -0.5406 -0.4879  0.7302
  186SLPC   C2121385   6.141   4.185   6.719 -0.3489  0.1844 -0.0706
  186SLPC   O2221386   6.066   4.272   6.761 -0.0772  0.6001 -0.7818
  186SLPC   C2221387   6.267   4.130   6.788  0.5105  0.3802  0.6730
  186SLPC   H2R21388   6.243   4.036   6.843 -1.0670  0.8148  0.7756
  186SLPC   H2S21389   6.338   4.100   6.708 -1.3476 -0.0915 -0.8918
  186SLPC    C321390   5.883   4.095   6.558 -0.7076  0.0469 -0.0443
  186SLPC    HX21391   5.915   3.991   6.583  0.4171  0.4532  0.2793
  186SLPC    HY21392   5.816   4.107   6.471 -1.3669  0.8435  0.5645
  186SLPC   O3121393   5.827   4.143   6.680 -0.0871 -0.1168  0.2490
  186SLPC   C3121394   5.774   4.269   6.673  0.4755  0.6912  0.0607
  186SLPC   O3221395   5.780   4.345   6.582 -0.7999 -0.2479 -0.0496
  186SLPC   C3221396   5.691   4.287   6.808  0.4180 -0.8486 -0.4502
  186SLPC   H2X21397   5.762   4.280   6.893  0.8124  3.6770 -0.1830
  186SLPC   H2Y21398   5.620   4.201   6.806  0.2588 -0.7512  0.4799
  186SLPC   C2321399   6.325   4.225   6.892  0.2649 -0.4737 -0.3633
  186SLPC   H3R21400   6.242   4.262   6.956  0.9717 -1.6733  1.3154
  186SLPC   H3S21401   6.383   4.308   6.845 -1.3610  2.0683  1.8510
  186SLPC   C2421402   6.423   4.165   6.997  0.2927 -0.5047  0.3102
  186SLPC   H4R21403   6.361   4.093   7.055 -2.6280  1.6255  0.0777
  186SLPC   H4S21404   6.454   4.248   7.064  0.5283  1.8434 -2.5021
  186SLPC   C2521405   6.549   4.095   6.938 -0.1260  0.2156  0.1399
  186SLPC   H5R21406   6.602   4.174   6.879 -0.6473  0.6212  0.2069
  186SLPC   H5S21407   6.515   4.024   6.859 -2.0311  1.0487  0.1490
  186SLPC   C2621408   6.648   4.031   7.037 -0.4219 -0.1508  0.0937
  186SLPC   H6R21409   6.659   4.108   7.116 -0.8481  0.6404 -0.6014
  186SLPC   H6S21410   6.752   4.009   7.005 -1.6178 -2.5593 -2.5204
  186SLPC   C2721411   6.590   3.904   7.100 -0.8037 -0.7379 -0.5642
  186SLPC   H7R21412   6.563   3.840   7.013  1.1482 -0.3343 -1.5126
  186SLPC   H7S21413   6.493   3.927   7.151  0.3415  0.2042  1.2884
  186SLPC   C2821414   6.687   3.814   7.183 -0.1735 -0.6522 -0.4215
  186SLPC   H8R21415   6.727   3.872   7.269  0.6685  0.4843 -1.5508
  186SLPC   H8S21416   6.776   3.813   7.117  1.7454 -0.7676  1.9966
  186SLPC   C2921417   6.648   3.671   7.216 -0.3673 -0.2297  0.3065
  186SLPC   H9R21418   6.607   3.623   7.126  1.5376  2.0184 -1.9030
  186SLPC  C21021419   6.634   3.614   7.336 -0.4408  0.3119  0.0571
  186SLPC  H10R21420   6.596   3.511   7.333 -2.3038  0.9424  0.6475
  186SLPC  C21121421   6.668   3.665   7.473 -0.8328  0.6072  0.2821
  186SLPC  H11R21422   6.574   3.652   7.531 -0.0298 -1.2957  1.2404
  186SLPC  H11S21423   6.694   3.771   7.454  4.2851 -0.5228 -0.2869
  186SLPC  C21221424   6.785   3.598   7.549 -0.1710  0.1986 -0.0944
  186SLPC  H12R21425   6.882   3.626   7.507 -0.2935  0.5432 -0.1537
  186SLPC  C21321426   6.779   3.505   7.648  0.0275 -0.2470 -0.3237
  186SLPC  H13R21427   6.869   3.469   7.700 -0.7048 -1.6064  0.0403
  186SLPC  C21421428   6.657   3.451   7.717 -0.3406 -0.2695  1.1079
  186SLPC  H14R21429   6.637   3.354   7.668 -2.4734  1.6101 -2.1470
  186SLPC  H14S21430   6.569   3.502   7.671  1.3108 -1.0062 -3.3391
  186SLPC  C21521431   6.653   3.452   7.870  0.0186  0.4359 -0.1107
  186SLPC  H15R21432   6.744   3.426   7.929 -0.2681 -0.0090  0.1397
  186SLPC  H15S21433   6.579   3.372   7.890  0.6887 -0.4339 -1.0175
  186SLPC  C21621434   6.582   3.573   7.943 -0.0964 -0.1578 -0.0195
  186SLPC  H16R21435   6.619   3.568   8.048 -0.9758  2.9497  0.5393
  186SLPC  H16S21436   6.472   3.582   7.943 -0.0908 -0.0826 -0.3927
  186SLPC  C21721437   6.638   3.708   7.900 -0.7171 -0.5295  0.0089
  186SLPC  H17R21438   6.575   3.792   7.937 -0.0481  0.1580 -0.3719
  186SLPC  H17S21439   6.619   3.707   7.790 -1.3722 -2.1619  0.1059
  186SLPC  C21821440   6.783   3.732   7.942 -0.5708  0.3824  0.6061
  186SLPC  H18R21441   6.847   3.653   7.897 -0.3054  0.0325  1.5742
  186SLPC  H18S21442   6.802   3.729   8.051  3.5097 -1.7152  0.0209
  186SLPC  H18T21443   6.828   3.829   7.914  1.1638 -0.7375 -0.7201
  186SLPC   C3321444   5.619   4.427   6.824  0.1963 -0.5652  0.7547
  186SLPC   H3X21445   5.527   4.440   6.764  1.5877 -0.2418 -1.4098
  186SLPC   H3Y21446   5.689   4.501   6.781 -0.3674 -1.0615 -1.1283
  186SLPC   C3421447   5.581   4.457   6.973  0.4267  0.8844 -0.2857
  186SLPC   H4X21448   5.669   4.466   7.040  0.0330  0.6688  0.2688
  186SLPC   H4Y21449   5.522   4.369   7.006 -0.0001  1.3663  0.2573
  186SLPC   C3521450   5.500   4.583   6.986 -0.1982  0.5672  0.9411
  186SLPC   H5X21451   5.407   4.564   6.927 -0.4558  1.0809  1.1810
  186SLPC   H5Y21452   5.558   4.662   6.934 -1.6984  0.8316 -0.4180
  186SLPC   C3621453   5.466   4.629   7.125  0.1886 -0.3674  0.1536
  186SLPC   H6X21454   5.415   4.548   7.181  1.1489 -1.0188  0.1134
  186SLPC   H6Y21455   5.385   4.705   7.120  1.4381  1.1312  1.4648
  186SLPC   C3721456   5.585   4.678   7.209  1.0283  0.5255 -0.2653
  186SLPC   H7X21457   5.651   4.747   7.152  0.2705 -0.7623 -2.8891
  186SLPC   H7Y21458   5.647   4.588   7.232 -2.5737 -1.7039  1.6523
  186SLPC   C3821459   5.540   4.754   7.339 -0.2035  0.2717  0.3507
  186SLPC   H8X21460   5.477   4.688   7.403 -1.9232  0.4918 -1.0499
  186SLPC   H8Y21461   5.463   4.822   7.298  0.3499  1.7275  1.6180
  186SLPC   C3921462   5.646   4.849   7.399  0.7307 -0.5356  0.3286
  186SLPC   H9X21463   5.591   4.940   7.432 -0.4112 -1.5650  1.3995
  186SLPC   H9Y21464   5.706   4.883   7.312 -2.5289  1.7437 -1.2526
  186SLPC  C31021465   5.732   4.796   7.512 -0.1457  0.2211 -0.2821
  186SLPC  H10X21466   5.799   4.718   7.471  0.4053  0.1380  0.7440
  186SLPC  H10Y21467   5.666   4.740   7.581  0.9195 -2.1312 -1.0644
  186SLPC  C31121468   5.811   4.898   7.598  0.2211 -1.2373  0.0686
  186SLPC  H11X21469   5.868   4.964   7.528 -0.2476 -1.6344 -0.7062
  186SLPC  H11Y21470   5.886   4.851   7.665  2.2614  1.3047 -0.2687
  186SLPC  C31221471   5.720   5.013   7.664 -0.4677  0.6377 -0.8762
  186SLPC  H12X21472   5.622   5.026   7.614  0.1340 -1.3779 -2.7691
  186SLPC  H12Y21473   5.767   5.114   7.653 -0.1136  0.5693 -0.0583
  186SLPC  C31321474   5.718   4.996   7.819  0.5483  0.5358  0.6728
  186SLPC  H13X21475   5.727   5.097   7.864  0.7336  1.5825 -1.5642
  186SLPC  H13Y21476   5.806   4.935   7.848  1.0815  0.9359 -0.0937
  186SLPC  C31421477   5.597   4.918   7.865 -0.3857 -0.2400  0.3145
  186SLPC  H14X21478   5.619   4.810   7.851  0.5512 -0.3304  2.1122
  186SLPC  H14Y21479   5.509   4.953   7.809 -0.9582 -0.9659  0.7365
  186SLPC  C31521480   5.569   4.933   8.014 -0.7178 -0.3899 -0.2163
  186SLPC  H15X21481   5.469   4.889   8.034 -0.4065 -0.2729  1.7649
  186SLPC  H15Y21482   5.568   5.041   8.039  0.8338 -0.4452  0.1849
  186SLPC  C31621483   5.679   4.873   8.109  0.7581  0.2357 -0.3330
  186SLPC  H16X21484   5.661   4.919   8.208 -0.3263  0.6779 -0.7229
  186SLPC  H16Y21485   5.781   4.892   8.068  0.8071 -2.0742 -1.4296
  186SLPC  C31721486   5.674   4.722   8.118  0.4292 -0.6527 -0.5498
  186SLPC  H17X21487   5.751   4.669   8.178  0.4308 -0.4800 -0.3997
  186SLPC  H17Y21488   5.689   4.677   8.017 -0.4671 -2.2880  0.0105
  186SLPC  C31821489   5.540   4.667   8.167 -0.1172 -0.6501  0.0402
  186SLPC  H18X21490   5.548   4.557   8.185  2.2184 -0.7245 -1.0770
  186SLPC  H18Y21491   5.462   4.689   8.091  0.5641  0.9246 -0.2295
  186SLPC  H18Z21492   5.502   4.724   8.254 -3.2084  0.6171 -1.9702
  187SLPC     N21493   6.533   0.628   6.347  0.7939 -0.1009 -0.1886
  187SLPC   C1321494   6.471   0.578   6.218 -0.7758  0.3040  0.0608
  187SLPC  H13A21495   6.546   0.599   6.143 -1.0900 -0.9894 -0.6441
  187SLPC  H13B21496   6.447   0.473   6.216 -1.4377  0.4562 -1.2989
  187SLPC  H13C21497   6.383   0.632   6.188 -1.2807 -0.8110 -0.5230
  187SLPC   C1421498   6.598   0.759   6.309 -0.1306 -0.2565  0.1903
  187SLPC  H14A21499   6.657   0.747   6.220 -0.5562  0.8618 -0.2538
  187SLPC  H14B21500   6.521   0.829   6.280  0.1211 -0.3939 -0.8508
  187SLPC  H14C21501   6.653   0.805   6.390  2.2668 -0.4935 -1.2212
  187SLPC   C1521502   6.644   0.535   6.384 -0.1529  0.2862  0.4798
  187SLPC  H15A21503   6.684   0.491   6.295  0.4553 -2.3404  1.9434
  187SLPC  H15B21504   6.724   0.573   6.446 -0.2178  1.3626 -0.0763
  187SLPC  H15C21505   6.598   0.457   6.443  1.9981 -0.6739  0.9790
  187SLPC   C1221506   6.439   0.658   6.466  0.7134  0.5827 -0.1126
  187SLPC  H12A21507   6.349   0.706   6.430  0.4162 -0.2227 -0.4621
  187SLPC  H12B21508   6.490   0.727   6.532 -1.7450  2.0171  0.4086
  187SLPC   C1121509   6.383   0.537   6.546  0.2078  0.0454  0.0449
  187SLPC  H11A21510   6.330   0.572   6.637  0.5019 -0.2513  0.3370
  187SLPC  H11B21511   6.474   0.485   6.585 -1.3597 -2.3611  0.7021
  187SLPC     P21512   6.159   0.471   6.411 -0.1389 -0.1567 -0.0360
  187SLPC   O1321513   6.157   0.463   6.266  0.8055  0.0497  0.4309
  187SLPC   O1421514   6.064   0.385   6.487 -0.0082 -0.1759  0.5484
  187SLPC   O1221515   6.307   0.440   6.470  0.2561 -0.1580 -0.4782
  187SLPC   O1121516   6.132   0.625   6.456 -0.1252  0.3866 -0.0027
  187SLPC    C121517   6.003   0.673   6.504 -0.5671  0.9195  0.0533
  187SLPC    HA21518   5.928   0.661   6.424  0.3567  0.6767 -0.7952
  187SLPC    HB21519   5.962   0.616   6.590 -0.1430  1.6794  0.7799
  187SLPC    C221520   5.996   0.818   6.547 -1.0030 -0.5767 -1.2457
  187SLPC    HS21521   6.042   0.883   6.469  0.8999  2.0158  1.7636
  187SLPC   O2121522   6.081   0.827   6.662  0.0371  0.2102  0.1640
  187SLPC   C2121523   6.135   0.945   6.682  1.0286 -0.6510 -0.0271
  187SLPC   O2221524   6.115   1.043   6.610 -0.0198  0.5872 -0.0817
  187SLPC   C2221525   6.224   0.958   6.806  0.1536  0.0144 -0.2429
  187SLPC   H2R21526   6.193   0.870   6.868 -1.6930  0.3590 -0.6290
  187SLPC   H2S21527   6.329   0.946   6.773  0.4705  0.0205  0.7315
  187SLPC    C321528   5.848   0.864   6.564  0.7781 -0.0450 -0.8215
  187SLPC    HX21529   5.798   0.852   6.466  0.3868 -1.3790 -0.4792
  187SLPC    HY21530   5.853   0.972   6.590 -0.1144 -0.3259  0.6548
  187SLPC   O3121531   5.785   0.779   6.663  0.3254  0.3697 -0.2957
  187SLPC   C3121532   5.733   0.843   6.769  0.2151  0.1240 -0.0064
  187SLPC   O3221533   5.729   0.963   6.793  0.3277  0.1297 -0.4063
  187SLPC   C3221534   5.668   0.739   6.858  0.2357  0.5552 -0.7777
  187SLPC   H2X21535   5.665   0.641   6.806 -1.4755  0.2125 -0.1140
  187SLPC   H2Y21536   5.570   0.793   6.859 -0.9512 -1.5090 -0.0025
  187SLPC   C2321537   6.209   1.082   6.899  0.1179 -0.0299  0.5551
  187SLPC   H3R21538   6.234   1.175   6.844 -1.6686 -0.6237 -1.3681
  187SLPC   H3S21539   6.292   1.080   6.974  0.4828  1.3579  0.2127
  187SLPC   C2421540   6.072   1.102   6.961 -1.3975  0.6580 -0.4085
  187SLPC   H4R21541   6.000   1.059   6.888 -0.1429 -0.5678 -0.9577
  187SLPC   H4S21542   6.057   1.212   6.964  0.2814  1.0200 -2.8371
  187SLPC   C2521543   6.060   1.041   7.108 -0.5789  0.2974  0.0036
  187SLPC   H5R21544   6.079   0.932   7.103 -0.7024  0.3182 -0.9226
  187SLPC   H5S21545   5.955   1.050   7.143 -0.2263 -1.6437  1.8224
  187SLPC   C2621546   6.149   1.110   7.220  0.4504  0.0737  0.2519
  187SLPC   H6R21547   6.111   1.214   7.232 -0.2005 -0.2880  1.4938
  187SLPC   H6S21548   6.253   1.117   7.182 -0.0344  1.7820 -0.9093
  187SLPC   C2721549   6.139   1.033   7.349 -0.0864 -0.6102  0.3724
  187SLPC   H7R21550   6.133   0.927   7.318 -0.7516 -0.5911  0.4232
  187SLPC   H7S21551   6.053   1.064   7.413 -0.7710 -0.9216 -0.3829
  187SLPC   C2821552   6.271   1.066   7.430  0.0313 -0.4596 -0.5429
  187SLPC   H8R21553   6.355   1.043   7.362  0.8114 -1.7304  0.7979
  187SLPC   H8S21554   6.271   0.995   7.515 -1.0068 -2.2047 -1.9399
  187SLPC   C2921555   6.256   1.211   7.474 -0.0488  0.8800  0.2093
  187SLPC   H9R21556   6.253   1.283   7.391 -0.8471  1.3411  0.6281
  187SLPC  C21021557   6.255   1.253   7.602  0.4323  0.4356 -0.6947
  187SLPC  H10R21558   6.244   1.358   7.630 -0.8131  0.1146  0.1094
  187SLPC  C21121559   6.276   1.162   7.726 -0.7299 -0.3867  1.4384
  187SLPC  H11R21560   6.314   1.221   7.813  2.6636 -1.6939  1.0197
  187SLPC  H11S21561   6.364   1.096   7.709  0.2326  1.0885  0.3616
  187SLPC  C21221562   6.164   1.068   7.757  0.4455  0.2930  0.2334
  187SLPC  H12R21563   6.084   1.064   7.682 -0.3174  1.6742  0.9251
  187SLPC  C21321564   6.145   0.995   7.869 -0.3274 -0.5186 -0.9205
  187SLPC  H13R21565   6.049   0.943   7.883  0.2422 -0.9746  1.8673
  187SLPC  C21421566   6.237   0.996   7.983 -0.0968 -0.3165  0.0971
  187SLPC  H14R21567   6.307   1.083   7.987  0.3989 -0.7357  2.1375
  187SLPC  H14S21568   6.294   0.901   7.984  1.3115  0.4989  0.2927
  187SLPC  C21521569   6.154   1.008   8.111  0.1949 -0.3226  0.2999
  187SLPC  H15R21570   6.085   0.921   8.118  1.0427 -0.9318  1.4096
  187SLPC  H15S21571   6.108   1.107   8.130 -0.2428 -0.3131 -0.7181
  187SLPC  C21621572   6.237   0.979   8.241 -0.4453 -0.1859 -0.1938
  187SLPC  H16R21573   6.330   1.039   8.239 -0.3047 -0.4116 -0.4550
  187SLPC  H16S21574   6.271   0.874   8.235  0.8596  0.1950  0.1294
  187SLPC  C21721575   6.159   1.011   8.377 -0.9964  0.1327 -0.7508
  187SLPC  H17R21576   6.073   0.941   8.383 -0.4521 -0.4118  1.6081
  187SLPC  H17S21577   6.120   1.115   8.375  0.9050  0.9251  0.8208
  187SLPC  C21821578   6.252   0.988   8.497  0.1479 -0.5028  0.2945
  187SLPC  H18R21579   6.289   0.883   8.506 -1.6603 -0.9665  3.8039
  187SLPC  H18S21580   6.202   1.012   8.593  1.9889  1.0432  0.9381
  187SLPC  H18T21581   6.338   1.057   8.487 -0.2982  0.0764  0.4000
  187SLPC   C3321582   5.724   0.732   7.001 -0.0170 -0.7779 -0.6588
  187SLPC   H3X21583   5.651   0.677   7.064 -1.4622  0.4710 -1.1778
  187SLPC   H3Y21584   5.731   0.835   7.044  3.7421 -2.0607  2.3207
  187SLPC   C3421585   5.870   0.682   7.002  0.7100 -0.2718 -0.3094
  187SLPC   H4X21586   5.925   0.746   6.930  0.6648 -0.8120 -0.8277
  187SLPC   H4Y21587   5.872   0.579   6.961  0.2132 -1.3283  2.1368
  187SLPC   C3521588   5.935   0.683   7.142 -0.3008  0.5350 -0.0347
  187SLPC   H5X21589   5.886   0.762   7.203 -1.6367  1.3891 -2.0828
  187SLPC   H5Y21590   6.044   0.701   7.129  0.1160 -2.0072 -0.4612
  187SLPC   C3621591   5.917   0.555   7.231  0.6823 -0.2277  1.0743
  187SLPC   H6X21592   5.928   0.464   7.168 -1.5086  0.3672 -0.2693
  187SLPC   H6Y21593   5.812   0.552   7.265 -0.0970  5.4516  0.1213
  187SLPC   C3721594   6.009   0.545   7.344 -0.1710  0.0376 -0.6204
  187SLPC   H7X21595   5.986   0.456   7.406  1.0669 -1.8055 -2.6654
  187SLPC   H7Y21596   6.111   0.528   7.302  0.3732 -0.1499  0.7078
  187SLPC   C3821597   6.012   0.662   7.439 -0.3482  0.1910  0.5756
  187SLPC   H8X21598   5.908   0.697   7.458  0.6152  4.7867 -1.1848
  187SLPC   H8Y21599   6.070   0.743   7.390 -0.4999 -0.0276  0.0257
  187SLPC   C3921600   6.097   0.631   7.563 -1.0920  0.6891  0.0098
  187SLPC   H9X21601   6.124   0.728   7.610  1.8929  0.5845 -1.2874
  187SLPC   H9Y21602   6.198   0.596   7.532 -0.2226  1.1191  2.1580
  187SLPC  C31021603   6.045   0.545   7.680  0.0568  0.1396  0.1484
  187SLPC  H10X21604   6.068   0.437   7.688  0.5323  0.2057 -0.2984
  187SLPC  H10Y21605   5.935   0.538   7.666 -0.0793  1.3916  0.4564
  187SLPC  C31121606   6.083   0.608   7.812  0.3494 -0.6078  0.7212
  187SLPC  H11X21607   6.042   0.711   7.813 -0.0486 -0.7572  1.9260
  187SLPC  H11Y21608   6.193   0.613   7.829  0.6496  0.6762 -1.2759
  187SLPC  C31221609   6.023   0.544   7.937  0.4605 -0.3305  0.1153
  187SLPC  H12X21610   6.052   0.437   7.936  0.0626 -0.5344  2.9113
  187SLPC  H12Y21611   5.912   0.553   7.937  0.5021  0.2344  0.0213
  187SLPC  C31321612   6.075   0.610   8.067  0.4906 -0.3733  0.1041
  187SLPC  H13X21613   6.011   0.700   8.081 -0.0133 -0.4901 -1.2400
  187SLPC  H13Y21614   6.181   0.640   8.058  0.4986 -0.8414 -2.0232
  187SLPC  C31421615   6.047   0.525   8.195 -0.0000  0.0204  0.3038
  187SLPC  H14X21616   6.086   0.421   8.189 -0.2268 -0.2268  2.3612
  187SLPC  H14Y21617   5.937   0.523   8.210 -0.4105 -0.7115 -2.2930
  187SLPC  C31521618   6.100   0.584   8.324 -0.3242  0.4681 -0.4336
  187SLPC  H15X21619   6.052   0.683   8.342 -0.9044 -0.1848  2.0054
  187SLPC  H15Y21620   6.208   0.607   8.320 -0.4573  1.4529  0.8611
  187SLPC  C31621621   6.073   0.488   8.437  0.1556  0.1787  0.1979
  187SLPC  H16X21622   6.177   0.463   8.467  0.0567  0.3207  0.6715
  187SLPC  H16Y21623   6.036   0.387   8.406  1.7525 -1.7821  4.0250
  187SLPC  C31721624   5.991   0.552   8.549 -0.3050  0.5549  0.4998
  187SLPC  H17X21625   5.889   0.579   8.514 -0.5613  0.3379  1.0555
  187SLPC  H17Y21626   6.045   0.646   8.574  1.4787 -0.3829  0.2923
  187SLPC  C31821627   5.981   0.472   8.675 -0.2463  0.7904 -0.7622
  187SLPC  H18X21628   6.084   0.445   8.709 -0.6648 -0.2811 -0.3097
  187SLPC  H18Y21629   5.930   0.374   8.661 -0.0942  0.5456  0.2748
  187SLPC  H18Z21630   5.929   0.530   8.754  0.3852  0.8665 -0.3947
  188SLPC     N21631   0.768   2.963   6.008  0.1710  0.2062 -0.0858
  188SLPC   C1321632   0.887   2.873   5.984  0.0097  1.0243 -0.3331
  188SLPC  H13A21633   0.979   2.923   6.010 -0.5833  2.3060 -0.5976
  188SLPC  H13B21634   0.890   2.786   6.047  0.6263  0.4759 -1.1039
  188SLPC  H13C21635   0.883   2.848   5.879 -0.7308  0.9417 -0.2907
  188SLPC   C1421636   0.647   2.885   5.980  0.9089  0.0180  0.2822
  188SLPC  H14A21637   0.642   2.790   6.031 -0.9008  0.4395  0.9319
  188SLPC  H14B21638   0.558   2.938   6.009 -1.4830 -3.0974 -0.7427
  188SLPC  H14C21639   0.636   2.874   5.873 -1.9328 -0.0945  0.5152
  188SLPC   C1521640   0.779   3.076   5.910 -0.3003  0.2775  0.7912
  188SLPC  H15A21641   0.694   3.143   5.915 -0.0475  0.5056  3.7722
  188SLPC  H15B21642   0.865   3.133   5.942 -0.6956  0.3196  1.8343
  188SLPC  H15C21643   0.800   3.050   5.808 -0.3961 -0.2722  0.9077
  188SLPC   C1221644   0.766   3.005   6.153  0.4420  0.5345  0.1865
  188SLPC  H12A21645   0.769   2.914   6.210 -1.3694  1.4406  1.8489
  188SLPC  H12B21646   0.664   3.042   6.160 -0.4196 -1.4827 -0.7724
  188SLPC   C1121647   0.871   3.103   6.206 -0.5735 -0.2732  0.3108
  188SLPC  H11A21648   0.851   3.131   6.312 -1.3352  0.3754  0.0029
  188SLPC  H11B21649   0.873   3.188   6.134 -0.0344 -0.4419  0.1178
  188SLPC     P21650   1.063   2.940   6.305  0.0609  0.2226 -0.0834
  188SLPC   O1321651   0.956   2.847   6.339 -0.0777  0.2761 -0.4951
  188SLPC   O1421652   1.200   2.888   6.273 -0.0892  0.5170  0.2028
  188SLPC   O1221653   1.002   3.043   6.190 -0.3993  0.1804 -0.2437
  188SLPC   O1121654   1.069   3.047   6.419  0.1116  0.4583  0.4440
  188SLPC    C121655   1.171   3.145   6.448  0.0027  0.0462 -0.2769
  188SLPC    HA21656   1.227   3.163   6.354 -0.2336 -0.5731 -0.5399
  188SLPC    HB21657   1.120   3.237   6.484 -2.0357 -1.5607  1.1546
  188SLPC    C221658   1.265   3.092   6.561  0.0422 -0.6641  0.3499
  188SLPC    HS21659   1.297   2.995   6.518  0.8031  0.4243 -1.6479
  188SLPC   O2121660   1.181   3.081   6.675  0.0794  0.5494 -0.2218
  188SLPC   C2121661   1.220   2.984   6.757  0.0027 -0.1575 -0.7067
  188SLPC   O2221662   1.308   2.904   6.737  0.0506 -0.1492  0.6846
  188SLPC   C2221663   1.155   3.007   6.891 -0.1681  0.2486 -0.1976
  188SLPC   H2R21664   1.123   3.113   6.897  0.9845  0.6553 -0.9329
  188SLPC   H2S21665   1.053   2.963   6.901 -1.5861  3.0679 -1.2357
  188SLPC    C321666   1.387   3.183   6.582 -0.2298 -0.5808 -0.0222
  188SLPC    HX21667   1.359   3.289   6.596 -1.0324 -0.6823 -0.7834
  188SLPC    HY21668   1.448   3.186   6.489  2.2604  0.6485  1.5201
  188SLPC   O3121669   1.475   3.141   6.688  0.0949 -0.4086  0.1018
  188SLPC   C3121670   1.547   3.035   6.668 -0.4803  0.2623  0.0293
  188SLPC   O3221671   1.577   2.985   6.557 -0.0091 -0.5003 -0.5628
  188SLPC   C3221672   1.593   2.989   6.809 -0.7147  0.6970 -0.7475
  188SLPC   H2X21673   1.511   2.931   6.858  0.4633  1.9136  2.9950
  188SLPC   H2Y21674   1.606   3.081   6.870 -1.5216 -0.6510  1.5823
  188SLPC   C2321675   1.241   2.986   7.022 -0.0039 -0.1043 -0.3834
  188SLPC   H3R21676   1.294   2.889   7.034 -1.3009 -1.0323 -1.7842
  188SLPC   H3S21677   1.183   2.997   7.116  0.8664  0.4923  0.0988
  188SLPC   C2421678   1.347   3.097   7.038 -0.1530  0.1827 -0.0011
  188SLPC   H4R21679   1.292   3.194   7.037  0.2689  0.4492  1.1752
  188SLPC   H4S21680   1.407   3.076   6.947 -1.0067 -1.3545 -0.2640
  188SLPC   C2521681   1.427   3.099   7.169  0.3221  0.1494  0.0191
  188SLPC   H5R21682   1.492   3.187   7.148  1.4302 -0.5437  0.4501
  188SLPC   H5S21683   1.498   3.015   7.183  0.2551  0.1095  0.1213
  188SLPC   C2621684   1.343   3.120   7.294 -0.7591  0.3095 -0.3045
  188SLPC   H6R21685   1.292   3.025   7.320  1.4712 -0.3913  1.9633
  188SLPC   H6S21686   1.274   3.204   7.270 -1.5193 -0.8384 -2.3331
  188SLPC   C2721687   1.443   3.156   7.412  0.9181  0.3710 -0.5968
  188SLPC   H7R21688   1.402   3.225   7.489 -0.6074  0.6797 -1.6301
  188SLPC   H7S21689   1.532   3.204   7.367  1.0555 -0.4844 -1.2697
  188SLPC   C2821690   1.484   3.025   7.497  0.8620 -0.0683 -0.0628
  188SLPC   H8R21691   1.507   2.944   7.425  0.8687  0.0934 -0.2441
  188SLPC   H8S21692   1.395   2.988   7.553 -0.4531  0.5184 -1.6841
  188SLPC   C2921693   1.604   3.052   7.579  0.1042 -0.9484 -0.8496
  188SLPC   H9R21694   1.687   3.088   7.517  0.5035 -0.6334 -0.1454
  188SLPC  C21021695   1.612   3.037   7.715 -0.1552  0.0804  0.8581
  188SLPC  H10R21696   1.711   3.061   7.758 -0.2908  1.5750  0.4092
  188SLPC  C21121697   1.502   2.986   7.800 -0.2852 -0.0946 -1.0130
  188SLPC  H11R21698   1.544   2.964   7.900  1.9386  0.5300 -1.7633
  188SLPC  H11S21699   1.476   2.886   7.760  2.4819 -2.0375  1.5706
  188SLPC  C21221700   1.381   3.073   7.835  0.0307 -0.2162 -0.3876
  188SLPC  H12R21701   1.387   3.167   7.777  1.1271 -1.0745 -1.7079
  188SLPC  C21321702   1.271   3.051   7.914 -0.8965  0.2860 -0.0220
  188SLPC  H13R21703   1.194   3.129   7.905 -0.8983  0.4377  1.1000
  188SLPC  C21421704   1.236   2.918   7.982 -0.4442  0.7538 -0.3714
  188SLPC  H14R21705   1.173   2.929   8.073  0.8586 -1.1588  0.8273
  188SLPC  H14S21706   1.329   2.865   8.011 -1.6226 -1.5091 -0.5302
  188SLPC  C21521707   1.180   2.839   7.860 -0.2246  0.2718 -0.6591
  188SLPC  H15R21708   1.266   2.814   7.795  0.3010 -1.0369  0.4949
  188SLPC  H15S21709   1.104   2.906   7.814 -0.1641  1.8843  1.3987
  188SLPC  C21621710   1.095   2.720   7.903 -0.1292  0.1870  0.4375
  188SLPC  H16R21711   1.062   2.669   7.810 -1.2338 -0.7611  1.3170
  188SLPC  H16S21712   1.009   2.755   7.964  0.4746  0.4704  1.1400
  188SLPC  C21721713   1.171   2.611   7.983 -0.4547 -0.2176 -0.3599
  188SLPC  H17R21714   1.243   2.664   8.048 -0.8490  2.5657 -2.0484
  188SLPC  H17S21715   1.229   2.557   7.904  1.8047  0.5008  0.7226
  188SLPC  C21821716   1.078   2.513   8.052  0.4796 -0.3516 -0.3679
  188SLPC  H18R21717   0.992   2.489   7.985 -0.7161  0.0124  0.9966
  188SLPC  H18S21718   1.033   2.564   8.140  0.7997 -1.4820  0.4676
  188SLPC  H18T21719   1.119   2.417   8.089 -1.6304 -1.1408  0.0676
  188SLPC   C3321720   1.717   2.895   6.791  0.4084  0.0024  0.0200
  188SLPC   H3X21721   1.798   2.955   6.743  3.6089 -3.1739  0.9787
  188SLPC   H3Y21722   1.697   2.815   6.716  1.1291  2.0500 -2.5381
  188SLPC   C3421723   1.773   2.832   6.921  0.1226 -0.6706 -0.0313
  188SLPC   H4X21724   1.873   2.790   6.895  0.0105 -0.2801 -1.1483
  188SLPC   H4Y21725   1.713   2.742   6.946 -3.0199  1.3025  0.0118
  188SLPC   C3521726   1.771   2.933   7.034 -0.7956  0.0159  0.5911
  188SLPC   H5X21727   1.670   2.950   7.076  0.1167  0.9822  2.4989
  188SLPC   H5Y21728   1.807   3.026   6.985 -0.3467 -0.3327  0.2563
  188SLPC   C3621729   1.849   2.892   7.154  0.0395  0.3202 -0.5591
  188SLPC   H6X21730   1.873   2.985   7.211 -0.0605 -0.3609  0.6427
  188SLPC   H6Y21731   1.947   2.851   7.121  1.0560  0.9541  1.4976
  188SLPC   C3721732   1.766   2.794   7.247  0.5277  0.3638  0.5114
  188SLPC   H7X21733   1.755   2.697   7.195  0.6817  1.1450 -1.0288
  188SLPC   H7Y21734   1.665   2.836   7.266  1.1307  2.6053 -0.9173
  188SLPC   C3821735   1.823   2.768   7.392 -0.1752  0.1371  0.4848
  188SLPC   H8X21736   1.864   2.861   7.436 -1.4609  1.3233 -0.7150
  188SLPC   H8Y21737   1.915   2.706   7.379  0.0103  0.9401 -3.0551
  188SLPC   C3921738   1.727   2.698   7.486  0.1185  0.6294  0.1070
  188SLPC   H9X21739   1.735   2.589   7.464  1.0708  0.7004  0.0302
  188SLPC   H9Y21740   1.622   2.725   7.463  0.6270 -0.1687 -3.8600
  188SLPC  C31021741   1.772   2.710   7.631  0.0108  0.1049  0.2414
  188SLPC  H10X21742   1.789   2.815   7.663 -0.5945 -0.0921  1.2516
  188SLPC  H10Y21743   1.870   2.658   7.631  0.1800  0.2493 -3.1406
  188SLPC  C31121744   1.677   2.645   7.731  0.1333 -0.3098 -0.1739
  188SLPC  H11X21745   1.687   2.536   7.713 -0.8997 -0.0506 -2.8670
  188SLPC  H11Y21746   1.576   2.682   7.701  0.6752 -0.1203 -1.8993
  188SLPC  C31221747   1.702   2.679   7.881  0.6811 -0.0021 -0.4037
  188SLPC  H12X21748   1.712   2.790   7.887 -0.4445  0.2067 -1.7524
  188SLPC  H12Y21749   1.794   2.623   7.909  1.9258  1.5974 -1.1203
  188SLPC  C31321750   1.582   2.633   7.963  0.5957 -0.0019  0.2726
  188SLPC  H13X21751   1.558   2.524   7.955 -1.5982  0.5222 -0.9683
  188SLPC  H13Y21752   1.492   2.680   7.919  0.7817 -0.1152 -0.2313
  188SLPC  C31421753   1.619   2.671   8.106 -0.1340 -0.0370  0.0643
  188SLPC  H14X21754   1.629   2.780   8.125  0.9075 -0.4216  1.9085
  188SLPC  H14Y21755   1.711   2.623   8.145 -0.9043 -0.0864  1.9366
  188SLPC  C31521756   1.516   2.621   8.211 -0.3972  0.3658  0.0409
  188SLPC  H15X21757   1.418   2.671   8.200 -0.6582 -0.4697 -1.7836
  188SLPC  H15Y21758   1.561   2.653   8.307  1.1964 -0.9346 -0.2257
  188SLPC  C31621759   1.468   2.467   8.189 -0.4133 -0.0336 -0.2940
  188SLPC  H16X21760   1.569   2.423   8.179  0.4992  0.7914  3.6292
  188SLPC  H16Y21761   1.403   2.457   8.099 -0.8476  0.7832 -0.0827
  188SLPC  C31721762   1.408   2.402   8.315 -0.2055  0.2720  0.4461
  188SLPC  H17X21763   1.358   2.308   8.285  2.2425 -0.3312 -2.0968
  188SLPC  H17Y21764   1.326   2.473   8.342  0.5192  1.4921 -0.4136
  188SLPC  C31821765   1.505   2.381   8.437 -0.4527 -0.1188  0.7002
  188SLPC  H18X21766   1.459   2.305   8.503 -1.6165  1.2667  1.5446
  188SLPC  H18Y21767   1.510   2.478   8.490  0.9730 -0.2528  0.8511
  188SLPC  H18Z21768   1.602   2.354   8.390 -0.6435 -0.6625  0.6080
  189SLPC     N21769   3.159   5.026   6.167 -0.7495 -0.3918 -0.7444
  189SLPC   C1321770   3.025   4.959   6.180  0.2686 -0.0048  0.2298
  189SLPC  H13A21771   3.022   4.877   6.250  3.5437 -1.7553 -1.4319
  189SLPC  H13B21772   2.959   5.040   6.207  0.6192  1.2704 -2.4002
  189SLPC  H13C21773   2.993   4.914   6.087 -1.8985 -2.2448  1.9334
  189SLPC   C1421774   3.158   5.160   6.104 -0.1860 -0.3433  0.4646
  189SLPC  H14A21775   3.113   5.235   6.166  0.8265 -0.2640  1.1376
  189SLPC  H14B21776   3.256   5.205   6.093 -0.5325  1.0496  2.5177
  189SLPC  H14C21777   3.109   5.159   6.008  1.7733 -1.0934 -0.6016
  189SLPC   C1521778   3.241   4.932   6.089 -0.0731 -0.1201 -0.3604
  189SLPC  H15A21779   3.249   4.839   6.143  0.7667 -0.7580 -1.5614
  189SLPC  H15B21780   3.210   4.916   5.987 -1.5063  0.1401  0.0102
  189SLPC  H15C21781   3.340   4.973   6.080  0.2279 -0.7878 -0.1485
  189SLPC   C1221782   3.214   5.051   6.307  0.6147  0.6435  0.3674
  189SLPC  H12A21783   3.320   5.059   6.289  1.2167 -3.2652  1.4321
  189SLPC  H12B21784   3.220   4.960   6.363 -2.0179 -1.8221 -2.9224
  189SLPC   C1121785   3.149   5.164   6.395  0.2824 -0.1191 -0.6926
  189SLPC  H11A21786   3.195   5.162   6.496 -1.7765  1.4115  0.3546
  189SLPC  H11B21787   3.038   5.155   6.401  0.2388  0.0395 -1.1675
  189SLPC     P21788   3.289   5.389   6.357  0.1457 -0.2047 -0.3649
  189SLPC   O1321789   3.402   5.329   6.279  0.4797 -0.2657 -0.0365
  189SLPC   O1421790   3.255   5.529   6.325 -0.1535  0.4706  0.0815
  189SLPC   O1221791   3.165   5.294   6.348  0.4577  0.8032 -0.1136
  189SLPC   O1121792   3.326   5.384   6.515 -0.2778 -0.1177 -0.2044
  189SLPC    C121793   3.460   5.349   6.563  0.3123 -0.0921  0.0585
  189SLPC    HA21794   3.455   5.251   6.615 -0.5920 -1.1858 -1.9743
  189SLPC    HB21795   3.538   5.351   6.484 -0.9547  2.3786 -1.2367
  189SLPC    C221796   3.508   5.455   6.663 -0.1648 -0.0314 -0.0637
  189SLPC    HS21797   3.614   5.420   6.666 -0.4214 -0.9494 -1.2162
  189SLPC   O2121798   3.442   5.455   6.794 -0.4447 -0.0536  0.2363
  189SLPC   C2121799   3.450   5.348   6.871  0.2078  0.5550 -0.4292
  189SLPC   O2221800   3.513   5.247   6.851 -0.0022  0.0098 -0.1480
  189SLPC   C2221801   3.391   5.379   7.012 -0.0960  0.1639 -0.0574
  189SLPC   H2R21802   3.468   5.357   7.088 -0.4165 -1.4304 -0.1533
  189SLPC   H2S21803   3.365   5.487   7.016 -0.2470  0.0971  1.2288
  189SLPC    C321804   3.499   5.600   6.615 -0.3664 -0.2794  0.8862
  189SLPC    HX21805   3.395   5.635   6.598  0.2467  1.6437  0.9295
  189SLPC    HY21806   3.548   5.606   6.515 -0.1515  1.8057  1.0857
  189SLPC   O3121807   3.568   5.690   6.694 -0.0155 -0.7120 -0.0597
  189SLPC   C3121808   3.501   5.742   6.801  0.5058 -0.2208 -0.0011
  189SLPC   O3221809   3.384   5.727   6.825 -0.4127  0.0326  0.0742
  189SLPC   C3221810   3.582   5.846   6.872 -0.1427 -0.0860  0.3207
  189SLPC   H2X21811   3.615   5.922   6.798 -2.7632 -1.4342 -2.4436
  189SLPC   H2Y21812   3.658   5.781   6.922  1.1049  1.1910  0.1646
  189SLPC   C2321813   3.276   5.287   7.052  0.2280 -0.4547 -0.3702
  189SLPC   H3R21814   3.313   5.182   7.043  0.4848 -0.3469 -0.5959
  189SLPC   H3S21815   3.195   5.305   6.979 -1.3932  1.3345  1.7456
  189SLPC   C2421816   3.231   5.315   7.201 -0.5001  0.0324  0.0720
  189SLPC   H4R21817   3.143   5.248   7.218 -2.2863  2.3284  0.4186
  189SLPC   H4S21818   3.186   5.415   7.214  0.7067  0.3641  2.3264
  189SLPC   C2521819   3.334   5.279   7.309  0.3714 -0.6481  0.4006
  189SLPC   H5R21820   3.403   5.366   7.300 -1.9083  1.4149  1.5387
  189SLPC   H5S21821   3.397   5.188   7.305  0.7096 -0.4898  1.6784
  189SLPC   C2621822   3.264   5.292   7.442 -0.3449  0.2036  0.5392
  189SLPC   H6R21823   3.154   5.306   7.430 -0.3653 -0.0309  0.4423
  189SLPC   H6S21824   3.290   5.373   7.513 -0.8496  1.0187 -0.1905
  189SLPC   C2721825   3.285   5.162   7.529  0.4050  0.5093 -0.1989
  189SLPC   H7R21826   3.385   5.163   7.578  0.0967 -0.9682  0.5165
  189SLPC   H7S21827   3.285   5.068   7.470 -1.7208  1.1798 -1.3623
  189SLPC   C2821828   3.174   5.141   7.628  0.2890 -0.6871 -0.0864
  189SLPC   H8R21829   3.188   5.040   7.673 -0.0356  0.4076  2.6942
  189SLPC   H8S21830   3.077   5.150   7.575  0.3281  0.1884 -0.0290
  189SLPC   C2921831   3.189   5.234   7.744 -0.5150  0.2471 -0.8778
  189SLPC   H9R21832   3.294   5.266   7.752 -0.0628 -1.3335 -0.0146
  189SLPC  C21021833   3.096   5.279   7.825  0.6092 -0.6830 -0.0725
  189SLPC  H10R21834   3.116   5.355   7.902 -2.3716  0.5143 -0.3490
  189SLPC  C21121835   2.947   5.248   7.815  0.2516 -0.6512  0.3761
  189SLPC  H11R21836   2.927   5.148   7.769  0.5879 -0.0706 -1.0860
  189SLPC  H11S21837   2.916   5.320   7.737  1.7394 -0.5673 -0.1640
  189SLPC  C21221838   2.862   5.273   7.935  0.3580 -0.6286 -0.0190
  189SLPC  H12R21839   2.830   5.183   7.990 -0.2442 -0.8217 -0.6617
  189SLPC  C21321840   2.801   5.390   7.974  0.3646 -0.0011  0.3669
  189SLPC  H13R21841   2.731   5.379   8.058  1.1427 -1.5880  0.8542
  189SLPC  C21421842   2.803   5.525   7.900  0.1632 -0.1973 -0.0013
  189SLPC  H14R21843   2.826   5.522   7.792 -1.0958  0.8141 -0.3270
  189SLPC  H14S21844   2.884   5.581   7.950  0.8217 -0.3888 -0.8425
  189SLPC  C21521845   2.668   5.604   7.908 -0.0644  0.7092 -0.1716
  189SLPC  H15R21846   2.593   5.536   7.863  0.9213 -2.0074  2.0053
  189SLPC  H15S21847   2.675   5.685   7.833 -0.6756 -0.2680 -1.3281
  189SLPC  C21621848   2.617   5.640   8.045  0.1437  0.1612 -0.3355
  189SLPC  H16R21849   2.686   5.717   8.085 -0.1276  0.7839 -1.0387
  189SLPC  H16S21850   2.614   5.545   8.103 -0.6723 -1.2484 -2.5231
  189SLPC  C21721851   2.475   5.695   8.057 -0.3624 -0.2382  0.0753
  189SLPC  H17R21852   2.423   5.598   8.038  0.3516 -0.5996 -0.0694
  189SLPC  H17S21853   2.454   5.765   7.974 -0.9763 -1.9439 -1.2757
  189SLPC  C21821854   2.438   5.773   8.184  0.1156 -0.0947  0.3868
  189SLPC  H18R21855   2.328   5.783   8.188  0.2060  0.6315  1.4769
  189SLPC  H18S21856   2.483   5.875   8.182  0.4336 -0.2457 -0.9691
  189SLPC  H18T21857   2.470   5.722   8.277 -1.2190  0.4542  1.1761
  189SLPC   C3321858   3.503   5.920   6.984  1.1025  0.0547  0.1871
  189SLPC   H3X21859   3.465   5.844   7.055  1.0758  1.5334  1.8430
  189SLPC   H3Y21860   3.417   5.973   6.938  2.4880  0.6316 -1.9145
  189SLPC   C3421861   3.580   6.033   7.056  0.2483  0.4268 -0.0944
  189SLPC   H4X21862   3.507   6.109   7.089  0.3945  2.0759 -3.1547
  189SLPC   H4Y21863   3.658   6.085   6.996  1.4340 -1.0433  0.1070
  189SLPC   C3521864   3.649   5.979   7.179  0.4408 -0.1847  0.2025
  189SLPC   H5X21865   3.699   5.886   7.145 -0.7907 -0.9167  0.3497
  189SLPC   H5Y21866   3.565   5.950   7.246 -0.5458  1.5961 -0.2147
  189SLPC   C3621867   3.744   6.070   7.250  0.1753  0.4345  0.1153
  189SLPC   H6X21868   3.689   6.149   7.307 -0.8911  0.2803 -0.6651
  189SLPC   H6Y21869   3.810   6.124   7.179  0.5568  1.2026  1.0262
  189SLPC   C3721870   3.838   5.994   7.349  0.3407  0.0284 -0.5208
  189SLPC   H7X21871   3.918   6.060   7.390 -0.0138  2.0322 -2.8139
  189SLPC   H7Y21872   3.893   5.922   7.286 -0.1381 -0.6993 -0.1211
  189SLPC   C3821873   3.773   5.924   7.464  0.2243  1.0294  0.1855
  189SLPC   H8X21874   3.672   5.880   7.451  0.5472  0.8907 -2.2663
  189SLPC   H8Y21875   3.753   5.989   7.552 -1.0809 -1.6495  2.0432
  189SLPC   C3921876   3.870   5.820   7.538 -0.6336 -0.3394 -0.3517
  189SLPC   H9X21877   3.960   5.861   7.586  0.5017  0.8064 -3.2369
  189SLPC   H9Y21878   3.892   5.736   7.468 -0.5558 -1.0478  0.4990
  189SLPC  C31021879   3.786   5.771   7.656 -0.1877  0.3685 -0.0066
  189SLPC  H10X21880   3.690   5.728   7.620 -0.1114  0.3709 -0.2159
  189SLPC  H10Y21881   3.756   5.855   7.721  1.6413  0.5756  0.6388
  189SLPC  C31121882   3.859   5.664   7.740  0.5314 -0.6595  0.1857
  189SLPC  H11X21883   3.954   5.703   7.782 -0.9092  0.6396  2.4478
  189SLPC  H11Y21884   3.878   5.581   7.668 -0.1363 -1.6199  1.0781
  189SLPC  C31221885   3.767   5.624   7.858  0.5917  0.1274 -0.6340
  189SLPC  H12X21886   3.694   5.555   7.811 -0.0096  1.7510 -2.1802
  189SLPC  H12Y21887   3.707   5.710   7.894 -0.5258 -1.0233  0.3512
  189SLPC  C31321888   3.829   5.563   7.983 -0.4357  0.2508  0.0253
  189SLPC  H13X21889   3.915   5.631   8.002  1.3878 -1.9328 -0.0161
  189SLPC  H13Y21890   3.865   5.460   7.961  0.2713 -0.0027  2.1092
  189SLPC  C31421891   3.740   5.556   8.103  0.4967  0.9732  0.2067
  189SLPC  H14X21892   3.650   5.497   8.077 -0.0433  0.6707  2.5478
  189SLPC  H14Y21893   3.703   5.654   8.137  0.1199  1.3063 -1.1073
  189SLPC  C31521894   3.801   5.494   8.227 -0.5893 -1.1797  0.0907
  189SLPC  H15X21895   3.857   5.404   8.197  1.7294  0.1280  0.2694
  189SLPC  H15Y21896   3.721   5.472   8.302 -0.4954 -3.1427 -0.3350
  189SLPC  C31621897   3.899   5.583   8.309  0.0049  0.8689  0.3510
  189SLPC  H16X21898   3.863   5.667   8.373 -0.4222 -0.8663  2.5202
  189SLPC  H16Y21899   3.977   5.613   8.236 -1.0393  1.1542 -0.6839
  189SLPC  C31721900   3.982   5.487   8.402 -0.3895 -0.0840 -0.0704
  189SLPC  H17X21901   4.037   5.418   8.334  1.5558  2.3227 -1.0862
  189SLPC  H17Y21902   3.910   5.425   8.458  0.1960  0.6562  1.5552
  189SLPC  C31821903   4.077   5.554   8.491  0.0292  0.6389  0.3282
  189SLPC  H18X21904   4.148   5.484   8.538  0.1387  1.1743  0.9758
  189SLPC  H18Y21905   4.034   5.607   8.578  0.0835  0.9382  0.1767
  189SLPC  H18Z21906   4.141   5.628   8.437  0.8117 -1.0882 -1.2244
  190SLPC     N21907   3.665   4.291   6.334 -0.4660  0.3715  0.1568
  190SLPC   C1321908   3.540   4.368   6.337  0.2823  0.2534  0.3594
  190SLPC  H13A21909   3.553   4.442   6.416  0.9872 -1.0099  1.4604
  190SLPC  H13B21910   3.519   4.417   6.243  2.9672 -1.8086 -1.4425
  190SLPC  H13C21911   3.458   4.308   6.373  0.8096 -1.0845 -0.5996
  190SLPC   C1421912   3.655   4.210   6.212 -0.0736  0.6373  0.1368
  190SLPC  H14A21913   3.684   4.271   6.128  1.7289  0.9580  0.9455
  190SLPC  H14B21914   3.728   4.131   6.203  0.0007  0.9428 -2.7883
  190SLPC  H14C21915   3.556   4.166   6.214  0.6073 -0.9853 -0.2182
  190SLPC   C1521916   3.663   4.216   6.460  0.5705  0.1075 -0.4442
  190SLPC  H15A21917   3.566   4.175   6.482  0.5805  0.2058 -0.2206
  190SLPC  H15B21918   3.733   4.133   6.462  1.2503  0.6774  1.2735
  190SLPC  H15C21919   3.696   4.269   6.548  1.2029  0.2618 -0.7634
  190SLPC   C1221920   3.788   4.375   6.322  0.3211  0.5078 -0.4263
  190SLPC  H12A21921   3.781   4.434   6.411 -0.7986 -1.4320  0.8507
  190SLPC  H12B21922   3.766   4.441   6.239 -2.2188 -1.5802 -1.5616
  190SLPC   C1121923   3.923   4.298   6.307  0.5275 -0.0627  0.2829
  190SLPC  H11A21924   3.923   4.221   6.227  1.1083 -0.6393  0.8194
  190SLPC  H11B21925   3.945   4.255   6.407 -0.0786 -1.3227 -0.1020
  190SLPC     P21926   4.118   4.470   6.376  0.3216  0.4122 -0.2146
  190SLPC   O1321927   4.227   4.368   6.404  0.9865 -0.6241  0.3752
  190SLPC   O1421928   4.163   4.601   6.320 -0.2369 -0.2294 -0.4303
  190SLPC   O1221929   4.023   4.400   6.267 -0.0764  0.2602 -0.0991
  190SLPC   O1121930   4.016   4.488   6.499 -0.1340 -0.1833  0.6195
  190SLPC    C121931   4.000   4.611   6.568  1.2591  0.1189  0.3264
  190SLPC    HA21932   4.023   4.701   6.506  1.4787 -1.0983 -1.4494
  190SLPC    HB21933   3.892   4.619   6.594  1.3521  0.4455  0.6165
  190SLPC    C221934   4.071   4.626   6.705  0.0701 -0.3121 -0.2226
  190SLPC    HS21935   4.168   4.672   6.676 -0.4525  1.4738  0.7295
  190SLPC   O2121936   4.077   4.496   6.770  0.1603 -0.2801  0.6578
  190SLPC   C2121937   4.167   4.489   6.872 -0.6528  0.5700  0.2680
  190SLPC   O2221938   4.236   4.582   6.907  0.2340 -0.3947  0.5063
  190SLPC   C2221939   4.167   4.351   6.939  0.1038  0.3766 -0.0168
  190SLPC   H2R21940   4.072   4.301   6.913 -1.4076  0.9034  3.9338
  190SLPC   H2S21941   4.254   4.290   6.906 -1.5637 -1.8292 -0.6021
  190SLPC    C321942   3.993   4.728   6.796  0.4287 -0.3477 -0.8519
  190SLPC    HX21943   3.995   4.821   6.735  2.8997 -0.4248 -0.9655
  190SLPC    HY21944   4.034   4.768   6.892 -2.0287  0.6137 -0.1156
  190SLPC   O3121945   3.854   4.700   6.824  0.1147 -0.2467  0.3801
  190SLPC   C3121946   3.826   4.647   6.946 -0.3670  0.1112 -0.1635
  190SLPC   O3221947   3.912   4.589   7.010 -0.8907 -0.1006 -0.5374
  190SLPC   C3221948   3.688   4.680   6.990  0.3357 -0.4538 -0.6011
  190SLPC   H2X21949   3.624   4.648   6.905  0.0955  1.0203 -1.0014
  190SLPC   H2Y21950   3.676   4.790   6.998 -3.2497 -0.6118 -2.0312
  190SLPC   C2321951   4.174   4.356   7.093 -0.2698 -0.1748 -0.6698
  190SLPC   H3R21952   4.117   4.441   7.134  1.0803  0.8387 -0.8252
  190SLPC   H3S21953   4.279   4.362   7.129 -0.1810  1.9460 -1.1779
  190SLPC   C2421954   4.128   4.227   7.149  0.2214 -0.0162  0.5162
  190SLPC   H4R21955   4.183   4.138   7.111 -1.2187 -0.8987  0.3941
  190SLPC   H4S21956   4.026   4.215   7.106  0.6164 -1.0215 -0.1852
  190SLPC   C2521957   4.115   4.224   7.301  0.2355 -0.8520  0.5062
  190SLPC   H5R21958   4.036   4.148   7.322 -2.1749  0.9146 -1.4478
  190SLPC   H5S21959   4.073   4.320   7.338  1.2101 -0.5815  0.9217
  190SLPC   C2621960   4.240   4.199   7.382  0.6899  0.5561 -0.4462
  190SLPC   H6R21961   4.327   4.261   7.355  2.5098 -1.5582  0.2406
  190SLPC   H6S21962   4.282   4.098   7.361  0.7549  0.5943 -0.5012
  190SLPC   C2721963   4.221   4.214   7.528 -0.5669 -0.4585 -0.2100
  190SLPC   H7R21964   4.137   4.159   7.576 -0.1021 -0.8539  0.1699
  190SLPC   H7S21965   4.178   4.316   7.531 -0.6483 -0.4993  1.7625
  190SLPC   C2821966   4.352   4.193   7.607  0.2061  0.6223  0.6110
  190SLPC   H8R21967   4.435   4.256   7.568 -0.4749  2.6469  2.2708
  190SLPC   H8S21968   4.390   4.088   7.611  2.6630  1.4544  0.7332
  190SLPC   C2921969   4.335   4.244   7.751 -0.0943  0.2079  0.0958
  190SLPC   H9R21970   4.297   4.347   7.752  2.0234  1.0380  0.5650
  190SLPC  C21021971   4.368   4.191   7.872 -0.1486 -0.0072  0.6058
  190SLPC  H10R21972   4.338   4.249   7.960  2.2581  2.2109  0.0808
  190SLPC  C21121973   4.437   4.058   7.886 -0.7877 -0.0140 -0.0553
  190SLPC  H11R21974   4.385   3.981   7.826  1.5516 -1.7113 -0.0339
  190SLPC  H11S21975   4.423   4.039   7.995 -0.2516  1.0958  0.2342
  190SLPC  C21221976   4.582   4.043   7.849  0.1999 -0.5004  0.4640
  190SLPC  H12R21977   4.606   4.058   7.742 -0.1337  0.1571  0.4785
  190SLPC  C21321978   4.685   4.000   7.929  0.2470 -0.7980  0.0510
  190SLPC  H13R21979   4.786   3.985   7.889 -0.1176  0.4302 -1.4300
  190SLPC  C21421980   4.678   3.965   8.075 -0.1645  0.5388  0.2199
  190SLPC  H14R21981   4.707   3.861   8.097  0.5704  0.5942 -0.4206
  190SLPC  H14S21982   4.572   3.980   8.106 -0.6082 -1.2604 -0.3199
  190SLPC  C21521983   4.774   4.040   8.161  0.7235 -0.6944 -0.8924
  190SLPC  H15R21984   4.753   4.150   8.160  1.9167 -0.4474 -0.3978
  190SLPC  H15S21985   4.881   4.028   8.137  0.9973  0.0226 -0.1168
  190SLPC  C21621986   4.749   4.017   8.311  0.6549  0.8816  0.1883
  190SLPC  H16R21987   4.769   3.911   8.340 -0.5638  0.6652  0.3010
  190SLPC  H16S21988   4.641   4.036   8.324  0.6399  1.4914 -0.7089
  190SLPC  C21721989   4.830   4.106   8.412  0.2115 -0.7913 -0.4661
  190SLPC  H17R21990   4.822   4.206   8.365 -0.6403  0.0736  1.4512
  190SLPC  H17S21991   4.937   4.075   8.423  0.9995  0.3002 -3.8032
  190SLPC  C21821992   4.775   4.126   8.553  1.2167 -0.1225 -0.8828
  190SLPC  H18R21993   4.822   4.214   8.602 -2.7595  1.0058  1.3389
  190SLPC  H18S21994   4.805   4.036   8.610  1.3321  0.6453  0.2883
  190SLPC  H18T21995   4.664   4.129   8.549  1.1915  1.3297 -0.0241
  190SLPC   C3321996   3.654   4.619   7.133 -0.1198 -0.8391  0.3020
  190SLPC   H3X21997   3.716   4.663   7.214 -2.3078 -0.3218  1.7722
  190SLPC   H3Y21998   3.689   4.514   7.141  1.7045 -0.1775  1.6722
  190SLPC   C3421999   3.510   4.641   7.175 -0.5115  0.4135 -0.1713
  190SLPC   H4X22000   3.481   4.748   7.187 -0.2411  0.5189 -0.4097
  190SLPC   H4Y22001   3.502   4.588   7.272 -1.3470 -0.9802 -0.9689
  190SLPC   C3522002   3.405   4.576   7.081  0.4150 -0.7425 -0.0715
  190SLPC   H5X22003   3.427   4.468   7.073  2.1484 -0.4793  0.8036
  190SLPC   H5Y22004   3.412   4.627   6.983 -1.6256  2.9504  1.4869
  190SLPC   C3622005   3.265   4.593   7.149 -0.6771 -0.2655  0.2224
  190SLPC   H6X22006   3.276   4.543   7.248  0.8401 -0.3075  0.0585
  190SLPC   H6Y22007   3.189   4.544   7.084 -1.1926 -0.6502  1.1023
  190SLPC   C3722008   3.220   4.733   7.179  0.6591 -0.1196  0.0999
  190SLPC   H7X22009   3.241   4.799   7.092 -0.7920 -0.0586 -0.2169
  190SLPC   H7Y22010   3.281   4.778   7.260 -1.0259  0.3218  1.1608
  190SLPC   C3822011   3.070   4.732   7.232  0.3616 -0.3358 -0.0302
  190SLPC   H8X22012   3.051   4.647   7.301  1.2975 -1.5647 -1.2304
  190SLPC   H8Y22013   3.000   4.711   7.148 -2.3385 -1.4631  2.3641
  190SLPC   C3922014   3.043   4.869   7.288  0.5109 -0.5014 -0.6266
  190SLPC   H9X22015   3.041   4.940   7.202  2.6426  0.4195  0.0133
  190SLPC   H9Y22016   3.125   4.890   7.360 -0.8549 -0.6653  1.0374
  190SLPC  C31022017   2.916   4.886   7.375 -0.5701 -0.0228 -0.1246
  190SLPC  H10X22018   2.825   4.845   7.327  0.1808 -3.2297  0.9491
  190SLPC  H10Y22019   2.900   4.993   7.399 -1.4020 -0.0510 -0.5464
  190SLPC  C31122020   2.943   4.817   7.518  0.5082 -0.1042  0.2443
  190SLPC  H11X22021   3.040   4.847   7.562  1.9487 -0.6349 -2.3611
  190SLPC  H11Y22022   2.942   4.709   7.494  1.6100 -0.0718 -0.0013
  190SLPC  C31222023   2.852   4.856   7.629 -0.0487  0.5149  0.0720
  190SLPC  H12X22024   2.753   4.816   7.597 -0.9300  1.3191  1.6424
  190SLPC  H12Y22025   2.838   4.967   7.636  0.1622  0.4720  1.6801
  190SLPC  C31322026   2.890   4.786   7.758 -0.1435 -0.5999  0.1653
  190SLPC  H13X22027   2.993   4.826   7.770  0.9419 -3.1139 -0.2478
  190SLPC  H13Y22028   2.885   4.676   7.745 -0.5969 -0.6333  0.5906
  190SLPC  C31422029   2.799   4.817   7.878 -0.7477  0.3695 -0.2576
  190SLPC  H14X22030   2.695   4.786   7.856 -0.7522 -0.8570  1.3472
  190SLPC  H14Y22031   2.796   4.928   7.877 -1.3763  0.3614 -1.6982
  190SLPC  C31522032   2.858   4.752   8.001 -0.6413 -0.0938  0.6206
  190SLPC  H15X22033   2.961   4.789   8.018  1.1609 -3.6308 -1.4264
  190SLPC  H15Y22034   2.884   4.645   7.983  1.2427  0.2655  0.9783
  190SLPC  C31622035   2.773   4.762   8.121 -0.1713  0.8488  0.0485
  190SLPC  H16X22036   2.810   4.708   8.210  0.0542  0.7589 -0.0973
  190SLPC  H16Y22037   2.676   4.710   8.106  0.1812  0.3358 -0.4808
  190SLPC  C31722038   2.745   4.908   8.171 -0.0692  0.3270 -0.0496
  190SLPC  H17X22039   2.682   4.898   8.262  1.0736  2.0112  0.9860
  190SLPC  H17Y22040   2.673   4.960   8.104 -1.6465 -0.3650  1.0482
  190SLPC  C31822041   2.866   4.995   8.196 -0.8623 -0.5723  0.0362
  190SLPC  H18X22042   2.930   5.009   8.106 -0.8251 -1.9829 -0.1734
  190SLPC  H18Y22043   2.932   4.954   8.275 -0.5560  0.1437  0.1570
  190SLPC  H18Z22044   2.832   5.098   8.224 -0.3558 -0.3174 -0.2835
  191SLPC     N22045   2.676   6.410   5.970 -0.5891 -0.2353 -0.8896
  191SLPC   C1322046   2.557   6.326   5.934 -0.1839  0.2674 -0.2012
  191SLPC  H13A22047   2.471   6.391   5.933  0.9445  1.7948 -0.6288
  191SLPC  H13B22048   2.578   6.266   5.846  1.4857 -0.3651  0.5829
  191SLPC  H13C22049   2.526   6.256   6.010 -1.0281  1.7502  0.8663
  191SLPC   C1422050   2.705   6.507   5.860 -0.1516  0.3397  0.1073
  191SLPC  H14A22051   2.672   6.609   5.871  1.4566  0.8296  0.5523
  191SLPC  H14B22052   2.807   6.536   5.843 -0.9332  2.5616 -1.2445
  191SLPC  H14C22053   2.672   6.456   5.770  1.0760  1.6852 -1.1421
  191SLPC   C1522054   2.797   6.322   5.994  0.4386 -0.2067  0.1764
  191SLPC  H15A22055   2.771   6.271   6.086 -0.4441 -0.0420  0.0266
  191SLPC  H15B22056   2.822   6.256   5.911 -1.0959  2.2248 -2.3799
  191SLPC  H15C22057   2.890   6.375   6.001  0.1124  0.2558  1.1209
  191SLPC   C1222058   2.656   6.497   6.095 -0.1324 -0.6867  0.7099
  191SLPC  H12A22059   2.748   6.550   6.117  0.5722 -1.0783 -1.1453
  191SLPC  H12B22060   2.629   6.435   6.179 -2.8346 -1.1654 -0.4196
  191SLPC   C1122061   2.536   6.600   6.091 -1.0290  0.3783  1.1022
  191SLPC  H11A22062   2.523   6.633   6.196 -1.5072 -1.6126  1.6880
  191SLPC  H11B22063   2.449   6.548   6.046  1.2300 -0.4157 -2.8579
  191SLPC     P22064   2.463   6.822   5.952 -0.0218 -0.2939 -0.0743
  191SLPC   O1322065   2.550   6.930   5.895  0.1472  0.2988 -0.4209
  191SLPC   O1422066   2.369   6.757   5.855  0.0357  0.4287  0.3141
  191SLPC   O1222067   2.571   6.715   6.014  0.1952 -0.0864 -0.8535
  191SLPC   O1122068   2.370   6.869   6.080 -0.0234 -0.2050  0.3332
  191SLPC    C122069   2.421   6.972   6.171  0.2922 -1.0335 -0.4959
  191SLPC    HA22070   2.454   7.063   6.117  0.4766 -0.6621  0.2228
  191SLPC    HB22071   2.331   7.013   6.222  0.9187 -1.1727  0.7819
  191SLPC    C222072   2.532   6.932   6.265  0.1637 -0.1413 -0.5493
  191SLPC    HS22073   2.620   6.897   6.207  0.2877 -1.9725  0.6442
  191SLPC   O2122074   2.482   6.830   6.343 -0.5074 -0.0451  0.0783
  191SLPC   C2122075   2.573   6.771   6.416  0.3621  0.1917 -1.0831
  191SLPC   O2222076   2.691   6.778   6.404 -0.4012 -0.0446 -0.6088
  191SLPC   C2222077   2.507   6.692   6.533 -0.0298 -0.4726  0.2633
  191SLPC   H2R22078   2.400   6.722   6.535  0.9645  3.6273  0.7022
  191SLPC   H2S22079   2.511   6.584   6.508  1.2055  0.0289 -1.9680
  191SLPC    C322080   2.570   7.058   6.346 -0.7457  0.2507 -0.0914
  191SLPC    HX22081   2.606   7.124   6.264 -0.0414  0.2847  0.2327
  191SLPC    HY22082   2.657   7.037   6.413 -0.6659  1.1620  0.1051
  191SLPC   O3122083   2.463   7.130   6.401  0.4238 -0.6458  0.0885
  191SLPC   C3122084   2.459   7.109   6.542 -0.0440 -0.2589  0.5163
  191SLPC   O3222085   2.548   7.047   6.600 -0.1625  0.4699 -1.3867
  191SLPC   C3222086   2.341   7.159   6.612  0.3825  1.0311  0.2757
  191SLPC   H2X22087   2.266   7.219   6.556 -2.5343 -1.9285  0.7768
  191SLPC   H2Y22088   2.387   7.208   6.701  1.4087 -1.0565  0.9517
  191SLPC   C2322089   2.572   6.718   6.664 -0.0056 -1.2182  0.3816
  191SLPC   H3R22090   2.581   6.829   6.675  0.0067 -1.0073 -1.4398
  191SLPC   H3S22091   2.680   6.692   6.660  0.5484  1.0629 -1.3854
  191SLPC   C2422092   2.498   6.663   6.788  0.1088 -0.4774  0.4021
  191SLPC   H4R22093   2.489   6.552   6.786 -0.8297 -0.4090 -1.7221
  191SLPC   H4S22094   2.394   6.701   6.786  0.2996  0.0056 -0.5826
  191SLPC   C2522095   2.565   6.708   6.917 -0.0162  0.5766  0.0455
  191SLPC   H5R22096   2.536   6.810   6.949  0.2741  0.6705  0.0060
  191SLPC   H5S22097   2.674   6.704   6.898 -0.3196  0.1830 -1.8544
  191SLPC   C2622098   2.537   6.616   7.046  0.3492  0.5072  0.1078
  191SLPC   H6R22099   2.565   6.511   7.028  0.9197  0.5449  0.7439
  191SLPC   H6S22100   2.427   6.611   7.063  0.4950  0.2618  1.0590
  191SLPC   C2722101   2.605   6.671   7.175  0.4338  0.3924 -0.1306
  191SLPC   H7R22102   2.711   6.696   7.155  0.4048 -0.1663 -1.0227
  191SLPC   H7S22103   2.590   6.594   7.254 -0.5574  1.2207  0.5245
  191SLPC   C2822104   2.518   6.778   7.239  0.3209  0.1377  0.1161
  191SLPC   H8R22105   2.422   6.731   7.268 -0.4722  0.7123 -1.4593
  191SLPC   H8S22106   2.498   6.856   7.162  0.6836 -0.1617 -0.2836
  191SLPC   C2922107   2.604   6.830   7.356  0.1907  0.4149 -0.0716
  191SLPC   H9R22108   2.646   6.927   7.325  0.9332 -0.3668 -1.6243
  191SLPC  C21022109   2.613   6.790   7.484 -0.0998 -0.4706 -0.9018
  191SLPC  H10R22110   2.674   6.846   7.556 -2.1785  0.0686  0.5209
  191SLPC  C21122111   2.539   6.668   7.545  0.1966 -0.0071 -0.7829
  191SLPC  H11R22112   2.613   6.603   7.596  0.0927  1.8782  2.0406
  191SLPC  H11S22113   2.470   6.611   7.480 -0.2246 -0.7910  0.3342
  191SLPC  C21222114   2.453   6.711   7.661  0.2353  0.1682 -0.0385
  191SLPC  H12R22115   2.365   6.770   7.633  0.5782  0.8685  0.3344
  191SLPC  C21322116   2.460   6.674   7.789  0.0475  0.6868 -0.2693
  191SLPC  H13R22117   2.389   6.725   7.856 -0.5053 -0.2072 -0.1537
  191SLPC  C21422118   2.557   6.573   7.857  1.1478 -0.5156 -0.4131
  191SLPC  H14R22119   2.632   6.535   7.785  1.6005  1.1140 -0.8362
  191SLPC  H14S22120   2.494   6.486   7.887  1.7381 -1.2526 -1.2677
  191SLPC  C21522121   2.622   6.635   7.984 -0.5880  0.2058 -0.0602
  191SLPC  H15R22122   2.544   6.665   8.057 -0.9787  1.2231 -0.8633
  191SLPC  H15S22123   2.686   6.717   7.943  1.8120 -0.6420  1.7725
  191SLPC  C21622124   2.711   6.527   8.045  0.3193 -0.1877 -0.7097
  191SLPC  H16R22125   2.821   6.544   8.038  0.6893 -2.5877 -1.8313
  191SLPC  H16S22126   2.690   6.425   8.006  1.1462 -1.1631  1.2742
  191SLPC  C21722127   2.692   6.499   8.197  0.3651 -0.1018  0.0510
  191SLPC  H17R22128   2.736   6.403   8.232 -0.7150 -0.6455 -0.0469
  191SLPC  H17S22129   2.584   6.481   8.210  0.4814 -0.1963  0.9463
  191SLPC  C21822130   2.741   6.616   8.283 -0.0008 -0.1242  0.4177
  191SLPC  H18R22131   2.750   6.584   8.389  3.7798 -1.7083 -0.2157
  191SLPC  H18S22132   2.666   6.697   8.270  0.5182  0.4604  1.0368
  191SLPC  H18T22133   2.838   6.657   8.248 -0.4742  0.7498  0.0965
  191SLPC   C3322134   2.256   7.051   6.678  0.5909  0.6724  0.2292
  191SLPC   H3X22135   2.318   6.967   6.715  0.7625  0.1032 -1.2587
  191SLPC   H3Y22136   2.182   7.004   6.609 -1.1507  1.2989  1.6054
  191SLPC   C3422137   2.179   7.108   6.797 -0.7330  0.2856  0.2790
  191SLPC   H4X22138   2.094   7.167   6.757 -0.6791 -0.8582 -1.6470
  191SLPC   H4Y22139   2.256   7.162   6.856  2.5787 -2.1520 -1.4300
  191SLPC   C3522140   2.124   6.987   6.876  0.4810 -0.4949 -0.4159
  191SLPC   H5X22141   2.198   6.904   6.885 -0.6428 -1.3110  2.2276
  191SLPC   H5Y22142   2.035   6.949   6.821 -0.0855 -0.2144  0.2967
  191SLPC   C3622143   2.088   7.021   7.024  0.3852  0.1024 -0.5017
  191SLPC   H6X22144   1.998   7.086   7.022  2.4419  3.7394  3.9228
  191SLPC   H6Y22145   2.174   7.082   7.060  0.5450  0.2782 -1.1667
  191SLPC   C3722146   2.070   6.892   7.111  0.4762 -0.5146  0.3484
  191SLPC   H7X22147   2.169   6.841   7.114  0.3373 -1.0576 -2.2929
  191SLPC   H7Y22148   2.000   6.825   7.058 -0.1958  0.8410 -0.5243
  191SLPC   C3822149   2.033   6.920   7.260  0.1488 -0.6055 -0.8511
  191SLPC   H8X22150   1.936   6.973   7.268  1.2686  1.2799  1.5493
  191SLPC   H8Y22151   2.110   6.990   7.300  0.7673 -0.7484 -1.7420
  191SLPC   C3922152   2.031   6.793   7.351  0.5766  0.3909 -0.2024
  191SLPC   H9X22153   2.130   6.749   7.327 -0.2260 -1.9329  0.5559
  191SLPC   H9Y22154   1.946   6.733   7.313  0.5918 -0.6762  1.3733
  191SLPC  C31022155   2.019   6.831   7.497 -0.0275  0.8847  0.1013
  191SLPC  H10X22156   1.917   6.870   7.520  0.3598  1.3687  1.0480
  191SLPC  H10Y22157   2.092   6.914   7.510  1.4059 -0.2252 -0.7232
  191SLPC  C31122158   2.051   6.717   7.594  1.0639 -0.1252  1.0573
  191SLPC  H11X22159   2.139   6.658   7.559  1.9382  0.1648  2.6739
  191SLPC  H11Y22160   1.968   6.644   7.586 -1.7712  2.9062  0.5624
  191SLPC  C31222161   2.072   6.774   7.725 -0.2232 -0.7154  0.2744
  191SLPC  H12X22162   1.980   6.826   7.757 -1.2964 -1.4462 -1.4920
  191SLPC  H12Y22163   2.160   6.842   7.721 -2.2434  2.0199 -0.0652
  191SLPC  C31322164   2.110   6.674   7.830 -0.3634  0.5930  0.0908
  191SLPC  H13X22165   2.200   6.611   7.814  0.8600  2.2302  0.2332
  191SLPC  H13Y22166   2.023   6.606   7.844 -0.4007  0.9954  2.1561
  191SLPC  C31422167   2.130   6.739   7.969  0.9267  0.0020  0.2356
  191SLPC  H14X22168   2.031   6.780   7.998  1.7628  0.5733  2.5153
  191SLPC  H14Y22169   2.196   6.828   7.955 -0.7769  1.2185 -0.2906
  191SLPC  C31522170   2.188   6.640   8.067 -0.3382  0.6541  0.4115
  191SLPC  H15X22171   2.291   6.610   8.037 -0.9415 -1.9705  0.6795
  191SLPC  H15Y22172   2.119   6.552   8.068  0.0006  0.3984  1.2713
  191SLPC  C31622173   2.190   6.696   8.207  0.5841 -0.1077 -0.1452
  191SLPC  H16X22174   2.087   6.688   8.246 -0.2029  1.5003 -1.7466
  191SLPC  H16Y22175   2.225   6.802   8.209  0.5696 -0.0840  2.0717
  191SLPC  C31722176   2.292   6.619   8.292  0.3416 -0.4981  0.3391
  191SLPC  H17X22177   2.391   6.627   8.243  0.8286  0.1739  1.3991
  191SLPC  H17Y22178   2.268   6.511   8.289  0.0215 -0.4202  0.0860
  191SLPC  C31822179   2.289   6.635   8.442 -0.3708 -0.1381  0.1322
  191SLPC  H18X22180   2.189   6.619   8.486 -0.8216 -4.0982 -1.9036
  191SLPC  H18Y22181   2.322   6.737   8.473 -0.2102  0.1024 -0.7827
  191SLPC  H18Z22182   2.359   6.560   8.484  0.3602 -0.0189 -0.8351
  192SLPC     N22183   3.238   0.912   6.093  0.1039  0.1175 -0.5348
  192SLPC   C1322184   3.129   1.008   6.059  0.0592  0.2324 -0.1550
  192SLPC  H13A22185   3.047   0.954   6.015 -0.3747  0.3923  0.4485
  192SLPC  H13B22186   3.093   1.059   6.147 -1.7767 -0.5598 -0.3965
  192SLPC  H13C22187   3.153   1.083   5.985 -1.5227  0.6171 -0.3058
  192SLPC   C1422188   3.342   0.982   6.167 -0.6396 -0.6248  0.5425
  192SLPC  H14A22189   3.391   1.056   6.106  1.0260 -0.5558  1.8619
  192SLPC  H14B22190   3.301   1.043   6.246 -1.5544  2.9331 -2.4284
  192SLPC  H14C22191   3.417   0.912   6.201  2.7660  1.6245 -1.7736
  192SLPC   C1522192   3.291   0.853   5.972  0.3923 -0.2364  0.1029
  192SLPC  H15A22193   3.217   0.793   5.921 -1.3599  1.1500  0.8745
  192SLPC  H15B22194   3.325   0.930   5.905 -1.0127  1.1735  0.9473
  192SLPC  H15C22195   3.376   0.793   5.998 -0.6870 -1.2552  1.4701
  192SLPC   C1222196   3.174   0.802   6.180 -0.2438 -0.1933 -0.2976
  192SLPC  H12A22197   3.091   0.758   6.128 -1.3861 -0.4182  1.6352
  192SLPC  H12B22198   3.125   0.846   6.266 -0.9311  0.5500 -1.0418
  192SLPC   C1122199   3.262   0.685   6.228  0.3515 -0.6200 -0.1230
  192SLPC  H11A22200   3.351   0.733   6.274  0.0657  2.2257 -2.2217
  192SLPC  H11B22201   3.313   0.633   6.144  1.6328 -0.8491  0.7735
  192SLPC     P22202   3.253   0.491   6.404  0.1298  0.1954  0.1748
  192SLPC   O1322203   3.163   0.383   6.438  0.2284 -0.8008 -0.2752
  192SLPC   O1422204   3.383   0.455   6.351  0.1655  0.1068 -0.0606
  192SLPC   O1222205   3.186   0.591   6.298  0.3936 -0.0249 -0.3815
  192SLPC   O1122206   3.276   0.588   6.527 -0.4293  0.5627  0.0164
  192SLPC    C122207   3.360   0.530   6.631  0.2832 -0.0405 -0.1227
  192SLPC    HA22208   3.440   0.467   6.586  0.8607  0.3571  0.3177
  192SLPC    HB22209   3.407   0.614   6.687 -0.8616 -0.6141  1.7791
  192SLPC    C222210   3.291   0.459   6.750 -0.3183  0.0118 -1.0691
  192SLPC    HS22211   3.237   0.370   6.713  0.5336 -1.2024  0.4934
  192SLPC   O2122212   3.205   0.557   6.816 -0.6216 -0.0108 -0.1756
  192SLPC   C2122213   3.100   0.517   6.868 -0.6575 -0.1567 -0.2493
  192SLPC   O2222214   3.049   0.403   6.858 -0.2100 -0.1447 -0.2476
  192SLPC   C2222215   3.039   0.628   6.955  0.5826  0.5036 -0.1536
  192SLPC   H2R22216   3.045   0.726   6.904  0.0373  2.7297  3.6798
  192SLPC   H2S22217   2.932   0.600   6.970  0.6839  0.8223  1.2698
  192SLPC    C322218   3.396   0.408   6.856  0.0218  0.4136 -0.2120
  192SLPC    HX22219   3.460   0.491   6.893 -3.0997  2.1039  1.8187
  192SLPC    HY22220   3.458   0.333   6.802  0.5681 -1.0337  2.2523
  192SLPC   O3122221   3.344   0.353   6.983  0.1437  0.2438  0.8674
  192SLPC   C3122222   3.317   0.220   6.973 -0.6799  0.1005 -0.1241
  192SLPC   O3222223   3.336   0.148   6.877 -0.0699  0.1715 -0.2978
  192SLPC   C3222224   3.252   0.173   7.103  0.2231 -0.1348  1.0057
  192SLPC   H2X22225   3.169   0.246   7.118  1.1284  1.1663 -0.0781
  192SLPC   H2Y22226   3.325   0.183   7.186  1.3787  1.6968 -0.1532
  192SLPC   C2322227   3.104   0.656   7.092 -0.0125 -0.0356  0.1553
  192SLPC   H3R22228   3.050   0.745   7.131 -1.1854  0.6042 -2.7067
  192SLPC   H3S22229   3.205   0.697   7.076 -0.8917  2.0733 -0.2725
  192SLPC   C2422230   3.122   0.540   7.190  0.6773 -0.2474 -0.3597
  192SLPC   H4R22231   3.125   0.585   7.292 -1.6122 -0.3974 -0.1730
  192SLPC   H4S22232   3.208   0.474   7.167  1.2534 -0.2773  1.6561
  192SLPC   C2522233   2.992   0.452   7.188  0.1559  0.1052 -0.5207
  192SLPC   H5R22234   2.995   0.385   7.099 -0.3121 -1.7341  0.7817
  192SLPC   H5S22235   2.909   0.523   7.169 -2.0130 -1.5316  1.9949
  192SLPC   C2622236   2.972   0.352   7.302  0.7938 -0.5063 -0.1070
  192SLPC   H6R22237   3.066   0.299   7.327  1.5180 -0.7529 -2.9531
  192SLPC   H6S22238   2.900   0.278   7.262 -0.4456  0.7241 -0.2405
  192SLPC   C2722239   2.914   0.424   7.414 -0.4223 -0.0929 -0.2289
  192SLPC   H7R22240   2.803   0.408   7.412 -0.6133  0.8571  1.5376
  192SLPC   H7S22241   2.924   0.534   7.412 -0.1587 -0.1225 -1.3576
  192SLPC   C2822242   2.972   0.368   7.549  0.3765  0.1159  0.0830
  192SLPC   H8R22243   2.953   0.453   7.618 -2.1056 -0.2638 -0.0278
  192SLPC   H8S22244   3.082   0.357   7.543  0.3273 -0.2357 -0.2208
  192SLPC   C2922245   2.922   0.226   7.582 -0.1269 -0.4694 -1.0600
  192SLPC   H9R22246   2.905   0.161   7.495 -3.0622 -1.6607  0.2917
  192SLPC  C21022247   2.879   0.179   7.699  0.1845  0.0614  0.1965
  192SLPC  H10R22248   2.841   0.076   7.703  2.7712 -0.9464  1.2286
  192SLPC  C21122249   2.878   0.259   7.828  0.0138  0.0869 -0.7197
  192SLPC  H11R22250   2.791   0.227   7.889  0.5888  1.4835  0.9218
  192SLPC  H11S22251   2.859   0.365   7.801 -2.1962  0.0873  0.5742
  192SLPC  C21222252   3.011   0.260   7.907 -0.2293  0.5802 -0.1675
  192SLPC  H12R22253   3.085   0.320   7.853 -0.1291  0.6645  0.0600
  192SLPC  C21322254   3.031   0.217   8.035  0.1644  0.4225  0.1725
  192SLPC  H13R22255   3.134   0.217   8.073  0.2297  0.8019 -0.0100
  192SLPC  C21422256   2.928   0.149   8.122  0.5314  0.9383  0.1438
  192SLPC  H14R22257   2.987   0.077   8.182  0.8334  0.8732 -0.2283
  192SLPC  H14S22258   2.867   0.081   8.058 -0.3352 -0.9561  2.7883
  192SLPC  C21522259   2.837   0.251   8.196  0.7250  0.1691  1.2492
  192SLPC  H15R22260   2.782   0.294   8.110  0.0178 -0.4552  1.3796
  192SLPC  H15S22261   2.894   0.333   8.245 -0.3165  1.5516  0.2283
  192SLPC  C21622262   2.745   0.178   8.296  0.1683  0.9011  0.2036
  192SLPC  H16R22263   2.817   0.120   8.359  0.2938  0.5764 -0.2363
  192SLPC  H16S22264   2.683   0.104   8.243  1.5206 -0.4946  0.5006
  192SLPC  C21722265   2.655   0.278   8.374  0.9829  0.1418 -0.4340
  192SLPC  H17R22266   2.723   0.347   8.429  0.0977  0.7293 -0.0448
  192SLPC  H17S22267   2.600   0.339   8.299 -1.8734 -1.3853  0.2918
  192SLPC  C21822268   2.552   0.217   8.462  0.5449 -0.1129 -0.1376
  192SLPC  H18R22269   2.485   0.292   8.508 -0.4487 -0.2605 -1.3030
  192SLPC  H18S22270   2.609   0.166   8.544 -0.3589 -0.3786  0.3424
  192SLPC  H18T22271   2.499   0.135   8.409 -2.1791  1.5721 -0.1864
  192SLPC   C3322272   3.192   0.028   7.088 -0.4128 -0.3448  0.2060
  192SLPC   H3X22273   3.279  -0.041   7.087 -0.5533 -0.5164 -0.9946
  192SLPC   H3Y22274   3.137   0.016   6.993 -0.5058 -1.3901  0.3857
  192SLPC   C3422275   3.103  -0.004   7.213  0.4919 -0.1719 -0.0176
  192SLPC   H4X22276   3.009   0.056   7.212  1.1520  0.8956 -0.9231
  192SLPC   H4Y22277   3.161   0.009   7.307  2.3894  1.6546 -1.3432
  192SLPC   C3522278   3.049  -0.150   7.205 -0.0891  0.1168 -0.2630
  192SLPC   H5X22279   3.138  -0.215   7.215 -1.3265 -1.6641 -0.3301
  192SLPC   H5Y22280   3.008  -0.166   7.103 -0.5374 -0.6895  0.0382
  192SLPC   C3622281   2.945  -0.188   7.313 -0.0551  0.4691  0.8472
  192SLPC   H6X22282   2.876  -0.264   7.271  0.1103  1.7699 -1.9614
  192SLPC   H6Y22283   2.888  -0.094   7.330 -0.2696  0.5168 -0.0943
  192SLPC   C3722284   3.015  -0.227   7.441 -0.0267 -0.7886  0.4570
  192SLPC   H7X22285   3.063  -0.133   7.476 -0.7312 -0.0742 -0.4098
  192SLPC   H7Y22286   3.100  -0.291   7.410 -0.6320 -2.2874  1.7555
  192SLPC   C3822287   2.931  -0.290   7.557 -0.2322 -0.4765 -0.2194
  192SLPC   H8X22288   2.882  -0.383   7.519  0.0194 -1.3115  1.3787
  192SLPC   H8Y22289   2.846  -0.226   7.589 -1.0050 -0.6046 -1.9169
  192SLPC   C3922290   3.025  -0.343   7.664  0.2111  0.1790 -0.2559
  192SLPC   H9X22291   3.052  -0.249   7.718 -0.8424  0.9246 -0.9658
  192SLPC   H9Y22292   3.118  -0.383   7.619 -0.7089  1.0780 -3.1906
  192SLPC  C31022293   2.967  -0.440   7.765 -0.5721  0.2987  0.6325
  192SLPC  H10X22294   2.921  -0.526   7.712 -1.4724  1.2333 -0.1429
  192SLPC  H10Y22295   2.895  -0.396   7.836  0.7269  1.1320  1.4707
  192SLPC  C31122296   3.064  -0.503   7.870 -0.0959 -0.4995  0.5338
  192SLPC  H11X22297   3.158  -0.514   7.812 -1.3634  2.1768 -2.2816
  192SLPC  H11Y22298   3.024  -0.602   7.901 -1.9278  0.0366  0.0281
  192SLPC  C31222299   3.089  -0.417   7.996  0.2821 -0.2544 -0.5238
  192SLPC  H12X22300   2.995  -0.412   8.055 -0.1036  0.6835 -1.1949
  192SLPC  H12Y22301   3.124  -0.319   7.957  0.2106 -0.3655 -0.8714
  192SLPC  C31322302   3.204  -0.482   8.080 -0.3354 -0.0142 -0.2064
  192SLPC  H13X22303   3.229  -0.402   8.153 -1.3426 -0.1740  0.3208
  192SLPC  H13Y22304   3.285  -0.499   8.006  0.0513 -0.3358  0.2869
  192SLPC  C31422305   3.169  -0.602   8.164  0.3955 -0.4029  0.6819
  192SLPC  H14X22306   3.267  -0.617   8.214  0.8808  2.2719  0.6733
  192SLPC  H14Y22307   3.136  -0.688   8.101 -0.7190 -0.1770  0.9386
  192SLPC  C31522308   3.049  -0.582   8.262  0.0566  0.5861  0.2060
  192SLPC  H15X22309   2.952  -0.608   8.215  1.4200  0.0242 -2.5066
  192SLPC  H15Y22310   3.058  -0.476   8.294 -2.5071  1.7519 -2.4920
  192SLPC  C31622311   3.083  -0.674   8.383  0.4270 -0.2352 -0.0978
  192SLPC  H16X22312   3.185  -0.647   8.417  0.0992 -1.7622  2.2703
  192SLPC  H16Y22313   3.079  -0.779   8.347  1.8687  0.0696 -1.2581
  192SLPC  C31722314   2.989  -0.656   8.505  0.1351 -0.5261 -0.0515
  192SLPC  H17X22315   3.014  -0.564   8.562 -0.8734 -1.9822  2.9463
  192SLPC  H17Y22316   3.007  -0.734   8.581  2.5496  2.2730  2.5125
  192SLPC  C31822317   2.845  -0.655   8.457 -0.4764  0.4645 -0.4825
  192SLPC  H18X22318   2.830  -0.734   8.380  1.2469  0.5279 -0.9445
  192SLPC  H18Y22319   2.814  -0.562   8.405 -0.4675  0.0891 -1.1826
  192SLPC  H18Z22320   2.787  -0.678   8.548  0.2974  1.5197  0.2956
  193SOD    SOD22321   3.829   6.602  16.687 -0.4365 -0.0946 -0.2558
  194SOD    SOD22322   5.038   2.759  11.298 -0.0748  0.1179 -0.5049
  195SOD    SOD22323   6.524   6.565  16.329 -0.1193  0.2912 -0.0481
  196SOD    SOD22324   3.556   4.626  11.413  0.3265 -0.0218  0.3634
  197SOD    SOD22325   5.851   4.316  11.730 -0.0035 -0.1008 -0.3404
  198SOD    SOD22326   5.510   4.470   6.326 -0.1814  0.1494 -0.0392
  199SOD    SOD22327   6.772   5.626  15.419  0.3616 -0.2048  0.0268
  200SOD    SOD22328   5.494   3.574  16.311  0.1472 -0.0438 -0.5061
  201SOD    SOD22329   5.181   5.736   6.140  0.1818 -0.0979  0.4338
  202SOD    SOD22330   3.341   3.796  15.075 -0.3183 -0.2754  0.0356
  203SOD    SOD22331   6.689   3.623   0.301  0.3204 -0.2452 -0.0533
  204SOD    SOD22332   6.081   1.993   4.414  0.1635  0.0915 -0.0007
  205SOD    SOD22333   0.110   5.069  11.030  0.5705  0.2422  0.2254
  206SOD    SOD22334   1.952   4.580  12.256  0.4062 -0.2914  0.1473
  207SOD    SOD22335   5.805   1.042   2.375  0.0635 -0.3501 -0.2312
  208SOD    SOD22336   6.764   2.829   3.314 -0.6328  0.1030 -0.2482
  209SOD    SOD22337   2.445   2.339   2.017  0.1024  0.2475 -0.2530
  210SOD    SOD22338   0.584   5.059   6.165 -0.0389  0.3080 -0.1739
  211SOD    SOD22339   0.099   0.096  13.488  0.0277  0.6747 -0.0089
  212SOD    SOD22340   4.093   0.249   3.084 -0.0964  0.0708  0.0271
  213SOD    SOD22341   4.712   3.799  14.119 -0.3450  0.1717 -0.9220
  214SOD    SOD22342   3.299   0.351  11.650  0.1530  0.4589  0.3938
  215SOD    SOD22343   5.000   6.157  10.738 -0.1476  0.0335  0.1809
  216SOD    SOD22344   0.074   5.609  10.755 -0.1372 -0.2719 -0.0501
  217SOD    SOD22345   0.451   3.681  16.862 -0.0514  0.1206  0.1339
  218SOD    SOD22346   0.824   4.193  15.820 -0.4490 -0.1326  0.4581
  219SOD    SOD22347   0.080   6.794  11.957  0.2633  0.1165 -0.4733
  220SOD    SOD22348   3.633   0.689  15.251  0.3121  0.2071 -0.0235
  221SOD    SOD22349   5.354   6.339   6.314  0.5265  0.0707  0.1278
  222SOD    SOD22350   4.999   2.260   3.114  0.1946 -0.0109  0.0729
  223SOD    SOD22351   3.166   3.271  14.118  0.0819 -0.0048 -0.1023
  224SOD    SOD22352   3.855   2.671  16.214 -0.0766  0.2725 -0.1133
  225SOD    SOD22353   3.616   6.234  12.851  0.1263  0.4325  0.2548
  226SOD    SOD22354   3.903   2.181  11.010  0.2914  0.1931 -0.0412
  227SOD    SOD22355   3.000   5.651   5.196  0.1451  0.0405  0.6334
  228SOD    SOD22356   4.559   4.683  11.778 -0.2286 -0.9674 -0.1251
  229SOD    SOD22357   5.193   6.036   1.316 -0.0290  0.2363  0.4128
  230SOD    SOD22358   4.010   1.914  13.223 -0.0653 -0.0420  0.0035
  231SOD    SOD22359   1.454   2.401  12.084  0.6766  0.2537  0.1219
  232SOD    SOD22360   6.074   0.420  10.832  0.3433 -0.1038 -0.8004
  233SOD    SOD22361   5.360   4.692   4.733  0.0842  0.1028 -0.1918
  234SOD    SOD22362   6.347   1.749  15.656  0.4321 -0.4812  0.0438
  235SOD    SOD22363   5.243   1.273   5.386 -0.1040  0.0789  0.3651
  236SOD    SOD22364   2.903   2.670   5.847 -0.5293  0.0203  0.1534
  237SOD    SOD22365   5.270   1.946   6.745 -0.1559 -0.0693 -0.0603
  238SOD    SOD22366   4.864   5.937  13.410  0.0029  0.4329  0.5182
  239SOD    SOD22367   2.292   0.194  14.964 -0.5873 -0.3987 -0.6862
  240SOD    SOD22368   1.262   4.934  11.382  0.0819  0.4708 -0.5867
  241SOD    SOD22369   4.142   0.593   5.929 -0.1934 -0.1514  0.4115
  242SOD    SOD22370   6.053   0.329   3.236  0.0049  0.3920  0.1420
  243SOD    SOD22371   4.886   6.740   2.183  0.0868 -0.1584 -0.1247
  244SOD    SOD22372   2.811   4.698   4.598  0.4209  0.4273  0.2862
  245SOD    SOD22373   4.435   2.881   5.820 -0.3764 -0.0729  0.0344
  246SOD    SOD22374   1.384   3.027  16.670  0.1052  0.4665 -0.2856
  247SOD    SOD22375   6.063   4.339  16.559  0.3157 -0.0443 -0.0084
  248SOD    SOD22376   6.571   2.190  13.185 -0.3841  0.1247  0.7522
  249SOD    SOD22377   2.737   3.684   2.464 -0.4385 -0.3948  0.0495
  250SOD    SOD22378   6.208   2.859   5.943 -0.6735  0.1337  0.5398
  251SOD    SOD22379   5.164   5.191   2.669 -0.2227 -0.2680 -0.2835
  252SOD    SOD22380   4.248   0.835  17.191  0.2871 -0.0516 -0.4081
  253SOD    SOD22381   0.336   2.955  10.407 -0.0661 -0.0086  0.3542
  254SOD    SOD22382   2.847   3.440  17.163 -0.2979 -0.1332 -0.0110
  255SOD    SOD22383   0.915   2.359   5.225 -0.3421  0.1534 -0.2552
  256SOD    SOD22384   6.641   0.357  15.743 -0.2994 -0.3018 -0.3723
  257SOD    SOD22385   1.220   0.452   1.619 -0.2714 -0.0908  0.6253
  258SOD    SOD22386   5.749   5.518  14.219 -0.1407  0.2464 -0.4698
  259SOD    SOD22387   1.855   5.950  12.446  0.2899  0.1354 -0.2112
  260SOD    SOD22388   1.809   0.728  13.885  0.0694 -0.0440 -0.3834
  261SOD    SOD22389   5.077   4.263  11.887  0.4489  0.1084 -0.1903
  262SOD    SOD22390   1.343   4.144  16.048 -0.0633 -0.0940  0.4758
  263SOD    SOD22391   2.962   2.243   1.301 -0.4368  0.0658  0.1494
  264SOD    SOD22392   6.553   4.000  11.094 -0.1395  0.2369  0.3221
  265SOD    SOD22393   6.549   0.382   0.841  0.1707  0.0019 -0.2167
  266CLA    CLA22394   1.004   3.854   2.498 -0.0447  0.4020 -0.0195
  267CLA    CLA22395   3.312   5.134   4.063 -0.2408  0.2229  0.0166
  268CLA    CLA22396   1.945   4.652  16.249 -0.1461 -0.2075  0.0088
  269CLA    CLA22397   5.396   5.797   5.587 -0.2666  0.2625 -0.0341
  270CLA    CLA22398   4.158   4.006  12.127 -0.0525 -0.3841  0.4505
  271CLA    CLA22399   2.437   0.099  16.094  0.1733 -0.3038  0.0591
  272CLA    CLA22400   0.762   2.550   4.535  0.3668  0.1645  0.0628
  273CLA    CLA22401   2.495   2.856  13.663 -0.0416  0.0009 -0.1180
  274CLA    CLA22402   2.742   1.639  11.099 -0.0026 -0.2371 -0.1429
  275CLA    CLA22403   3.137   5.977   0.685  0.1962  0.3989  0.1495
  276CLA    CLA22404   5.119   3.498  12.884 -0.1631 -0.5543 -0.0289
  277CLA    CLA22405   6.341   2.678   0.194 -0.0512  0.3107 -0.0664
  278CLA    CLA22406   5.459   3.180   0.267 -0.1126  0.1571 -0.0906
  279CLA    CLA22407   5.926   6.476   0.770  0.2439 -0.4360 -0.0971
  280CLA    CLA22408   1.966   6.226  17.005 -0.4779  0.1262 -0.2600
  281CLA    CLA22409   4.773   3.117  11.953  0.5344 -0.0602 -0.0872
  282CLA    CLA22410   6.647   4.007  16.933  0.0969  0.1411  0.2523
  283CLA    CLA22411   0.115   1.756   3.747  0.1211  0.1347  0.0230
  284CLA    CLA22412   1.986   6.694  15.205  0.4278 -0.0316  0.2677
  285CLA    CLA22413   5.490   0.302  11.767  0.1975  0.4058 -0.2462
  286CLA    CLA22414   4.857   5.773   3.694  0.4390  0.1182  0.2302
  287CLA    CLA22415   6.649   2.502   5.023  0.3952 -0.1062  0.1436
  288CLA    CLA22416   5.774   4.651  11.392  0.0564 -0.1079 -0.0117
  289CLA    CLA22417   0.072   0.374   0.173 -0.2136 -0.1779 -0.1095
  290CLA    CLA22418   6.685   4.960   1.056  0.1873 -0.0527 -0.1215
  291CLA    CLA22419   1.373   3.361   1.526 -0.3562 -0.0648  0.2185
  292CLA    CLA22420   3.813   2.874  14.710 -0.2253  0.1627 -0.1096
  293CLA    CLA22421   5.907   1.591   3.386 -0.1091  0.1477  0.5912
  294CLA    CLA22422   6.430   0.697  11.418 -0.2878  0.1465  0.1288
  295CLA    CLA22423   1.829   3.093  15.307 -0.2242 -0.4792  0.4548
  296CLA    CLA22424   4.302   2.521   4.476  0.3421 -0.1559 -0.3408
  297CLA    CLA22425   4.781   6.363  11.308 -0.3909  0.2897  0.2822
  298CLA    CLA22426   6.616   3.972  14.406 -0.1344 -0.2142  0.2564
  299CLA    CLA22427   0.426   6.604  11.679 -0.0987 -0.2205 -0.1397
  300CLA    CLA22428   6.051   3.279  16.081 -0.3299  0.0943  0.3332
  301CLA    CLA22429   5.449   0.186   0.756 -0.3285  0.1224 -0.0543
  302CLA    CLA22430   1.474   3.928   0.044  0.2490  0.0152  0.2524
  303CLA    CLA22431   1.301   2.665   4.062 -0.3198  0.1028 -0.2073
  304CLA    CLA22432   4.255   0.309  16.630  0.0563  0.6823  0.1560
  305CLA    CLA22433   5.416   3.023  12.338 -0.2708  0.1984  0.2755
  306CLA    CLA22434   4.248   5.761  16.282 -0.1397 -0.3721 -0.2280
  307CLA    CLA22435   2.667   2.852  17.017 -0.3438  0.3043  0.4993
  308CLA    CLA22436   0.716   1.277  13.689 -0.4144  0.0780  0.1476
  309CLA    CLA22437   4.329   2.201  13.923 -0.4840 -0.0978 -0.1823
  310CLA    CLA22438   4.379   0.119   3.463  0.1970 -0.0354  0.1351
  311CLA    CLA22439   0.411   2.657  14.145  0.0606  0.0847 -0.2884
  312CLA    CLA22440   1.639   0.714   1.840  0.2777  0.1774 -0.1185
  313CLA    CLA22441   2.640   5.915  13.304  0.1922  0.2450  0.2055
  314CLA    CLA22442   2.878   1.886   1.669 -0.1925  0.1744  0.0256
  315CLA    CLA22443   1.335   5.721  13.606 -0.1878  0.2406  0.0626
  316CLA    CLA22444   3.097   4.196   3.657 -0.0357 -0.3870  0.0422
  317CLA    CLA22445   4.947   1.834   4.766  0.2962  0.1281 -0.1671
  318CLA    CLA22446   5.459   6.064  14.251  0.1581 -0.1864 -0.0630
  319TIP3   OH222447   3.532   6.752   4.420 -0.1795 -0.3303 -0.4584
  319TIP3    H122448   3.597   6.737   4.489  0.0421 -1.4526 -0.8854
  319TIP3    H222449   3.581   6.794   4.350 -0.1956 -0.0459 -0.3007
  320TIP3   OH222450   5.091   1.391   5.855 -0.2304 -0.1473  0.0702
  320TIP3    H122451   5.166   1.389   5.913  0.7491  0.8489 -1.0999
  320TIP3    H222452   5.059   1.482   5.860 -0.0581 -0.0151 -1.0128
  321TIP3   OH222453   4.345   3.281   0.510 -0.2787  0.3338 -0.0295
  321TIP3    H122454   4.291   3.326   0.574  0.5316  0.9762  0.2089
  321TIP3    H222455   4.408   3.346   0.480  0.4999 -0.4562 -0.1574
  322TIP3   OH222456   0.791   5.432   4.452  0.5631  0.2332  0.1428
  322TIP3    H122457   0.883   5.434   4.427  0.4483  1.0767 -0.2874
  322TIP3    H222458   0.763   5.524   4.447 -0.2350  0.0239  0.5098
  323TIP3   OH222459   2.964   1.465   1.455 -0.2957 -0.4164 -0.5821
  323TIP3    H122460   2.956   1.496   1.545 -0.4697  3.5178 -1.7571
  323TIP3    H222461   2.906   1.389   1.450 -1.6368  0.3114  2.1751
  324TIP3   OH222462   4.895   1.361  13.626  0.5204 -0.2486 -0.2359
  324TIP3    H122463   4.885   1.442  13.676  1.8710 -0.0641 -0.2249
  324TIP3    H222464   4.990   1.351  13.615  0.3788 -1.7986 -0.2919
  325TIP3   OH222465   3.541   4.931   5.985 -0.3163  0.2515 -0.0029
  325TIP3    H122466   3.557   4.851   6.036  2.7916 -0.2522 -1.5374
  325TIP3    H222467   3.520   4.997   6.051  3.2775 -0.4136  2.1306
  326TIP3   OH222468   4.925   0.214  16.068 -0.1648  0.5566  0.6695
  326TIP3    H122469   4.986   0.235  15.998 -0.3992  1.3583  0.6839
  326TIP3    H222470   4.957   0.263  16.143 -0.5575  0.6201  0.8018
  327TIP3   OH222471   3.139   5.491  11.696  0.1766 -0.3117 -0.4205
  327TIP3    H122472   3.178   5.572  11.730  0.3664 -1.1834  1.5345
  327TIP3    H222473   3.134   5.506  11.601 -0.7369  2.3945 -0.0559
  328TIP3   OH222474   4.775   4.249  15.773  0.0762 -0.6728  0.0587
  328TIP3    H122475   4.808   4.194  15.843 -0.6419 -0.4511  0.5827
  328TIP3    H222476   4.705   4.300  15.813 -1.1617 -1.3974 -1.0914
  329TIP3   OH222477   0.394   4.294  13.475  0.3117 -0.0932  0.2232
  329TIP3    H122478   0.337   4.220  13.456 -1.7927  1.3417  0.6453
  329TIP3    H222479   0.351   4.339  13.548  2.3615  0.6919  1.0140
  330TIP3   OH222480   6.789   5.495  12.977 -0.3612  0.3311 -0.1107
  330TIP3    H122481   6.832   5.580  12.968 -0.9601  0.9006  1.7856
  330TIP3    H222482   6.833   5.455  13.052 -1.7197  0.0423  0.5566
  331TIP3   OH222483   2.540   0.117   5.055 -0.0831  0.2165 -0.3454
  331TIP3    H122484   2.507   0.118   4.965  0.2075 -0.8171 -0.4804
  331TIP3    H222485   2.631   0.145   5.047  0.4970 -1.6313 -0.6465
  332TIP3   OH222486   1.238   4.517   2.114  0.1937  0.4688 -0.2815
  332TIP3    H122487   1.275   4.512   2.026  0.6601  1.6040 -0.1702
  332TIP3    H222488   1.144   4.528   2.100  0.1602 -0.2178 -0.6154
  333TIP3   OH222489   0.146   3.069  12.766 -0.0374 -0.0994  0.9268
  333TIP3    H122490   0.197   3.065  12.847  1.7661 -1.1644 -0.1923
  333TIP3    H222491   0.205   3.033  12.699 -1.9346 -0.4786 -0.6231
  334TIP3   OH222492   0.035   3.919  15.421  0.8903 -0.1446 -0.0418
  334TIP3    H122493   0.076   3.883  15.343  0.9663 -0.2504  0.0476
  334TIP3    H222494   0.105   3.924  15.486  1.2777  1.7119 -0.5500
  335TIP3   OH222495   2.302   6.774  14.994 -0.1491  0.3338 -1.0129
  335TIP3    H122496   2.235   6.730  15.047 -0.3154  0.0996 -1.4092
  335TIP3    H222497   2.344   6.703  14.945  0.7487  0.4066 -0.3881
  336TIP3   OH222498   4.430   4.362  14.323  0.0015  0.1650 -0.0412
  336TIP3    H122499   4.341   4.386  14.351 -0.6649 -2.0374 -0.0538
  336TIP3    H222500   4.428   4.373  14.228 -0.1317  0.5366  0.0037
  337TIP3   OH222501   2.344   3.868   0.900 -0.3925  0.3678 -0.4747
  337TIP3    H122502   2.341   3.922   0.979 -1.5181 -2.2217  1.3819
  337TIP3    H222503   2.437   3.865   0.877 -0.0380  1.0782  0.7994
  338TIP3   OH222504   5.088   4.813  17.003  0.1419 -0.0210  0.1900
  338TIP3    H122505   4.999   4.790  16.977 -0.2009 -0.5461  1.7537
  338TIP3    H222506   5.104   4.898  16.961 -1.2702  0.2992  0.2600
  339TIP3   OH222507   2.719   2.628  13.124  0.4107 -0.2309 -0.4683
  339TIP3    H122508   2.767   2.651  13.045  0.8708 -1.4468 -0.5533
  339TIP3    H222509   2.698   2.713  13.164  1.1261  0.3660 -1.3147
  340TIP3   OH222510   3.789   4.588   4.541 -0.1290 -0.8861  0.0961
  340TIP3    H122511   3.756   4.529   4.473 -0.9148  0.0585 -0.3725
  340TIP3    H222512   3.882   4.599   4.520 -0.4900 -0.1180 -1.2225
  341TIP3   OH222513   6.511   3.640  14.808 -0.1682  0.5423 -0.6882
  341TIP3    H122514   6.498   3.706  14.740 -0.8392  0.5326 -0.5758
  341TIP3    H222515   6.445   3.661  14.874  0.5953  0.6661  0.0554
  342TIP3   OH222516   4.305   4.941  15.316 -0.0398  0.3987  0.0519
  342TIP3    H122517   4.289   4.972  15.405 -0.5091  2.3149 -0.6530
  342TIP3    H222518   4.400   4.939  15.307  0.0326 -0.5540  0.8055
  343TIP3   OH222519   6.302   6.283  11.379  0.1198 -0.2904  0.4646
  343TIP3    H122520   6.243   6.355  11.357  1.9458  1.0709 -0.1874
  343TIP3    H222521   6.374   6.325  11.426  1.1250 -1.7433  0.2720
  344TIP3   OH222522   4.837   3.650   6.099 -0.3000 -0.2405  0.3640
  344TIP3    H122523   4.870   3.564   6.124  2.0363  0.4053 -0.3220
  344TIP3    H222524   4.859   3.707   6.172  0.2083  0.2275 -0.1497
  345TIP3   OH222525   4.889   5.561  16.408  0.0128 -0.3043  0.6272
  345TIP3    H122526   4.798   5.535  16.393  0.3223 -1.9558  1.4346
  345TIP3    H222527   4.887   5.657  16.410 -1.3277 -0.2204 -1.6050
  346TIP3   OH222528   3.297   4.425   4.164  0.6050  0.6035  0.3638
  346TIP3    H122529   3.285   4.356   4.098  0.5437 -1.9796  2.9033
  346TIP3    H222530   3.209   4.444   4.195  0.8432 -2.0593  3.2169
  347TIP3   OH222531   4.018   4.061   2.844  0.5983  0.3480 -0.0275
  347TIP3    H122532   4.080   4.083   2.774  0.7822  0.5906  0.2127
  347TIP3    H222533   3.948   4.125   2.836  0.6871  0.4606  0.0970
  348TIP3   OH222534   1.304   6.412  16.349 -0.0185 -0.0784 -0.0470
  348TIP3    H122535   1.258   6.390  16.268 -0.7283  1.9394 -0.2593
  348TIP3    H222536   1.235   6.410  16.416  0.7392 -2.7627  0.8007
  349TIP3   OH222537   0.380   2.082  10.980  0.0016 -0.0086 -0.2223
  349TIP3    H122538   0.308   2.020  10.979 -0.0790 -0.0594  2.0351
  349TIP3    H222539   0.339   2.166  11.001  0.1299  0.8684 -3.0815
  350TIP3   OH222540   6.183   1.593  16.874 -0.1798 -0.0620 -0.0008
  350TIP3    H122541   6.205   1.687  16.875  0.1673 -0.1328 -0.6577
  350TIP3    H222542   6.109   1.587  16.815  0.3286 -0.3117 -0.6202
  351TIP3   OH222543   6.595   2.184   1.380  0.1065 -0.0283  0.1219
  351TIP3    H122544   6.568   2.150   1.295 -2.3741 -0.3903  0.9886
  351TIP3    H222545   6.586   2.279   1.372 -1.0754 -0.1184  0.2557
  352TIP3   OH222546   3.406   5.080   2.546 -0.0073 -0.0060  0.1883
  352TIP3    H122547   3.331   5.106   2.599  0.0085  1.2999 -0.4183
  352TIP3    H222548   3.396   4.985   2.537 -1.5474  0.1266  0.1738
  353TIP3   OH222549   6.586   6.304   2.534 -0.0511 -0.0315 -0.1513
  353TIP3    H122550   6.541   6.258   2.605 -0.0884 -0.1748 -0.2670
  353TIP3    H222551   6.562   6.256   2.455 -0.7729  0.6729 -0.3839
  354TIP3   OH222552   3.357   1.370  12.680  0.7406 -0.3057 -0.6592
  354TIP3    H122553   3.335   1.321  12.759 -2.6021  2.3009  0.2853
  354TIP3    H222554   3.309   1.325  12.610 -0.9935  0.5385 -0.0819
  355TIP3   OH222555   6.595   5.819   0.731 -0.1617  0.3455 -0.0558
  355TIP3    H122556   6.516   5.766   0.722  0.8863 -2.0963  3.1494
  355TIP3    H222557   6.622   5.837   0.641 -1.3637 -3.5214 -1.4064
  356TIP3   OH222558   2.284   6.605   2.981  0.2893  0.4006 -0.0879
  356TIP3    H122559   2.190   6.619   2.993  0.4337  1.2156  0.1788
  356TIP3    H222560   2.319   6.693   2.964  1.0991  0.2113  0.5188
  357TIP3   OH222561   6.261   2.473   1.638 -0.2929  0.5523 -0.2026
  357TIP3    H122562   6.293   2.396   1.686  2.2731  2.1043  0.7301
  357TIP3    H222563   6.168   2.476   1.658 -0.1291 -1.3344  1.1084
  358TIP3   OH222564   3.084   3.136   5.845  0.1402  0.1958 -0.1460
  358TIP3    H122565   3.172   3.100   5.850  0.1736 -0.4300 -3.1477
  358TIP3    H222566   3.027   3.063   5.871  0.4482  0.3666  1.0606
  359TIP3   OH222567   2.979   3.587  15.359  0.0248  0.5623  0.3936
  359TIP3    H122568   2.889   3.608  15.384 -0.7647 -1.5419 -0.4583
  359TIP3    H222569   2.973   3.502  15.315  2.2754  0.8999 -0.7400
  360TIP3   OH222570   0.887   3.562   5.664  0.3793 -0.5774 -0.0466
  360TIP3    H122571   0.910   3.580   5.755  0.9176 -1.5180  0.0173
  360TIP3    H222572   0.845   3.476   5.666 -0.7492 -0.0558 -0.5326
  361TIP3   OH222573   0.671   5.291  16.843  0.9754 -0.3086  0.2646
  361TIP3    H122574   0.745   5.269  16.786  0.8271  0.9410 -0.4430
  361TIP3    H222575   0.607   5.222  16.826  1.0466 -0.1165 -0.8991
  362TIP3   OH222576   6.517   3.454   0.806 -0.0735 -0.6109  0.1351
  362TIP3    H122577   6.461   3.528   0.831 -0.3078 -0.9731  0.6986
  362TIP3    H222578   6.481   3.379   0.852  1.2162 -0.7498  0.9879
  363TIP3   OH222579   1.259   2.174   0.134 -0.3976 -0.2197 -0.2965
  363TIP3    H122580   1.269   2.263   0.101  1.9119 -0.9472 -1.8586
  363TIP3    H222581   1.232   2.123   0.057 -3.7690 -0.6218  1.0087
  364TIP3   OH222582   4.327   3.055  16.375 -0.3039  0.0513 -0.2099
  364TIP3    H122583   4.316   3.088  16.286  0.1449  0.0205 -0.2771
  364TIP3    H222584   4.349   3.133  16.426 -0.2755  0.0237 -0.1794
  365TIP3   OH222585   2.823   6.310   3.816 -0.1538 -0.3337  0.2954
  365TIP3    H122586   2.826   6.402   3.791  0.5392 -0.1452  1.0321
  365TIP3    H222587   2.911   6.277   3.798 -0.8082 -1.2913 -1.4815
  366TIP3   OH222588   4.099   3.454  14.978  0.2778  0.6446  0.0528
  366TIP3    H122589   4.120   3.494  14.894  3.7034  0.2149  0.5398
  366TIP3    H222590   4.133   3.516  15.043 -2.7608  1.2296  1.2574
  367TIP3   OH222591   6.433   3.564  10.751 -0.2670  0.7399  0.0143
  367TIP3    H122592   6.441   3.568  10.655 -0.1782  1.3561  0.0457
  367TIP3    H222593   6.406   3.473  10.768  0.4134  0.4225 -0.5402
  368TIP3   OH222594   4.118   3.179  16.627  0.1760 -0.5363 -0.1355
  368TIP3    H122595   4.056   3.246  16.655  0.5064 -0.7489  1.1638
  368TIP3    H222596   4.102   3.170  16.533 -0.7405  0.4528 -0.1006
  369TIP3   OH222597   0.428   2.470  13.896  0.5500 -0.3942  0.3954
  369TIP3    H122598   0.433   2.523  13.975  1.3629 -1.0521  0.8014
  369TIP3    H222599   0.335   2.467  13.874  0.4313  0.7088  0.6907
  370TIP3   OH222600   4.049   6.121   2.894 -0.3948 -0.1574  0.2786
  370TIP3    H122601   4.033   6.041   2.844 -0.1048 -0.5113  0.7452
  370TIP3    H222602   4.132   6.155   2.860 -1.1806  0.6870 -0.8623
  371TIP3   OH222603   1.073   4.888   4.263 -0.2589  0.7647  0.0516
  371TIP3    H122604   1.052   4.894   4.170 -0.1627 -1.0834 -0.1300
  371TIP3    H222605   1.058   4.977   4.297 -4.8755  0.5543 -0.7717
  372TIP3   OH222606   0.280   0.505  13.222 -0.4658 -0.2114  0.1914
  372TIP3    H122607   0.256   0.568  13.290 -2.6399  1.1267 -1.6815
  372TIP3    H222608   0.373   0.523  13.205 -0.7944  1.8789  0.3737
  373TIP3   OH222609   0.811   0.694  11.606  0.1499 -0.0110 -0.0803
  373TIP3    H122610   0.905   0.713  11.598 -0.1560  1.2524 -1.2284
  373TIP3    H222611   0.783   0.676  11.516 -0.5844 -1.0913  0.3505
  374TIP3   OH222612   4.681   3.429   2.270 -0.2272  0.7639 -0.2628
  374TIP3    H122613   4.706   3.507   2.221  0.4405  0.2039 -0.8468
  374TIP3    H222614   4.677   3.360   2.204  2.1607 -0.3424  0.6243
  375TIP3   OH222615   1.734   5.249   3.475 -0.1309 -0.0989  0.0715
  375TIP3    H122616   1.710   5.232   3.384 -0.6090  0.8694  0.0120
  375TIP3    H222617   1.825   5.220   3.481  0.1705  0.6073 -0.9348
  376TIP3   OH222618   2.931   6.081  13.849 -0.2918  0.1499 -0.3026
  376TIP3    H122619   2.977   6.099  13.931 -0.7319  1.0887 -0.2486
  376TIP3    H222620   2.887   5.997  13.863  2.2237 -1.3567 -0.7123
  377TIP3   OH222621   6.471   2.357  12.545 -0.2384  0.0249 -0.2559
  377TIP3    H122622   6.493   2.450  12.533 -1.1915  0.1908 -0.7720
  377TIP3    H222623   6.410   2.356  12.619 -0.0268 -0.2255 -0.0818
  378TIP3   OH222624   2.233   4.772  16.632  0.2217  0.0958  0.8478
  378TIP3    H122625   2.223   4.711  16.559  0.8417 -0.1477  0.9588
  378TIP3    H222626   2.275   4.849  16.594 -0.0333  0.2242  0.8245
  379TIP3   OH222627   5.152   6.427   4.543  0.0971  0.4309  0.2373
  379TIP3    H122628   5.167   6.353   4.484 -1.4265  0.8204 -0.6894
  379TIP3    H222629   5.150   6.388   4.630  0.7593 -0.4024 -0.1088
  380TIP3   OH222630   0.306   4.798   3.388 -0.0965  0.3534 -0.0991
  380TIP3    H122631   0.395   4.804   3.423 -1.0630  0.4555  2.5278
  380TIP3    H222632   0.295   4.705   3.369  0.2552  0.2059  0.4058
  381TIP3   OH222633   6.760   3.919  12.931 -0.0036 -0.0544  0.1248
  381TIP3    H122634   6.691   3.940  12.867 -0.5510  1.0617  1.0430
  381TIP3    H222635   6.840   3.953  12.891 -0.5434  1.8461  0.5683
  382TIP3   OH222636   2.116   4.272   4.061 -0.6443 -0.3460  0.7230
  382TIP3    H122637   2.076   4.185   4.066  0.4380 -0.8534  0.9393
  382TIP3    H222638   2.087   4.307   3.977 -2.0754 -0.4094  1.1688
  383TIP3   OH222639   4.887   3.465  15.694 -0.2242 -0.0328 -0.0706
  383TIP3    H122640   4.902   3.496  15.605 -0.4063  1.4499  0.3722
  383TIP3    H222641   4.811   3.407  15.687  0.3902 -0.7301 -1.0206
  384TIP3   OH222642   6.326   5.622   2.833  0.2589  0.4701 -0.2170
  384TIP3    H122643   6.380   5.566   2.778  0.0105 -0.0325  0.0438
  384TIP3    H222644   6.247   5.638   2.781 -0.1063 -0.2480  0.0956
  385TIP3   OH222645   0.098   5.158  16.630  0.6990 -0.0015 -0.1403
  385TIP3    H122646   0.004   5.162  16.645  0.9442  0.8670  1.3926
  385TIP3    H222647   0.125   5.249  16.615  1.4129 -0.1300  0.2992
  386TIP3   OH222648   4.387   6.361   5.220  0.4038  0.1595 -0.5894
  386TIP3    H122649   4.452   6.373   5.151  0.1508 -0.6861 -0.9874
  386TIP3    H222650   4.310   6.408   5.188  1.3012  2.6315  0.6503
  387TIP3   OH222651   0.339   2.854   4.215  0.3716  0.7420 -0.1462
  387TIP3    H122652   0.369   2.776   4.169 -0.7953 -0.9265  1.7215
  387TIP3    H222653   0.388   2.852   4.298 -0.8766  1.0175  0.6224
  388TIP3   OH222654   4.219   2.669  12.757 -0.3817  0.8464  0.1629
  388TIP3    H122655   4.198   2.743  12.700  1.1356  2.3191  1.4024
  388TIP3    H222656   4.135   2.644  12.796 -1.3990  0.0302 -2.3420
  389TIP3   OH222657   0.035   3.629   5.917 -0.3176 -0.3344 -0.0771
  389TIP3    H122658  -0.039   3.638   5.977 -1.6141  0.3459 -1.7051
  389TIP3    H222659   0.045   3.716   5.879  0.4545 -0.7618 -0.8797
  390TIP3   OH222660   3.442   0.148  15.285  0.4395  0.5088  0.2569
  390TIP3    H122661   3.398   0.181  15.364  3.2825 -1.0659  2.7225
  390TIP3    H222662   3.446   0.053  15.298 -0.0501  0.0361 -2.4627
  391TIP3   OH222663   5.657   4.400   2.834  0.5610 -0.2742  0.7252
  391TIP3    H122664   5.715   4.388   2.759  0.1604 -0.8737  0.5067
  391TIP3    H222665   5.634   4.311   2.862 -0.8164 -0.0650  0.3586
  392TIP3   OH222666   6.694   0.854   1.057 -0.3879  0.6336 -0.7027
  392TIP3    H122667   6.641   0.831   0.981 -0.7981 -0.0243 -0.2251
  392TIP3    H222668   6.632   0.857   1.129 -0.0663  1.6441 -0.4512
  393TIP3   OH222669   2.311   4.860  17.221  0.3291 -0.0747 -0.0160
  393TIP3    H122670   2.337   4.852  17.313  0.1434 -0.8035 -0.0168
  393TIP3    H222671   2.298   4.954  17.207  3.1575  0.4037 -0.0762
  394TIP3   OH222672   1.930   1.250  11.425 -0.0909 -0.1667  0.7075
  394TIP3    H122673   1.965   1.267  11.513 -0.7962 -2.2490  1.4507
  394TIP3    H222674   1.922   1.154  11.421 -0.6478 -0.0642 -1.4095
  395TIP3   OH222675   4.012   1.911   1.940  0.1004  0.6190 -0.1581
  395TIP3    H122676   4.037   1.820   1.957 -1.4000  0.2557  0.3012
  395TIP3    H222677   3.951   1.906   1.867  0.0040  1.2678 -0.1253
  396TIP3   OH222678   2.329   5.625  15.392 -0.5653 -0.1719  0.1808
  396TIP3    H122679   2.303   5.717  15.388 -0.6958 -0.2568 -2.0381
  396TIP3    H222680   2.424   5.626  15.379 -0.4328 -0.3204  1.0571
  397TIP3   OH222681   1.122   0.995  16.280  0.5898  0.0438  0.4819
  397TIP3    H122682   1.119   1.084  16.244 -0.0629  0.7912  2.2359
  397TIP3    H222683   1.061   0.998  16.354  1.0165 -1.7072  0.9454
  398TIP3   OH222684   1.551   6.456   2.891  0.2625 -0.2412 -0.0023
  398TIP3    H122685   1.486   6.525   2.877  0.0541 -0.1974  1.1072
  398TIP3    H222686   1.597   6.449   2.807 -0.1432  0.7954 -0.3259
  399TIP3   OH222687   3.493   5.253   1.708  0.0230  0.1278  0.5217
  399TIP3    H122688   3.461   5.183   1.765 -0.1781 -0.9245 -0.8356
  399TIP3    H222689   3.417   5.279   1.656  0.1760  1.1435  0.7715
  400TIP3   OH222690   5.305   4.415  15.875 -0.6597  0.5514  0.1672
  400TIP3    H122691   5.366   4.372  15.815 -1.5439 -0.0192 -0.3516
  400TIP3    H222692   5.324   4.509  15.865  0.4144  0.3639  0.3448
  401TIP3   OH222693   6.519   0.616   4.679  0.2651  0.0635  0.1016
  401TIP3    H122694   6.552   0.526   4.673  0.3382  0.1113 -0.2740
  401TIP3    H222695   6.596   0.671   4.662  1.2676  0.3437  4.5309
  402TIP3   OH222696   5.701   0.612   6.047  0.3574  0.0145 -0.1704
  402TIP3    H122697   5.773   0.668   6.018  1.6481 -1.7523 -0.5012
  402TIP3    H222698   5.742   0.548   6.104 -0.7682 -1.6748 -1.1800
  403TIP3   OH222699   2.205   1.636   2.971 -0.2779  0.0073  0.0785
  403TIP3    H122700   2.273   1.570   2.985  0.3310  0.2587 -1.4954
  403TIP3    H222701   2.233   1.711   3.023  1.3542  0.5527 -1.4892
  404TIP3   OH222702   2.375   5.479  15.829  0.1555  0.4464  0.1486
  404TIP3    H122703   2.418   5.543  15.886  1.5215 -0.0408 -0.2843
  404TIP3    H222704   2.315   5.530  15.775  1.1646  1.3745 -0.1340
  405TIP3   OH222705   2.349   6.399  14.549 -0.1074 -0.3117  0.3280
  405TIP3    H122706   2.280   6.414  14.614 -0.8009 -3.7027  0.5655
  405TIP3    H222707   2.348   6.477  14.493 -2.7015  0.6424  1.5795
  406TIP3   OH222708   5.098   1.067   5.377 -0.7745  0.4196  0.4798
  406TIP3    H122709   5.123   0.975   5.387  0.4494  0.7090  0.2153
  406TIP3    H222710   5.037   1.067   5.303  2.8197  0.3400 -2.8072
  407TIP3   OH222711   2.071   2.125   5.267  0.1142 -0.2543  0.2409
  407TIP3    H122712   2.134   2.156   5.201  0.1653  0.1875  0.4946
  407TIP3    H222713   2.089   2.032   5.275  2.1913  0.2238  1.8678
  408TIP3   OH222714   4.316   3.482   4.959  0.4095  0.1464  1.2226
  408TIP3    H122715   4.381   3.437   5.012  1.2728 -0.6623 -0.4385
  408TIP3    H222716   4.366   3.545   4.907  0.1010 -1.2147 -0.8508
  409TIP3   OH222717   5.000   6.539  15.286  0.4397 -0.3976 -0.4688
  409TIP3    H122718   4.943   6.609  15.316  0.6703 -0.1116 -0.6861
  409TIP3    H222719   5.088   6.577  15.288  0.4541 -0.3134 -1.6006
  410TIP3   OH222720   4.106   3.535  10.478 -0.8268 -0.5825  0.0395
  410TIP3    H122721   4.155   3.499  10.404 -0.7275  0.4215 -0.3997
  410TIP3    H222722   4.036   3.472  10.493  0.0205 -1.5500  0.0494
  411TIP3   OH222723   6.418   1.652   0.351 -0.3134 -0.4595  0.0107
  411TIP3    H122724   6.492   1.659   0.412 -0.0655 -0.0146 -0.3358
  411TIP3    H222725   6.456   1.621   0.269 -0.5161 -0.2610 -0.1610
  412TIP3   OH222726   2.045   4.471   2.494 -0.2722 -0.3064  0.1728
  412TIP3    H122727   1.964   4.420   2.500 -1.1768  0.8791 -1.3573
  412TIP3    H222728   2.055   4.510   2.581 -1.5683 -0.1286  0.2618
  413TIP3   OH222729   4.542   6.744   2.522  0.0071  0.5099 -0.4060
  413TIP3    H122730   4.608   6.762   2.590 -0.2962  0.4720 -0.1008
  413TIP3    H222731   4.465   6.716   2.571 -0.9546  2.6300 -0.6234
  414TIP3   OH222732   3.193   4.208   4.423 -0.3116 -0.1347  0.0975
  414TIP3    H122733   3.100   4.196   4.406 -0.2182 -0.5110 -0.1640
  414TIP3    H222734   3.225   4.119   4.443  0.1296 -0.1137 -0.5052
  415TIP3   OH222735   2.549   1.797  17.156  0.3320  0.4987  0.0062
  415TIP3    H122736   2.621   1.779  17.096 -2.0311  0.7082 -3.1657
  415TIP3    H222737   2.498   1.716  17.158 -0.0022  0.7099  1.2638
  416TIP3   OH222738   1.471   0.817   4.052 -0.2212  0.0003  0.2707
  416TIP3    H122739   1.547   0.849   4.003 -0.2378 -1.8898 -1.0908
  416TIP3    H222740   1.506   0.798   4.140  0.7571 -0.2630 -0.1592
  417TIP3   OH222741   3.985   1.317   3.776  0.6735 -0.3965 -0.0085
  417TIP3    H122742   3.927   1.390   3.796 -1.1694 -1.7313 -0.1911
  417TIP3    H222743   4.043   1.350   3.707  0.2302  1.0130  0.2563
  418TIP3   OH222744   2.481   6.160  15.732  0.0496 -0.3522 -0.3464
  418TIP3    H122745   2.523   6.079  15.759 -2.5099 -2.2236 -1.4983
  418TIP3    H222746   2.392   6.155  15.769 -0.7101  1.1305 -1.7923
  419TIP3   OH222747   3.006   4.476   2.669  0.3851 -0.4481 -0.1182
  419TIP3    H122748   3.007   4.507   2.760 -2.7046 -2.1573  0.6629
  419TIP3    H222749   3.039   4.550   2.618 -0.1534  1.5203  2.1885
  420TIP3   OH222750   4.153   5.113  11.213  0.4383  0.2313  0.0455
  420TIP3    H122751   4.116   5.198  11.236  0.2588  0.5159 -1.2246
  420TIP3    H222752   4.227   5.102  11.272  0.5591  1.3425  0.1170
  421TIP3   OH222753   1.576   3.069  15.664 -0.3769 -0.1725  0.3158
  421TIP3    H122754   1.619   3.084  15.748  1.8303 -1.1683 -0.5433
  421TIP3    H222755   1.620   3.129  15.604 -1.5936  0.1877 -0.2455
  422TIP3   OH222756   1.436   0.284   6.341 -0.4652 -0.1839 -0.4956
  422TIP3    H122757   1.398   0.338   6.271  1.1718 -0.3005 -1.5238
  422TIP3    H222758   1.421   0.194   6.312 -0.1058 -0.2343 -0.5336
  423TIP3   OH222759   1.470   2.625   6.118 -0.0097  0.0473 -0.7322
  423TIP3    H122760   1.514   2.605   6.036  0.1164  0.4133 -0.7560
  423TIP3    H222761   1.431   2.542   6.146  2.0154 -0.6756  0.1171
  424TIP3   OH222762   5.097   1.736   5.591  0.2908 -0.2107  0.0758
  424TIP3    H122763   5.133   1.725   5.503  0.3088  1.0575 -0.0890
  424TIP3    H222764   5.036   1.809   5.583  0.0287 -0.3199  1.0374
  425TIP3   OH222765   0.945   6.051  16.563  0.2708 -0.1742 -0.0522
  425TIP3    H122766   0.860   6.009  16.574 -0.2175  0.8699  0.2521
  425TIP3    H222767   1.003   5.980  16.534 -0.9766 -0.6546 -1.4886
  426TIP3   OH222768   1.770   2.492  13.151 -0.2043 -0.5588  0.2135
  426TIP3    H122769   1.839   2.447  13.200 -0.1765 -0.3735  0.3441
  426TIP3    H222770   1.736   2.425  13.092 -0.3654 -0.8340  0.6183
  427TIP3   OH222771   5.882   5.687  15.031 -0.2170 -0.3652 -0.7607
  427TIP3    H122772   5.968   5.659  15.062 -0.2756 -1.2971 -1.4021
  427TIP3    H222773   5.900   5.753  14.965 -0.0604  0.7846  0.3964
  428TIP3   OH222774   3.882   6.430   3.269  0.3178  0.6994  0.2634
  428TIP3    H122775   3.923   6.476   3.342 -0.5176  0.0384  1.1899
  428TIP3    H222776   3.947   6.366   3.241 -0.2593 -0.8439  2.2047
  429TIP3   OH222777   4.328   0.001   6.847 -0.0484  0.1676  0.0775
  429TIP3    H122778   4.412   0.017   6.890 -1.1990  1.8270  1.8774
  429TIP3    H222779   4.285  -0.064   6.902 -0.7248  0.8113  0.3265
  430TIP3   OH222780   4.362   2.898   5.587  0.1138  0.7822 -0.1160
  430TIP3    H122781   4.380   2.887   5.494  0.0589  1.4438 -0.2077
  430TIP3    H222782   4.266   2.903   5.593 -0.0176 -1.2853  0.2126
  431TIP3   OH222783   6.622   6.714  14.411  0.7261 -0.3461  0.4096
  431TIP3    H122784   6.668   6.631  14.396 -1.6476 -1.4435 -1.3791
  431TIP3    H222785   6.607   6.749  14.324 -1.7826 -0.0611  0.8870
  432TIP3   OH222786   3.246   0.095   4.952  0.0384 -0.2097 -0.1096
  432TIP3    H122787   3.158   0.117   4.981 -0.0097 -0.3726 -0.1315
  432TIP3    H222788   3.238   0.007   4.915 -0.2361  0.6058 -2.1124
  433TIP3   OH222789   1.278   3.202  15.413 -0.0403 -0.0794  0.0602
  433TIP3    H122790   1.301   3.255  15.337 -1.5304  2.3609  1.1840
  433TIP3    H222791   1.187   3.176  15.397  0.4769 -1.8882 -0.1878
  434TIP3   OH222792   6.050   3.334   4.928  0.1046 -0.4659 -0.0733
  434TIP3    H122793   6.144   3.316   4.926  0.0244 -0.8437 -1.1521
  434TIP3    H222794   6.025   3.343   4.836 -0.9620 -0.6140  0.1837
  435TIP3   OH222795   6.442   3.772   5.882  0.1434  0.0484  0.0093
  435TIP3    H122796   6.496   3.851   5.884  0.9125 -0.3989 -1.6774
  435TIP3    H222797   6.498   3.705   5.921  0.1088 -0.0309 -0.0795
  436TIP3   OH222798   4.658   6.649   3.106 -0.2074 -0.2828 -0.3430
  436TIP3    H122799   4.706   6.611   3.033 -1.1034 -0.6299 -0.7664
  436TIP3    H222800   4.581   6.593   3.116  0.6196 -1.1423  1.8279
  437TIP3   OH222801   0.741   4.144  13.867  0.1105  0.3767 -0.0357
  437TIP3    H122802   0.825   4.166  13.827 -0.5435  3.2137 -0.0112
  437TIP3    H222803   0.760   4.140  13.960  0.2778  0.6177 -0.0587
  438TIP3   OH222804   6.109   6.033  12.620  0.0081 -0.0940  0.4404
  438TIP3    H122805   6.182   6.019  12.680 -1.6307 -2.8489  2.0206
  438TIP3    H222806   6.049   6.091  12.668 -0.4213 -0.6978  0.6356
  439TIP3   OH222807   4.557   2.784  10.755  0.5222 -0.0370 -0.1570
  439TIP3    H122808   4.603   2.747  10.680 -0.2227 -0.9017 -0.1980
  439TIP3    H222809   4.616   2.767  10.829 -0.0844 -1.9255 -0.0692
  440TIP3   OH222810   2.657   0.981  11.765  0.6265 -0.1599 -0.3646
  440TIP3    H122811   2.671   0.890  11.741  0.0384 -0.4150  0.2223
  440TIP3    H222812   2.585   0.978  11.829  2.0766  0.4721  1.3937
  441TIP3   OH222813   4.358   4.510  16.586  0.1024  0.4878 -0.3026
  441TIP3    H122814   4.298   4.530  16.513  0.4729 -2.8778 -1.6925
  441TIP3    H222815   4.303   4.470  16.653  0.1210  1.6087  0.4131
  442TIP3   OH222816   0.342   3.618  12.996 -0.3906  0.2557  0.4207
  442TIP3    H122817   0.429   3.579  12.997  1.1240  3.3671  0.8495
  442TIP3    H222818   0.287   3.552  12.953  1.7727 -2.4857  1.5436
  443TIP3   OH222819   1.337   2.729   6.424 -0.1958 -0.0071  1.1857
  443TIP3    H122820   1.274   2.793   6.390 -0.9433 -2.2285 -2.0066
  443TIP3    H222821   1.283   2.654   6.451  0.8733 -0.6139  1.6956
  444TIP3   OH222822   0.921   3.710  14.514  0.0472  0.4848 -0.3213
  444TIP3    H122823   0.881   3.796  14.527 -0.2419  0.4098 -0.7031
  444TIP3    H222824   0.962   3.715  14.427 -0.0904  0.1972 -0.4078
  445TIP3   OH222825   3.676   3.637   6.674 -0.0564 -0.5566  0.0181
  445TIP3    H122826   3.758   3.600   6.706  0.5194  0.5675 -0.1380
  445TIP3    H222827   3.611   3.612   6.740  0.9134  0.8569  1.5901
  446TIP3   OH222828   2.239   5.245  15.858  0.5390 -0.3381 -0.3894
  446TIP3    H122829   2.164   5.234  15.799  0.0148  0.3052  0.1327
  446TIP3    H222830   2.262   5.338  15.849 -1.8930  0.8243  3.0626
  447TIP3   OH222831   0.465   0.311   1.364  0.1730  0.6121  0.1626
  447TIP3    H122832   0.370   0.298   1.368  0.2114  0.6157  2.0106
  447TIP3    H222833   0.500   0.224   1.345 -0.1530  0.3658  0.6619
  448TIP3   OH222834   5.070   2.205  16.189 -0.1920 -0.5662 -0.4406
  448TIP3    H122835   5.080   2.178  16.280  0.9356 -0.7912 -0.6059
  448TIP3    H222836   5.098   2.128  16.139 -3.0886 -1.3225 -1.0542
  449TIP3   OH222837   5.697   1.241   4.892  0.6630  0.1811 -0.7479
  449TIP3    H122838   5.778   1.208   4.930 -0.7027 -1.1507  1.2121
  449TIP3    H222839   5.714   1.247   4.798  2.3390 -2.1411 -0.6644
  450TIP3   OH222840   5.311   1.687  15.292  0.3678  0.6348 -0.3071
  450TIP3    H122841   5.233   1.741  15.301 -0.3070 -0.3939  0.3182
  450TIP3    H222842   5.299   1.617  15.357  1.1071 -0.3703 -1.2134
  451TIP3   OH222843   0.159   5.293  11.115  0.5436 -0.8707 -0.0394
  451TIP3    H122844   0.074   5.322  11.149  0.7676 -0.9717  0.6099
  451TIP3    H222845   0.170   5.343  11.033  0.7773  0.6889  0.8926
  452TIP3   OH222846   4.242   0.057   5.133 -0.0192  0.3456 -0.7134
  452TIP3    H122847   4.267  -0.019   5.184  0.7534  0.3940 -1.0047
  452TIP3    H222848   4.213   0.022   5.049  0.5664  0.3830 -0.9342
  453TIP3   OH222849   3.107   5.330  13.456 -0.4597  0.4465  0.0559
  453TIP3    H122850   3.175   5.394  13.477  0.5660 -0.6427  0.2018
  453TIP3    H222851   3.025   5.377  13.468  0.2098  1.2741  1.7654
  454TIP3   OH222852   1.008   4.164  12.714  0.1953 -0.3333 -0.2510
  454TIP3    H122853   1.088   4.209  12.689  0.0980  0.7896  1.3257
  454TIP3    H222854   0.937   4.221  12.682  0.0470 -0.3540  0.0389
  455TIP3   OH222855   1.710   3.494  14.120  0.0033  0.1732 -0.5744
  455TIP3    H122856   1.654   3.531  14.189  0.4565 -0.1353 -0.0364
  455TIP3    H222857   1.768   3.433  14.166 -0.3281 -0.7627 -1.3604
  456TIP3   OH222858   0.621   4.658  16.762 -0.1671 -0.3537  0.2324
  456TIP3    H122859   0.656   4.703  16.839  1.4405  0.2098 -0.7499
  456TIP3    H222860   0.678   4.582  16.751 -0.0935 -0.1892 -0.6270
  457TIP3   OH222861   6.509   5.158   1.200  0.3843  0.4489  0.4773
  457TIP3    H122862   6.460   5.106   1.265 -0.0059 -0.2028 -0.3226
  457TIP3    H222863   6.557   5.093   1.148 -1.0564  0.7500 -1.3221
  458TIP3   OH222864   2.735   0.541   0.295 -0.4351 -0.2350  0.3606
  458TIP3    H122865   2.685   0.557   0.375 -0.0432  1.2835  0.3280
  458TIP3    H222866   2.678   0.571   0.224 -0.3823 -0.6402  0.1424
  459TIP3   OH222867   3.818   5.908  13.573  0.0006  0.1136  0.1136
  459TIP3    H122868   3.753   5.873  13.635 -1.2428  0.9005 -0.7110
  459TIP3    H222869   3.788   5.996  13.554 -0.4217 -0.5575 -2.6607
  460TIP3   OH222870   4.808   6.444   3.331  0.1662  0.0230 -0.0040
  460TIP3    H122871   4.743   6.467   3.397 -1.7954  1.4755 -2.2516
  460TIP3    H222872   4.763   6.382   3.274 -0.0873  2.4810 -2.7060
  461TIP3   OH222873   2.268   0.759  12.353  0.8826  0.8602  1.1763
  461TIP3    H122874   2.213   0.756  12.275  1.9872  2.6981  0.2519
  461TIP3    H222875   2.261   0.671  12.391 -1.5381  0.6336  0.3527
  462TIP3   OH222876   1.855   1.315   2.136  0.0085 -0.3758  0.2473
  462TIP3    H122877   1.872   1.297   2.228 -0.5987  3.5645  1.2904
  462TIP3    H222878   1.772   1.270   2.118 -1.1314  0.6940  2.4135
  463TIP3   OH222879   3.588   6.304  16.592  0.8955 -0.0815  0.1358
  463TIP3    H122880   3.625   6.292  16.680  1.6975  0.9394 -0.0457
  463TIP3    H222881   3.620   6.229  16.542 -0.0629 -1.0010  0.8471
  464TIP3   OH222882   5.772   3.005  16.548 -0.5093 -0.0977 -0.1228
  464TIP3    H122883   5.864   3.019  16.525 -0.7600 -0.4484 -1.4494
  464TIP3    H222884   5.729   2.993  16.464 -1.2374 -3.0883  0.5765
  465TIP3   OH222885   4.743   3.576  14.187 -0.3378 -0.1832  0.4640
  465TIP3    H122886   4.696   3.519  14.248 -0.0457 -0.3457  0.5352
  465TIP3    H222887   4.803   3.518  14.141 -0.6579 -0.0909 -0.0852
  466TIP3   OH222888   3.979   6.102  12.673  0.4387  0.4743 -0.5128
  466TIP3    H122889   4.030   6.040  12.726  1.1215 -0.3670 -2.0808
  466TIP3    H222890   4.016   6.188  12.694  2.6951 -0.1241 -1.7474
  467TIP3   OH222891   4.010   3.168   4.957 -0.2678  0.3810 -0.0538
  467TIP3    H122892   4.057   3.147   4.877  0.8714  0.0598  0.6692
  467TIP3    H222893   3.993   3.083   4.999  0.3227  0.6070  0.6725
  468TIP3   OH222894   3.564   3.717   5.110 -0.3968 -0.3480 -0.1180
  468TIP3    H122895   3.550   3.667   5.190 -1.9391  1.0214  0.5362
  468TIP3    H222896   3.589   3.652   5.044  0.0341 -1.6119  1.2441
  469TIP3   OH222897   1.528   6.150  11.867  1.0699 -0.0482 -0.1260
  469TIP3    H122898   1.557   6.237  11.893  0.7115 -0.2999  1.1475
  469TIP3    H222899   1.586   6.126  11.795  1.1220  1.2634 -0.5353
  470TIP3   OH222900   0.467   0.330   6.408  0.0500 -0.1595 -0.1668
  470TIP3    H122901   0.524   0.407   6.418  1.3725 -0.6692 -2.8878
  470TIP3    H222902   0.493   0.272   6.480  1.0380  0.7395  0.2393
  471TIP3   OH222903   2.124   0.463  13.953  0.7939  0.4481 -0.0365
  471TIP3    H122904   2.070   0.427  13.882  0.5906  0.1311  0.2749
  471TIP3    H222905   2.167   0.387  13.992 -0.0229  0.4545  0.9479
  472TIP3   OH222906   5.260   2.155  12.159 -0.2039  0.4308 -0.0020
  472TIP3    H122907   5.221   2.115  12.081 -2.6925 -1.4770  2.0339
  472TIP3    H222908   5.329   2.093  12.185  2.3392  2.2545 -1.8429
  473TIP3   OH222909   1.011   3.618   1.579  0.4474 -0.0482 -0.1756
  473TIP3    H122910   1.022   3.523   1.571  2.9409  0.0713  0.8676
  473TIP3    H222911   1.100   3.652   1.585 -0.4173  2.2017  1.1921
  474TIP3   OH222912   5.745   5.151   2.994  0.0053  0.1079 -0.2872
  474TIP3    H122913   5.698   5.068   2.988 -1.1243  0.5666  1.4919
  474TIP3    H222914   5.837   5.127   2.987 -0.1258 -1.6513  2.4975
  475TIP3   OH222915   3.649   4.128  13.656  0.2526  0.0405  0.5034
  475TIP3    H122916   3.586   4.185  13.700  1.3415  0.9339  0.9622
  475TIP3    H222917   3.687   4.183  13.587  1.5694  0.0104  1.1719
  476TIP3   OH222918   3.576   0.928   3.065 -0.0954  0.2095  0.1530
  476TIP3    H122919   3.604   0.837   3.072  1.4131  0.7327  1.8063
  476TIP3    H222920   3.481   0.924   3.061 -0.2366 -1.3876  2.7048
  477TIP3   OH222921   0.565   1.792   2.117 -0.2736  0.4896  0.7079
  477TIP3    H122922   0.647   1.747   2.095  0.5426  1.3301  1.9598
  477TIP3    H222923   0.518   1.798   2.033  1.5574  1.2347 -0.3133
  478TIP3   OH222924   3.296   0.854  15.586  0.4450  0.1473 -0.3392
  478TIP3    H122925   3.317   0.763  15.565  1.5464  0.4257 -0.5189
  478TIP3    H222926   3.290   0.855  15.682 -0.1706 -0.2257 -0.3673
  479TIP3   OH222927   2.241   0.193  13.981  0.1156 -0.5677 -0.4626
  479TIP3    H122928   2.296   0.165  14.054  0.8095 -1.2509 -1.2303
  479TIP3    H222929   2.276   0.147  13.905 -1.6260 -1.1838 -0.9495
  480TIP3   OH222930   0.878   1.188   1.452 -0.7831  0.2228  0.2318
  480TIP3    H122931   0.867   1.242   1.530  1.7341  0.1057  0.7664
  480TIP3    H222932   0.926   1.111   1.483  3.0915  1.5566 -1.7638
  481TIP3   OH222933   1.527   4.768   1.585  0.7189 -0.2892  0.3343
  481TIP3    H122934   1.506   4.704   1.517 -1.2632  0.6226  0.0057
  481TIP3    H222935   1.451   4.767   1.643  1.2222  0.8613  1.0472
  482TIP3   OH222936   2.216   0.182   4.337 -0.0673 -0.0607  0.0451
  482TIP3    H122937   2.291   0.122   4.340 -0.6168 -1.0324 -2.9276
  482TIP3    H222938   2.154   0.146   4.401  1.9640  0.9562  2.8334
  483TIP3   OH222939   2.636   2.036   0.841  0.2503 -0.0659  0.1701
  483TIP3    H122940   2.653   2.111   0.785 -0.1871 -0.9337 -1.1751
  483TIP3    H222941   2.569   2.067   0.903 -1.9576 -0.0551 -2.0680
  484TIP3   OH222942   4.348   0.419  16.331  0.2057 -0.0893  0.0164
  484TIP3    H122943   4.315   0.400  16.419 -0.5311 -0.1480 -0.2664
  484TIP3    H222944   4.274   0.462  16.287  0.4446 -0.3934 -0.6858
  485TIP3   OH222945   3.593   4.571  12.440  0.2422  0.0126  0.2531
  485TIP3    H122946   3.661   4.522  12.485  1.1402  0.9568 -0.0301
  485TIP3    H222947   3.573   4.644  12.498 -1.4576 -0.9360  0.9124
  486TIP3   OH222948   5.721   5.368   1.068  0.4159 -0.3781  0.0580
  486TIP3    H122949   5.668   5.418   1.007  1.0526 -0.9816 -1.0167
  486TIP3    H222950   5.774   5.434   1.114  3.8048 -0.0531 -3.7356
  487TIP3   OH222951   4.015   3.368  13.870 -0.3596 -0.4950 -0.0335
  487TIP3    H122952   3.932   3.407  13.896 -0.2434 -0.2038 -0.0928
  487TIP3    H222953   4.081   3.433  13.896 -0.2016 -0.4301 -0.5774
  488TIP3   OH222954   4.586   5.720   3.021 -0.4881 -0.0490 -0.2204
  488TIP3    H122955   4.679   5.712   3.042 -0.8035 -1.0745  0.8577
  488TIP3    H222956   4.583   5.783   2.948  1.1179 -0.6994 -0.8870
  489TIP3   OH222957   3.258   5.676   4.727 -0.1149  0.1577 -1.1564
  489TIP3    H122958   3.178   5.643   4.686 -0.6503  0.5447 -0.4198
  489TIP3    H222959   3.295   5.600   4.772 -0.0148 -0.0421 -1.5692
  490TIP3   OH222960   1.404   3.150   4.461 -0.0660 -0.1386  0.5358
  490TIP3    H122961   1.329   3.191   4.418 -0.8864 -0.1448  1.9071
  490TIP3    H222962   1.374   3.061   4.481  1.5823 -1.4336 -2.1131
  491TIP3   OH222963   6.789   0.519  13.554 -0.1584 -0.1507  0.3835
  491TIP3    H122964   6.748   0.521  13.468 -0.5093  0.4126  0.5585
  491TIP3    H222965   6.843   0.440  13.554 -1.4448 -1.0532  0.2477
  492TIP3   OH222966   4.780   3.283   4.351 -0.1074 -0.3185 -0.3272
  492TIP3    H122967   4.738   3.197   4.356  3.0776 -1.9690  0.8237
  492TIP3    H222968   4.799   3.305   4.442  1.5651  0.2791 -0.7963
  493TIP3   OH222969   5.404   5.805   5.184 -0.1310 -0.2910  0.7270
  493TIP3    H122970   5.451   5.888   5.188 -0.1256 -0.1408 -1.3693
  493TIP3    H222971   5.447   5.750   5.249  0.7726  0.8985  1.1749
  494TIP3   OH222972   1.314   4.488  16.146 -0.3310 -0.4610 -0.2943
  494TIP3    H122973   1.397   4.445  16.121 -0.5044 -1.0615  0.1388
  494TIP3    H222974   1.322   4.502  16.240 -0.3784  0.2531 -0.3952
  495TIP3   OH222975   1.128   1.627   1.257  0.8890  0.2114 -0.4591
  495TIP3    H122976   1.127   1.696   1.323  2.7744  0.1899 -0.3398
  495TIP3    H222977   1.106   1.548   1.305 -1.6722  0.7161 -0.6682
  496TIP3   OH222978   4.636   0.496  13.624 -0.4680  0.1010 -0.2572
  496TIP3    H122979   4.589   0.551  13.561 -0.7737 -0.9897 -1.0168
  496TIP3    H222980   4.582   0.497  13.702 -1.6832 -0.9452 -1.0404
  497TIP3   OH222981   4.122   3.161   0.779 -0.0701  0.0807 -0.0180
  497TIP3    H122982   4.121   3.106   0.700 -0.3879  0.9605 -0.6357
  497TIP3    H222983   4.038   3.143   0.821 -1.0623  1.5473 -1.2656
  498TIP3   OH222984   0.763   6.682   2.144  0.0984  0.4704 -0.6575
  498TIP3    H122985   0.693   6.622   2.168  0.8370 -0.7552 -1.4752
  498TIP3    H222986   0.718   6.757   2.104 -0.8362  0.5656  0.5436
  499TIP3   OH222987   3.805   1.492  15.350 -0.7639 -0.2467 -0.6795
  499TIP3    H122988   3.829   1.569  15.402  0.0361 -0.8642 -0.1172
  499TIP3    H222989   3.756   1.528  15.276 -0.6657  0.7774 -0.2645
  500TIP3   OH222990   0.155   2.741   0.341 -0.1135  0.3504  0.4291
  500TIP3    H122991   0.095   2.745   0.267 -0.9987 -0.8992  1.0444
  500TIP3    H222992   0.216   2.671   0.319  0.1253  0.5273  0.5237
  501TIP3   OH222993   6.204   5.442   4.591 -0.0429 -0.0069  0.1043
  501TIP3    H122994   6.184   5.389   4.514 -0.2490  1.6415 -1.0242
  501TIP3    H222995   6.290   5.480   4.572 -0.2062  0.6108  0.5640
  502TIP3   OH222996   5.434   5.415  12.953 -0.5120  0.6992 -0.2156
  502TIP3    H122997   5.374   5.417  12.878  0.3691  2.4400 -0.9394
  502TIP3    H222998   5.463   5.505  12.962  0.3210  0.2888  1.5014
  503TIP3   OH222999   6.430   1.901   2.983 -0.0022 -0.0516 -0.3219
  503TIP3    H123000   6.517   1.880   3.019  0.1159  1.0118  0.0267
  503TIP3    H223001   6.444   1.981   2.933 -0.8746  0.3447  0.0689
  504TIP3   OH223002   5.725   4.760  14.346 -0.2719  0.0353  0.1348
  504TIP3    H123003   5.673   4.733  14.421 -0.0407 -0.9845 -0.0505
  504TIP3    H223004   5.807   4.791  14.383  0.8472 -2.7614  0.2689
  505TIP3   OH223005   3.359   3.182   4.038 -0.1200 -0.1657 -0.5920
  505TIP3    H123006   3.298   3.160   4.109  1.0306  0.3772  0.5939
  505TIP3    H223007   3.370   3.099   3.991  2.1723 -1.7098  2.2888
  506TIP3   OH223008   6.205   3.088   5.958 -0.9270  0.3827 -0.3826
  506TIP3    H123009   6.292   3.124   5.971 -0.1947 -1.4299  0.0662
  506TIP3    H223010   6.146   3.158   5.986  0.3576  1.6905 -0.8131
  507TIP3   OH223011   3.117   5.249  14.080  0.4699  0.3311 -0.1768
  507TIP3    H123012   3.028   5.285  14.089 -0.6559 -1.8812 -1.7342
  507TIP3    H223013   3.142   5.270  13.990  1.6404  1.0963  0.3075
  508TIP3   OH223014   5.405   1.617   2.733  0.5095 -0.2625  0.3092
  508TIP3    H123015   5.422   1.558   2.660 -0.8170 -0.5591  0.2204
  508TIP3    H223016   5.313   1.603   2.755  0.1569  1.7351  0.3170
  509TIP3   OH223017   0.950   0.103   2.052  0.0789 -0.0603  0.1419
  509TIP3    H123018   0.890   0.044   2.099 -1.0716 -1.2566 -2.6179
  509TIP3    H223019   0.922   0.191   2.079  0.2115 -0.6516  2.4602
  510TIP3   OH223020   2.592   3.250  11.675 -0.3328 -0.9322 -0.1867
  510TIP3    H123021   2.681   3.215  11.669  0.3200  0.7753 -1.0807
  510TIP3    H223022   2.572   3.249  11.769  1.5413  0.7668  0.2986
  511TIP3   OH223023   0.097   1.739   4.261  0.1571  0.2850  0.0027
  511TIP3    H123024   0.192   1.735   4.257  0.2820  1.6207  0.7925
  511TIP3    H223025   0.070   1.753   4.170  0.8074  1.0342 -0.0907
  512TIP3   OH223026   0.911   2.445  15.907  0.4600 -0.8491  0.1087
  512TIP3    H123027   0.954   2.398  15.835  0.5616 -2.7447  1.3297
  512TIP3    H223028   0.899   2.534  15.874  0.0276 -1.7666 -2.4393
  513TIP3   OH223029   1.701   4.757   0.353 -0.5153 -0.3765 -0.0241
  513TIP3    H123030   1.640   4.794   0.289 -0.1234 -0.8601 -0.6935
  513TIP3    H223031   1.715   4.667   0.323 -0.3083 -0.6000  0.7364
  514TIP3   OH223032   6.714   6.734   6.234 -0.1815  0.1121 -0.1619
  514TIP3    H123033   6.756   6.818   6.251  0.6028 -0.3527  0.2698
  514TIP3    H223034   6.696   6.698   6.321  2.2461 -1.4974 -0.2227
  515TIP3   OH223035   5.154   4.336  15.387 -0.1869 -0.1019  0.0864
  515TIP3    H123036   5.111   4.392  15.322 -2.5420 -2.1244 -0.2584
  515TIP3    H223037   5.090   4.329  15.458  1.1235 -0.3323  1.2912
  516TIP3   OH223038   3.811   5.500  12.989  0.2220 -0.0027  0.3309
  516TIP3    H123039   3.825   5.549  12.908 -0.6244  1.5567  1.0739
  516TIP3    H223040   3.753   5.428  12.964 -0.3563  0.6927 -0.3956
  517TIP3   OH223041   4.931   1.765  14.969 -0.0604 -0.2606  0.2876
  517TIP3    H123042   5.001   1.825  14.945 -0.6561 -0.3228 -1.7796
  517TIP3    H223043   4.851   1.811  14.944 -0.8540  0.0108  3.0211
  518TIP3   OH223044   0.298   5.736   1.572 -0.3851 -0.1803 -0.5512
  518TIP3    H123045   0.326   5.719   1.662 -1.2391 -1.9785 -0.5832
  518TIP3    H223046   0.296   5.832   1.565  1.2851 -0.0022  0.8078
  519TIP3   OH223047   3.506   3.623   4.861 -0.1683  1.0506 -0.0934
  519TIP3    H123048   3.413   3.602   4.872  0.4160 -0.9615  1.4607
  519TIP3    H223049   3.540   3.553   4.805  0.4744  1.6638 -0.4842
  520TIP3   OH223050   6.387   0.732  15.443 -0.1354 -0.0713 -0.7280
  520TIP3    H123051   6.294   0.756  15.446 -0.3227 -0.6253 -1.6910
  520TIP3    H223052   6.393   0.669  15.371  1.0515  0.2077 -0.8895
  521TIP3   OH223053   3.358   3.712   4.211 -0.3186 -0.2302  0.4309
  521TIP3    H123054   3.413   3.789   4.228  1.1726 -1.2488  0.4067
  521TIP3    H223055   3.323   3.727   4.123  0.0826  0.3555  0.3646
  522TIP3   OH223056   3.967   3.841   3.261  0.0004 -0.2295  0.8934
  522TIP3    H123057   3.913   3.771   3.296 -0.0805 -0.3383  0.5561
  522TIP3    H223058   4.037   3.852   3.325  0.2821 -0.9494  0.7121
  523TIP3   OH223059   2.967   4.311  14.767 -0.2090  0.0857  0.0344
  523TIP3    H123060   2.889   4.362  14.791 -0.2113 -0.8024  2.2056
  523TIP3    H223061   2.937   4.251  14.699 -1.2825  0.1442  0.4399
  524TIP3   OH223062   3.714   0.123   3.083  0.0204 -0.3215  0.0740
  524TIP3    H123063   3.690   0.154   3.171  2.0757 -1.3090  1.0543
  524TIP3    H223064   3.733   0.030   3.095  2.0333 -0.1166 -0.9916
  525TIP3   OH223065   3.012   0.504   3.629 -0.5385  0.0965  0.0757
  525TIP3    H123066   2.983   0.442   3.696 -0.3813 -0.7714 -0.6448
  525TIP3    H223067   2.934   0.520   3.576 -0.2564 -0.5404 -0.5458
  526TIP3   OH223068   3.508   4.867  15.909 -0.0588 -0.4234 -0.5456
  526TIP3    H123069   3.514   4.959  15.883  1.2539 -0.1630  0.5672
  526TIP3    H223070   3.490   4.871  16.004  1.8690 -1.2813 -0.1188
  527TIP3   OH223071   4.945   5.127  15.768 -0.2186 -0.4350  0.0761
  527TIP3    H123072   4.868   5.073  15.785 -0.4189  0.0588  0.8442
  527TIP3    H223073   4.910   5.215  15.754  0.0632 -0.5688 -1.6418
  528TIP3   OH223074   2.606   4.301  15.499  0.5032  0.3204 -0.1059
  528TIP3    H123075   2.686   4.262  15.465  1.2131  1.0875  0.6244
  528TIP3    H223076   2.535   4.259  15.450  1.3575 -0.2888 -0.8385
  529TIP3   OH223077   1.517   2.070  11.447 -0.0564 -0.0354  0.0574
  529TIP3    H123078   1.550   2.000  11.504 -0.6452  0.6239  1.2494
  529TIP3    H223079   1.518   2.032  11.359  1.5130 -0.8634  0.3978
  530TIP3   OH223080   6.197   4.196   4.818 -0.6656 -0.1415  0.1618
  530TIP3    H123081   6.273   4.184   4.875 -1.8540  0.6440  2.0301
  530TIP3    H223082   6.162   4.108   4.806  0.5234 -0.5161 -0.7567
  531TIP3   OH223083   1.153   3.026   2.574  0.5055 -0.2700 -0.0355
  531TIP3    H123084   1.225   3.065   2.624  1.1639 -0.4095 -0.8586
  531TIP3    H223085   1.157   3.070   2.489 -1.0319  0.4690  0.2378
  532TIP3   OH223086   2.997   5.031  11.179 -0.6959 -0.3496 -0.1889
  532TIP3    H123087   3.029   5.121  11.177 -0.7571 -0.3030  0.7866
  532TIP3    H223088   2.906   5.038  11.207 -0.8595 -0.6806 -0.6189
  533TIP3   OH223089   5.583   0.892   0.579  0.0810 -0.2385  0.1318
  533TIP3    H123090   5.549   0.827   0.641  1.5888 -2.7517 -1.5277
  533TIP3    H223091   5.526   0.885   0.503  0.6010 -0.0078 -0.2826
  534TIP3   OH223092   2.116   5.516   2.301  0.2853  0.0948 -0.2445
  534TIP3    H123093   2.136   5.590   2.358  0.1892 -1.0960  1.4044
  534TIP3    H223094   2.193   5.460   2.306  0.0805 -0.2611 -0.9147
  535TIP3   OH223095   0.515   6.564   2.096 -0.0265  0.1820 -0.0909
  535TIP3    H123096   0.486   6.621   2.024 -1.5920  0.4481  0.7056
  535TIP3    H223097   0.463   6.592   2.171  0.6814 -0.9249  0.8458
  536TIP3   OH223098   0.450   2.491  13.408  0.0130  0.2182  0.0260
  536TIP3    H123099   0.503   2.487  13.488 -2.0083 -1.3966  1.4045
  536TIP3    H223100   0.365   2.524  13.437 -0.7549 -0.3375 -1.4681
  537TIP3   OH223101   5.882   6.508   0.406  0.0511  0.2928 -0.3198
  537TIP3    H123102   5.877   6.442   0.476  1.3522  1.5281  1.0246
  537TIP3    H223103   5.833   6.583   0.440  1.4223  1.2253 -0.3186
  538TIP3   OH223104   1.456   2.784  14.314  0.6947  0.2583  0.3751
  538TIP3    H123105   1.429   2.875  14.303 -0.5546  0.0036  1.1419
  538TIP3    H223106   1.542   2.790  14.358  1.0677  1.0579 -0.4281
  539TIP3   OH223107   0.468   5.515   2.190  0.3501  0.2836 -0.4019
  539TIP3    H123108   0.504   5.535   2.103  1.3852  3.1675  0.5645
  539TIP3    H223109   0.545   5.508   2.246 -0.3686  1.2261  0.7537
  540TIP3   OH223110   4.974   4.884  10.911 -0.4886  0.1321  0.0123
  540TIP3    H123111   5.014   4.971  10.913 -1.9048  0.8239 -0.7258
  540TIP3    H223112   4.935   4.877  10.824 -1.0678 -0.9282  0.3391
  541TIP3   OH223113   3.359   3.958  12.210  0.3854 -0.3163  0.4184
  541TIP3    H123114   3.405   4.001  12.282 -0.9104  0.4125  0.8484
  541TIP3    H223115   3.268   3.951  12.240 -0.0492 -0.5898 -0.8817
  542TIP3   OH223116   0.184   6.413   1.669  0.2257 -0.3396  0.4684
  542TIP3    H123117   0.260   6.395   1.613  0.0446  0.5637 -0.0772
  542TIP3    H223118   0.109   6.379   1.619  0.0336  0.7031  0.0276
  543TIP3   OH223119   4.984   5.114  13.538  0.4703 -0.1773  0.7623
  543TIP3    H123120   4.983   5.020  13.522 -0.3777 -0.1415  0.6140
  543TIP3    H223121   5.035   5.124  13.619  0.4039 -0.7761  0.8770
  544TIP3   OH223122   3.488   1.495  11.783 -0.1441  0.2587  0.7534
  544TIP3    H123123   3.436   1.563  11.739  0.4468  1.1444  1.3862
  544TIP3    H223124   3.443   1.481  11.866 -0.2310 -0.0890  0.6483
  545TIP3   OH223125   2.347   6.002  14.003  0.1319  0.2879 -0.1523
  545TIP3    H123126   2.348   5.923  14.058 -0.5973 -0.6413 -1.3981
  545TIP3    H223127   2.414   5.985  13.936  1.1758  1.5037  0.5630
  546TIP3   OH223128   4.655   2.907   6.762 -0.7171  0.0303  0.2490
  546TIP3    H123129   4.649   3.000   6.783 -1.1688 -0.0914  0.6735
  546TIP3    H223130   4.743   2.896   6.726 -0.1540  0.3742  1.4765
  547TIP3   OH223131   0.142   5.858  13.225  0.4099 -0.3037 -0.2529
  547TIP3    H123132   0.235   5.862  13.204  0.6067  0.0364  0.6294
  547TIP3    H223133   0.100   5.912  13.158  0.6802 -1.5152 -1.4498
  548TIP3   OH223134   0.290   2.481  10.293  0.1734  0.7908 -0.5576
  548TIP3    H123135   0.234   2.444  10.361 -0.3185 -0.0798 -1.4033
  548TIP3    H223136   0.318   2.565  10.328 -0.5244  0.6182  0.4742
  549TIP3   OH223137   2.488   4.512   0.257 -0.3027 -0.0711 -0.0693
  549TIP3    H123138   2.516   4.487   0.345 -0.8582 -1.8874 -0.3657
  549TIP3    H223139   2.401   4.474   0.248 -1.3963  2.3505 -0.4861
  550TIP3   OH223140   5.259   6.559   3.313 -0.3568  0.1666  0.1454
  550TIP3    H123141   5.191   6.524   3.371  0.7356 -1.5186  0.4558
  550TIP3    H223142   5.213   6.577   3.231 -1.1056 -1.3909  0.1917
  551TIP3   OH223143   3.501   2.205   2.979 -0.0451 -0.0751 -0.1079
  551TIP3    H123144   3.583   2.254   2.988 -0.1664  0.1642 -0.3072
  551TIP3    H223145   3.498   2.149   3.057 -0.2919  0.8077  0.5228
  552TIP3   OH223146   5.816   5.618  16.136  0.0623  0.0093  0.1210
  552TIP3    H123147   5.841   5.528  16.159 -0.7522 -0.1895  0.2852
  552TIP3    H223148   5.740   5.636  16.192  2.6787  2.3586  3.2727
  553TIP3   OH223149   5.570   6.483   6.631 -0.3516  0.1546 -0.1757
  553TIP3    H123150   5.589   6.547   6.561 -2.6373 -0.4398 -1.4521
  553TIP3    H223151   5.561   6.400   6.585  1.1664 -0.9007  1.2985
  554TIP3   OH223152   4.610   2.662   0.251  0.4367 -0.0742 -0.8704
  554TIP3    H123153   4.621   2.595   0.319 -0.2575  0.0999 -0.5750
  554TIP3    H223154   4.691   2.714   0.256  0.4130 -0.0917 -0.2090
  555TIP3   OH223155   0.096   2.819   1.653 -0.6134  0.2183 -0.1919
  555TIP3    H123156   0.106   2.914   1.662  2.9837 -0.0515  0.1599
  555TIP3    H223157   0.186   2.787   1.643 -1.7145 -3.1784 -0.2236
  556TIP3   OH223158   2.449   0.670  14.187  0.0954 -0.1957  0.4331
  556TIP3    H123159   2.424   0.690  14.097  3.0516  0.5507 -0.3194
  556TIP3    H223160   2.458   0.575  14.190  2.4108 -0.0663 -0.8362
  557TIP3   OH223161   2.723   4.244  11.435 -0.3893  0.4742  0.0817
  557TIP3    H123162   2.730   4.338  11.450  1.4682  0.2300  1.1300
  557TIP3    H223163   2.814   4.215  11.425 -0.8986 -1.2597  0.1373
  558TIP3   OH223164   2.807   1.630   5.795  0.3897  0.0217 -0.1322
  558TIP3    H123165   2.789   1.574   5.720  0.2550  1.6296 -1.3683
  558TIP3    H223166   2.747   1.600   5.863 -1.2557  0.0765 -1.4827
  559TIP3   OH223167   2.511   5.892   3.840 -1.0297 -0.6765  0.1281
  559TIP3    H123168   2.521   5.986   3.849  1.1772 -0.7369 -0.8940
  559TIP3    H223169   2.423   5.873   3.870 -1.3202  1.6363  0.8601
  560TIP3   OH223170   3.273   3.255  12.724  0.0277  0.2653 -0.0075
  560TIP3    H123171   3.342   3.193  12.749  0.1230  0.5712  0.4951
  560TIP3    H223172   3.284   3.267  12.630  1.3911  1.1896  0.2516
  561TIP3   OH223173   2.811   0.907   0.417 -0.2741  0.0203  0.0634
  561TIP3    H123174   2.881   0.842   0.413  0.0449  0.3527  0.1961
  561TIP3    H223175   2.787   0.922   0.326 -0.6091 -0.5579  0.0503
  562TIP3   OH223176   6.798   0.085  16.357  0.0195  0.0450  0.0674
  562TIP3    H123177   6.888   0.108  16.380  0.2874 -0.7770 -0.1047
  562TIP3    H223178   6.799   0.077  16.262 -0.7294  1.9846 -0.1362
  563TIP3   OH223179   1.397   2.837   2.123  0.3712 -0.5557  0.3661
  563TIP3    H123180   1.408   2.770   2.056 -2.4193  0.8176 -1.7076
  563TIP3    H223181   1.445   2.913   2.090  0.9618 -0.5797  1.1474
  564TIP3   OH223182   4.059   5.871  15.674 -0.7626  0.0956  0.2543
  564TIP3    H123183   4.104   5.820  15.741  0.1972 -0.6545 -0.9075
  564TIP3    H223184   4.092   5.960  15.686  1.8347 -0.5711 -1.1088
  565TIP3   OH223185   0.652   3.564  10.255 -0.3032  0.8924  0.1629
  565TIP3    H123186   0.732   3.612  10.234 -0.6086  1.6616  0.7093
  565TIP3    H223187   0.683   3.481  10.291  0.2473  1.0963  0.1759
  566TIP3   OH223188   3.011   3.263   5.484  0.3002 -0.7335  0.3075
  566TIP3    H123189   2.946   3.206   5.444  0.6562 -0.3811 -0.8256
  566TIP3    H223190   3.095   3.225   5.459  0.5336 -0.4856  0.7049
  567TIP3   OH223191   3.542   5.443   2.868  0.2053 -0.0373 -0.4097
  567TIP3    H123192   3.556   5.438   2.963  0.6798 -1.6782 -0.5277
  567TIP3    H223193   3.447   5.434   2.858 -0.3773  3.9621  0.0350
  568TIP3   OH223194   6.811   5.965   6.554 -0.0074 -0.2151 -0.6382
  568TIP3    H123195   6.893   5.918   6.567 -0.3755 -1.0250 -1.1357
  568TIP3    H223196   6.755   5.935   6.626 -0.0207 -0.0335 -0.5745
  569TIP3   OH223197   4.887   2.722   1.653  0.7802 -0.4204  0.3949
  569TIP3    H123198   4.846   2.656   1.709  0.6317  0.9034  1.9091
  569TIP3    H223199   4.825   2.733   1.580 -0.7700  0.2588  1.7373
  570TIP3   OH223200   5.187   4.802  11.900 -0.6825  0.3149  0.1212
  570TIP3    H123201   5.192   4.897  11.899 -0.1459  0.2909 -0.1187
  570TIP3    H223202   5.201   4.777  11.809  0.3841 -0.0391  0.3694
  571TIP3   OH223203   5.911   3.874  13.063 -0.0239  0.0981  0.1185
  571TIP3    H123204   5.878   3.963  13.071  1.9156  0.8770 -0.0685
  571TIP3    H223205   6.001   3.884  13.033  0.2555 -1.9336  0.1177
  572TIP3   OH223206   2.920   4.961  12.675 -0.0827  0.2272  0.3785
  572TIP3    H123207   2.949   4.875  12.706  0.5411 -0.3701 -1.6642
  572TIP3    H223208   2.855   4.990  12.739  0.3207 -1.3819  1.5623
  573TIP3   OH223209   2.425   3.989  13.982 -0.7987 -0.2190  0.2034
  573TIP3    H123210   2.346   3.957  14.026 -0.4950  0.5744  1.3815
  573TIP3    H223211   2.478   3.910  13.969 -1.4866 -0.6592  0.0282
  574TIP3   OH223212   2.331   3.489   3.314 -0.4050  0.3149 -0.3876
  574TIP3    H123213   2.278   3.516   3.389 -1.9110 -2.4091 -0.3416
  574TIP3    H223214   2.305   3.549   3.243 -0.5598  1.5340  0.6622
  575TIP3   OH223215   1.953   0.693   6.304 -0.5960  0.4310  0.5938
  575TIP3    H123216   1.945   0.600   6.329  0.1925  0.4289  0.8568
  575TIP3    H223217   1.870   0.732   6.331 -0.8124 -0.1362  0.7669
  576TIP3   OH223218   5.672   6.122   3.561 -1.2088  0.0920 -0.1468
  576TIP3    H123219   5.692   6.030   3.581 -0.2743  0.0614 -1.1375
  576TIP3    H223220   5.587   6.119   3.519 -1.8130 -0.1617  1.0595
  577TIP3   OH223221   2.884   3.597  14.885  0.0009  0.6961  0.4898
  577TIP3    H123222   2.893   3.649  14.805  0.0180  1.1167  0.7673
  577TIP3    H223223   2.896   3.507  14.855  0.7231  0.9031  0.1369
  578TIP3   OH223224   4.883   2.688  12.040  0.0166  0.2336  0.0342
  578TIP3    H123225   4.922   2.770  12.071  2.4994 -0.3531 -1.2460
  578TIP3    H223226   4.789   2.705  12.039  0.4316  3.0232 -0.0592
  579TIP3   OH223227   3.111   2.109   1.382 -0.0962 -0.0116  0.2996
  579TIP3    H123228   3.190   2.140   1.425 -1.1291  1.2067  1.3778
  579TIP3    H223229   3.142   2.041   1.321  1.9717  1.5529 -0.5042
  580TIP3   OH223230   2.893   6.052   6.741  0.4058 -0.6513 -0.1979
  580TIP3    H123231   2.928   5.979   6.791  2.1935 -0.6061 -1.3004
  580TIP3    H223232   2.823   6.014   6.688  1.8769 -1.8079 -1.4077
  581TIP3   OH223233   1.748   0.757  13.524  0.2074 -0.1481 -0.2433
  581TIP3    H123234   1.789   0.769  13.438  1.4532 -1.9534  0.0577
  581TIP3    H223235   1.786   0.676  13.558  1.2716  1.4912  2.8751
  582TIP3   OH223236   5.544   2.490   4.697  0.1639 -0.0460 -0.3459
  582TIP3    H123237   5.542   2.417   4.758  0.2255  0.3129  0.0964
  582TIP3    H223238   5.620   2.542   4.725 -2.1049  2.3744  1.9625
  583TIP3   OH223239   1.070   0.584  14.003 -0.1608 -0.3789  0.2552
  583TIP3    H123240   1.009   0.577  13.929 -0.4543 -1.2509  0.5666
  583TIP3    H223241   1.100   0.675  14.000  0.6773 -0.6693 -1.5880
  584TIP3   OH223242   6.102   1.092   3.960 -0.2437  0.4057  0.4035
  584TIP3    H123243   6.044   1.062   3.890 -0.7868 -0.0652  1.0517
  584TIP3    H223244   6.076   1.042   4.037  0.9954  0.2084  0.7244
  585TIP3   OH223245   3.166   5.148   2.877  0.0414 -0.2152  0.8413
  585TIP3    H123246   3.098   5.198   2.833  0.0494 -0.9380 -0.0366
  585TIP3    H223247   3.166   5.063   2.832  0.8368 -0.5760  1.4905
  586TIP3   OH223248   4.685   6.172   0.431 -0.3678  0.1493  0.1960
  586TIP3    H123249   4.779   6.176   0.412 -0.6035  1.2342 -0.8904
  586TIP3    H223250   4.656   6.264   0.429 -1.6122 -0.2361 -0.3984
  587TIP3   OH223251   3.584   5.254   0.276 -0.0836 -0.5384  0.2781
  587TIP3    H123252   3.554   5.179   0.225 -1.1011  1.2740 -1.9530
  587TIP3    H223253   3.505   5.304   0.295  0.7329  0.7691  0.3730
  588TIP3   OH223254   3.004   4.013   0.313 -0.0051 -0.3163  0.6968
  588TIP3    H123255   2.912   4.033   0.293  0.6259  1.4138 -0.8233
  588TIP3    H223256   3.018   3.925   0.280 -1.0766 -0.5252  0.7818
  589TIP3   OH223257   0.155   4.534  15.239 -0.0168  0.1004 -0.1761
  589TIP3    H123258   0.223   4.601  15.237  0.6389 -0.5595 -0.4669
  589TIP3    H223259   0.162   4.489  15.155 -1.7196  0.8767 -0.7837
  590TIP3   OH223260   4.014   6.355  12.208 -0.5528  0.2697  0.2853
  590TIP3    H123261   4.072   6.280  12.220 -0.1403 -0.0177 -2.8126
  590TIP3    H223262   4.073   6.428  12.190 -1.0439  0.4624 -0.6216
  591TIP3   OH223263   2.778   6.725  17.050 -0.7988  0.2754  0.3237
  591TIP3    H123264   2.752   6.799  16.995 -3.0338 -1.2032 -0.7451
  591TIP3    H223265   2.748   6.749  17.137 -0.1881  1.2103  0.3019
  592TIP3   OH223266   2.107   5.903  11.108  0.2336 -0.5653  0.3169
  592TIP3    H123267   2.131   5.839  11.040 -2.0742 -0.8674 -0.3109
  592TIP3    H223268   2.095   5.985  11.060  1.9776  0.0982  0.9405
  593TIP3   OH223269   1.337   1.131   2.438 -0.3636  0.2169 -0.0451
  593TIP3    H123270   1.385   1.120   2.356 -0.9659 -1.3288 -0.2248
  593TIP3    H223271   1.379   1.069   2.499 -0.2380  0.9939  0.6843
  594TIP3   OH223272   6.456   0.098   1.445 -0.6475 -0.5258  0.0032
  594TIP3    H123273   6.547   0.104   1.415 -0.7771 -1.5550 -0.6410
  594TIP3    H223274   6.405   0.138   1.374 -0.8129 -1.3718 -0.3654
  595TIP3   OH223275   3.729   5.567   4.868  0.0820  0.3981 -0.0717
  595TIP3    H123276   3.651   5.619   4.851  0.3755  0.3397 -1.7768
  595TIP3    H223277   3.723   5.493   4.807  0.2995 -0.9209  1.4198
  596TIP3   OH223278   6.438   4.203   5.009  0.1887  0.3537  0.4978
  596TIP3    H123279   6.520   4.154   5.007  0.9477  1.4470  2.1121
  596TIP3    H223280   6.383   4.154   5.070 -0.8066 -0.9481 -1.3566
  597TIP3   OH223281   4.661   0.721   3.177  0.0662  0.2430  0.3534
  597TIP3    H123282   4.740   0.755   3.135  0.5959  0.0025  1.1504
  597TIP3    H223283   4.660   0.628   3.156  1.7515 -0.4693  2.9837
  598TIP3   OH223284   2.203   1.878  15.018  0.0361  0.3594 -0.0387
  598TIP3    H123285   2.178   1.847  14.931  0.1210 -0.2045  0.1331
  598TIP3    H223286   2.264   1.950  15.001  2.9458 -2.0494 -0.4880
  599TIP3   OH223287   5.961   5.693  15.512  0.3583 -0.1842  0.0492
  599TIP3    H123288   5.912   5.645  15.579  0.6667 -1.7205 -0.7595
  599TIP3    H223289   5.894   5.719  15.448  0.3824 -0.9983 -0.3226
  600TIP3   OH223290   1.935   6.455  14.123 -0.1293 -0.8851 -0.6478
  600TIP3    H123291   1.995   6.403  14.177 -0.0096 -1.4350 -1.2939
  600TIP3    H223292   1.852   6.408  14.129 -1.2089  1.1407  2.1608
  601TIP3   OH223293   6.821   0.100  13.041  0.0411  0.1556  0.0332
  601TIP3    H123294   6.842   0.112  12.948 -0.2055  3.0950  0.2542
  601TIP3    H223295   6.791   0.186  13.070 -1.0131 -0.9681  2.5849
  602TIP3   OH223296   0.799   4.993  14.639 -0.1249  0.4298  0.2402
  602TIP3    H123297   0.809   5.039  14.555  2.4477  1.1881  0.8828
  602TIP3    H223298   0.798   5.063  14.704 -1.0728 -0.2150  0.9512
  603TIP3   OH223299   6.182   5.911  10.981 -0.6639 -0.4003 -0.2873
  603TIP3    H123300   6.125   5.964  11.037 -0.0064 -0.8018  0.7879
  603TIP3    H223301   6.127   5.889  10.905 -1.4071  0.5693 -0.0563
  604TIP3   OH223302   3.382   2.615  11.070  0.5360 -0.0947 -0.1986
  604TIP3    H123303   3.396   2.709  11.073  3.2618 -0.4404  1.9535
  604TIP3    H223304   3.342   2.599  10.985 -2.1693  3.1844  0.2700
  605TIP3   OH223305   4.072   4.266   0.151 -1.0374 -0.6746  0.1080
  605TIP3    H123306   4.009   4.337   0.135 -0.1841 -0.0097 -0.3527
  605TIP3    H223307   4.115   4.291   0.233  0.7318  0.4437 -1.1200
  606TIP3   OH223308   2.938   4.263   3.020  0.5482 -0.2898  0.0794
  606TIP3    H123309   3.011   4.286   3.078  1.3305 -2.1296 -0.1073
  606TIP3    H223310   2.873   4.331   3.035  1.5865  0.4327  1.5588
  607TIP3   OH223311   6.020   3.258  14.677 -0.4409  0.5545  0.3287
  607TIP3    H123312   5.978   3.199  14.615 -0.1475  2.5258 -1.9227
  607TIP3    H223313   5.948   3.306  14.717 -0.5544  1.5491 -0.9930
  608TIP3   OH223314   3.178   0.608  12.209 -1.0434 -0.8727  0.6793
  608TIP3    H123315   3.094   0.641  12.240 -0.1207 -0.3679  2.8656
  608TIP3    H223316   3.243   0.663  12.253  0.4572 -1.9865 -0.0415
  609TIP3   OH223317   4.232   5.031  15.064 -0.4769  0.1278  0.3894
  609TIP3    H123318   4.137   5.017  15.062 -0.2547 -1.5756  0.4403
  609TIP3    H223319   4.260   4.994  15.148  0.2026  0.8873  0.5100
  610TIP3   OH223320   3.965   4.857   5.863  0.3345 -0.0429  0.0599
  610TIP3    H123321   3.974   4.762   5.859  1.5406  0.0531 -3.4179
  610TIP3    H223322   3.887   4.876   5.811 -0.1957  0.8756  1.1554
  611TIP3   OH223323   2.289   0.336   1.930 -0.5904 -1.1149  0.2626
  611TIP3    H123324   2.230   0.361   2.001  1.9214  0.4654  1.9635
  611TIP3    H223325   2.301   0.241   1.941 -1.0686 -1.0686  1.2869
  612TIP3   OH223326   5.331   1.130  13.535  0.2284 -0.1348  0.4742
  612TIP3    H123327   5.379   1.063  13.584  1.1694  0.1669 -0.0249
  612TIP3    H223328   5.301   1.085  13.456 -0.9974 -0.5294  1.1364
  613TIP3   OH223329   4.122   2.039   3.391  0.2101  0.1401 -0.3463
  613TIP3    H123330   4.097   1.949   3.372 -0.9040  0.1535  0.9406
  613TIP3    H223331   4.115   2.046   3.486  3.7301  0.5852  0.0439
  614TIP3   OH223332   6.323   5.498  14.313  0.6839 -0.1671 -0.2544
  614TIP3    H123333   6.378   5.426  14.281  0.5841 -0.2530 -0.2297
  614TIP3    H223334   6.255   5.456  14.365  0.9859 -0.0084  0.2776
  615TIP3   OH223335   0.945   0.017   5.953 -0.1570  0.3193 -0.7082
  615TIP3    H123336   0.871  -0.020   5.904 -1.8434  0.6934  1.3822
  615TIP3    H223337   0.910   0.098   5.990  0.9245 -0.0411  1.2202
  616TIP3   OH223338   5.898   0.488   6.210 -0.2597 -0.2460  0.2408
  616TIP3    H123339   5.978   0.441   6.235 -0.7973 -0.0800  2.5335
  616TIP3    H223340   5.927   0.578   6.195  0.2534 -0.5763 -0.8234
  617TIP3   OH223341   2.273   5.966  16.322 -0.2775 -0.4496 -0.0043
  617TIP3    H123342   2.178   5.972  16.321 -0.2144  1.0042 -0.0099
  617TIP3    H223343   2.301   6.043  16.372  0.8735 -1.2202  0.5711
  618TIP3   OH223344   6.310   0.919  12.251 -0.0886  0.4022 -0.4366
  618TIP3    H123345   6.243   0.861  12.214  0.0908  0.9940 -1.7640
  618TIP3    H223346   6.378   0.922  12.183  0.7764  0.6641  0.4316
  619TIP3   OH223347   4.301   5.258   4.208 -0.4682  0.1939  0.8921
  619TIP3    H123348   4.392   5.286   4.199 -0.3498 -0.3601  0.3198
  619TIP3    H223349   4.255   5.304   4.138 -0.1677 -1.4480 -0.4349
  620TIP3   OH223350   4.199   3.935   3.398  0.1280 -0.2964  0.2145
  620TIP3    H123351   4.136   3.999   3.366 -0.8472 -1.4802 -0.3197
  620TIP3    H223352   4.221   3.964   3.487  0.0055  0.9643 -0.1527
  621TIP3   OH223353   2.842   4.397   4.115  0.6973  0.1273 -0.0028
  621TIP3    H123354   2.837   4.304   4.093  0.7064  0.0586  0.2789
  621TIP3    H223355   2.755   4.431   4.096  1.1917  0.4602 -1.8457
  622TIP3   OH223356   2.145   1.164  15.534  0.3023  0.8520  0.0533
  622TIP3    H123357   2.145   1.166  15.439 -3.6852 -1.2717 -0.2279
  622TIP3    H223358   2.092   1.240  15.560  0.4094  0.7808  0.4951
  623TIP3   OH223359   6.517   4.949   3.909 -0.0586  0.2244 -0.2885
  623TIP3    H123360   6.581   4.922   3.842 -0.1394  0.9620 -0.6795
  623TIP3    H223361   6.504   4.871   3.963  0.0560 -0.3705 -1.0993
  624TIP3   OH223362   5.429   1.033  13.225  0.6749  0.5821  0.6614
  624TIP3    H123363   5.513   1.045  13.180 -0.2788  0.3810 -1.2678
  624TIP3    H223364   5.405   0.942  13.209 -1.0758  1.2654 -1.0402
  625TIP3   OH223365   2.609   6.431  15.780 -0.1376 -0.2024 -0.3502
  625TIP3    H123366   2.571   6.352  15.739 -1.1249 -0.2625  0.6386
  625TIP3    H223367   2.701   6.428  15.754 -0.6716 -0.2766 -2.5022
  626TIP3   OH223368   3.276   0.086  11.880  0.0675 -0.0149  1.3905
  626TIP3    H123369   3.202   0.068  11.822  0.8854  1.8164 -0.3485
  626TIP3    H223370   3.352   0.054  11.832  0.5494 -0.6171  2.5306
  627TIP3   OH223371   1.204   6.012  12.147 -0.4543  0.6500  0.4418
  627TIP3    H123372   1.123   5.960  12.147 -0.5506  0.6913 -1.9170
  627TIP3    H223373   1.215   6.039  12.056  1.5436  1.7482  0.9516
  628TIP3   OH223374   5.764   3.461  15.371  0.5007 -0.7283  0.4066
  628TIP3    H123375   5.680   3.421  15.393  0.8856 -2.3263 -0.8094
  628TIP3    H223376   5.783   3.519  15.445 -0.8371 -1.6489  1.5393
  629TIP3   OH223377   2.506   3.331   1.383  0.0595  0.0919  0.2914
  629TIP3    H123378   2.519   3.238   1.363  0.1589  0.3477 -0.9024
  629TIP3    H223379   2.593   3.370   1.373  0.0312  0.3111  0.8538
  630TIP3   OH223380   2.624   0.608   5.929  0.2830 -0.3815 -0.4342
  630TIP3    H123381   2.675   0.618   6.009 -0.6723  0.8035  0.0677
  630TIP3    H223382   2.606   0.514   5.923  0.3703 -0.4879  0.7504
  631TIP3   OH223383   6.357   0.620   3.016  0.1384  0.8504 -0.7222
  631TIP3    H123384   6.384   0.675   3.089 -1.0084  0.6871 -0.1477
  631TIP3    H223385   6.263   0.638   3.006  0.0050 -0.1049 -1.3065
  632TIP3   OH223386   4.370   0.230   0.021 -0.4354 -0.1868  0.7266
  632TIP3    H123387   4.414   0.281  -0.047 -1.0537 -0.3694  0.1858
  632TIP3    H223388   4.376   0.139  -0.009  0.9996 -0.5063  1.8721
  633TIP3   OH223389   6.514   5.148  14.976 -0.3338  0.3684 -0.4296
  633TIP3    H123390   6.438   5.103  14.940 -0.1330 -0.9841  0.7525
  633TIP3    H223391   6.582   5.082  14.980 -0.8187 -0.1983  3.9032
  634TIP3   OH223392   2.822   4.960  13.642 -0.0546  0.3635  0.2608
  634TIP3    H123393   2.865   4.959  13.728  1.8777 -0.1310 -0.6611
  634TIP3    H223394   2.849   5.043  13.603  0.9294 -0.3682 -0.7019
  635TIP3   OH223395   1.318   6.640  15.553 -0.0401  0.7585 -0.0893
  635TIP3    H123396   1.226   6.631  15.530 -0.4909  2.1405  1.1045
  635TIP3    H223397   1.336   6.563  15.608  0.1627 -0.7266 -2.0995
  636TIP3   OH223398   4.844   6.388   0.212  0.4436  1.1733  0.1959
  636TIP3    H123399   4.808   6.365   0.298  0.3751  0.5329  0.0039
  636TIP3    H223400   4.790   6.461   0.182 -0.2407  0.6865  0.2255
  637TIP3   OH223401   4.224   3.593  14.793 -0.5448  0.6680 -0.0844
  637TIP3    H123402   4.293   3.659  14.797 -0.1468  0.2489  0.0527
  637TIP3    H223403   4.266   3.516  14.756 -0.4209 -0.2275  1.8158
  638TIP3   OH223404   4.975   6.293  15.674 -0.4730  0.5141 -0.3638
  638TIP3    H123405   4.977   6.387  15.694  2.2862  0.5612 -0.4324
  638TIP3    H223406   5.028   6.285  15.594  0.2974 -1.2213  0.2864
  639TIP3   OH223407   2.147   1.630  15.128  0.1765 -0.0474  0.0922
  639TIP3    H123408   2.064   1.673  15.107 -0.0963 -1.0384 -0.9980
  639TIP3    H223409   2.205   1.655  15.057  0.6242  0.1340  0.5206
  640TIP3   OH223410   6.385   3.520   1.894  0.2977 -0.2192  0.2692
  640TIP3    H123411   6.479   3.503   1.899  0.0324 -1.9101 -0.0829
  640TIP3    H223412   6.345   3.434   1.885 -1.2442  0.5349 -0.4341
  641TIP3   OH223413   0.632   6.230  17.218  0.2607  0.5142 -0.2966
  641TIP3    H123414   0.613   6.161  17.155 -0.6832  1.0833 -0.6639
  641TIP3    H223415   0.557   6.289  17.212  1.1887  1.7545 -0.2529
  642TIP3   OH223416   3.086   4.560  17.030 -0.6295  0.4204  0.7727
  642TIP3    H123417   3.156   4.619  17.001  2.3586 -3.5410 -1.0382
  642TIP3    H223418   3.031   4.547  16.953 -1.6994  1.2661  1.3623
  643TIP3   OH223419   3.936   4.017   2.090  0.7044  0.3765 -0.2759
  643TIP3    H123420   3.886   4.035   2.169  0.3475  1.5502 -0.7425
  643TIP3    H223421   3.889   3.946   2.047  0.4852  0.2320  0.2004
  644TIP3   OH223422   6.314   6.384   2.419 -0.0027  0.6434  0.3485
  644TIP3    H123423   6.268   6.433   2.351  0.2531 -0.8134 -0.9207
  644TIP3    H223424   6.383   6.444   2.449 -1.0145  1.8307  0.3629
  645TIP3   OH223425   3.649   5.123   2.672  0.3980 -0.4086  0.0710
  645TIP3    H123426   3.565   5.095   2.637 -0.2785  1.5228  0.0158
  645TIP3    H223427   3.639   5.115   2.767 -1.0515  2.6387  0.2968
  646TIP3   OH223428   5.656   5.585  15.891  0.3867  0.5362  0.1560
  646TIP3    H123429   5.691   5.597  15.979  1.7569 -2.0664  0.0491
  646TIP3    H223430   5.587   5.520  15.901  0.9416 -0.2163 -0.7469
  647TIP3   OH223431   4.828   4.498  11.401  0.1065  0.3627 -0.6529
  647TIP3    H123432   4.829   4.591  11.424 -3.9638  0.3597  0.3923
  647TIP3    H223433   4.784   4.495  11.316  2.6698 -0.5602 -2.0708
  648TIP3   OH223434   1.182   5.332  13.088  0.2481 -0.0917 -0.1727
  648TIP3    H123435   1.116   5.277  13.129 -0.8456  1.2956  0.0225
  648TIP3    H223436   1.265   5.299  13.122 -0.4403 -0.9527  0.7338
  649TIP3   OH223437   6.174   3.309   4.030 -0.5752 -0.0681 -0.2894
  649TIP3    H123438   6.098   3.254   4.048 -1.4286  1.1852  0.0555
  649TIP3    H223439   6.160   3.388   4.083  1.9952 -0.6487  1.4157
  650TIP3   OH223440   0.643   1.579   0.367 -0.4449 -0.4407 -0.3442
  650TIP3    H123441   0.579   1.574   0.438 -0.0858 -0.2991 -0.0068
  650TIP3    H223442   0.694   1.659   0.386  1.3978 -1.7890  0.7422
  651TIP3   OH223443   3.788   0.986   4.390  0.4043  0.2544  0.1128
  651TIP3    H123444   3.799   1.070   4.434  0.1921  0.3818 -0.0743
  651TIP3    H223445   3.736   0.934   4.451 -1.7418  1.1445 -0.8458
  652TIP3   OH223446   0.379   3.443   4.794  0.2759  0.5382  0.2923
  652TIP3    H123447   0.438   3.517   4.778  0.3260  0.1616 -1.4326
  652TIP3    H223448   0.433   3.378   4.838  1.1399  0.2695 -1.1124
  653TIP3   OH223449   2.807   2.266   2.271  0.3844 -0.5605 -0.2158
  653TIP3    H123450   2.829   2.341   2.217 -1.4086 -0.1317 -0.3954
  653TIP3    H223451   2.755   2.302   2.343 -0.7321 -1.6247 -0.4465
  654TIP3   OH223452   6.227   1.235   2.924 -0.2586 -0.4749  0.2382
  654TIP3    H123453   6.247   1.298   2.994 -2.4247  1.0215 -0.3920
  654TIP3    H223454   6.287   1.258   2.853 -1.7968  1.7930 -0.4391
  655TIP3   OH223455   0.269   5.740   5.765 -0.2949 -0.7200 -0.3035
  655TIP3    H123456   0.186   5.693   5.770 -1.3424  0.6541 -2.5159
  655TIP3    H223457   0.250   5.825   5.806 -0.2893 -0.0938 -1.5473
  656TIP3   OH223458   6.167   0.986  12.860 -0.5020 -0.8377  0.6324
  656TIP3    H123459   6.140   0.996  12.769 -0.0414  1.1920  0.6791
  656TIP3    H223460   6.201   0.897  12.865  1.5274 -0.3154 -1.7512
  657TIP3   OH223461   0.792   4.977  11.190 -0.0995  0.0662  0.1175
  657TIP3    H123462   0.759   4.946  11.105  0.1931 -1.0257  0.3973
  657TIP3    H223463   0.716   5.019  11.230 -0.5861 -0.5182 -0.1662
  658TIP3   OH223464   1.502   5.076   3.707  0.4738  0.1735  0.1911
  658TIP3    H123465   1.551   5.116   3.635  0.4761 -0.1936 -0.0117
  658TIP3    H223466   1.421   5.127   3.712  0.3353  0.0043 -0.2779
  659TIP3   OH223467   3.569   2.169  14.640  0.1013  0.1268 -0.3796
  659TIP3    H123468   3.581   2.245  14.584 -0.8607  0.6473  0.0917
  659TIP3    H223469   3.655   2.128  14.645  0.1322 -0.1655 -2.5467
  660TIP3   OH223470   5.606   1.736  15.266 -0.0830 -0.5291 -0.2785
  660TIP3    H123471   5.511   1.724  15.261 -0.2511  1.1471 -2.9452
  660TIP3    H223472   5.636   1.720  15.177  1.9838  0.2904  0.2230
  661TIP3   OH223473   1.670   3.034  15.027  0.6454 -0.3167  0.4555
  661TIP3    H123474   1.641   2.997  15.110 -0.8428  0.9529  0.5235
  661TIP3    H223475   1.695   3.124  15.047 -1.3557  0.5669 -0.7314
  662TIP3   OH223476   6.784   0.421  12.523  0.0742  0.4045  0.0655
  662TIP3    H123477   6.779   0.328  12.503 -4.2356  0.6083 -0.8816
  662TIP3    H223478   6.767   0.426  12.617  0.2851  0.2455  0.1126
  663TIP3   OH223479   6.525   3.799  15.310  0.3593 -0.3504  0.2942
  663TIP3    H123480   6.609   3.762  15.283 -0.2919  0.1424 -2.7979
  663TIP3    H223481   6.547   3.885  15.346  1.1744  0.2873 -1.5882
  664TIP3   OH223482   0.438   2.972  14.147 -0.3043  0.4802 -0.0301
  664TIP3    H123483   0.521   2.980  14.193 -1.3416  0.7369  1.8638
  664TIP3    H223484   0.425   2.878  14.135 -0.5884  0.3325  1.3250
  665TIP3   OH223485   3.359   3.072   5.857 -0.2860 -0.0825 -0.2331
  665TIP3    H123486   3.430   3.010   5.874  0.0001  0.2697 -0.1445
  665TIP3    H223487   3.342   3.113   5.941 -0.8174 -0.3953 -0.1823
  666TIP3   OH223488   5.281   3.595  10.591  0.5173 -0.7532 -0.2326
  666TIP3    H123489   5.364   3.619  10.631  0.8051  0.3099 -1.4002
  666TIP3    H223490   5.294   3.610  10.497 -1.2085  0.1643 -0.3780
  667TIP3   OH223491   6.279   0.931   1.984  0.3577  0.0964 -0.0698
  667TIP3    H123492   6.321   1.010   1.951  1.8167 -1.0764 -1.1770
  667TIP3    H223493   6.345   0.862   1.972 -0.9731 -1.3515  0.5535
  668TIP3   OH223494   0.666   6.062  11.492  0.5256 -0.3565  0.0805
  668TIP3    H123495   0.628   6.067  11.404 -0.7120  0.4289  0.6145
  668TIP3    H223496   0.755   6.030  11.478  0.7292  0.7666 -1.5692
  669TIP3   OH223497   6.312   5.055   2.796 -0.4719 -0.2144  0.2295
  669TIP3    H123498   6.391   5.001   2.785 -0.5820  0.0167 -2.1838
  669TIP3    H223499   6.341   5.129   2.848  0.5669 -0.8142  0.5434
  670TIP3   OH223500   2.464   0.863  11.348 -0.3094 -0.2499 -0.1725
  670TIP3    H123501   2.513   0.945  11.344 -0.6244  0.0492  1.2921
  670TIP3    H223502   2.396   0.872  11.281 -0.6249  0.8957  0.2836
  671TIP3   OH223503   3.145   4.791  13.641  0.2811  0.4374  1.0394
  671TIP3    H123504   3.137   4.860  13.707 -3.4529 -0.1399  1.4175
  671TIP3    H223505   3.081   4.725  13.668  0.0881 -0.8087 -2.0540
  672TIP3   OH223506   4.910   4.474   1.144 -0.1846 -0.0534  0.2186
  672TIP3    H123507   4.858   4.393   1.142  0.4784 -0.5041  0.9489
  672TIP3    H223508   4.982   4.457   1.084 -0.0427  0.0015  0.3756
  673TIP3   OH223509   5.635   6.147  13.313  0.3440 -0.8581  0.2358
  673TIP3    H123510   5.673   6.060  13.323 -0.5476 -1.1751  1.0990
  673TIP3    H223511   5.670   6.180  13.231 -0.9245 -2.8786 -1.2075
  674TIP3   OH223512   3.342   3.865   5.024 -0.4647  0.5924  0.5729
  674TIP3    H123513   3.368   3.956   5.010  2.3513 -0.3817 -1.7170
  674TIP3    H223514   3.425   3.817   5.023 -1.9746 -2.1733 -0.2024
  675TIP3   OH223515   3.614   0.251   5.532 -0.7853  0.3638 -0.3677
  675TIP3    H123516   3.519   0.255   5.547 -0.9328 -1.1538 -0.7016
  675TIP3    H223517   3.650   0.232   5.619 -0.9600 -0.8325 -0.5432
  676TIP3   OH223518   0.589   0.804   4.682  0.0540 -0.4785 -0.0364
  676TIP3    H123519   0.538   0.810   4.601 -0.2787  0.1609  0.2051
  676TIP3    H223520   0.646   0.729   4.670  1.9692  1.1636 -1.9848
  677TIP3   OH223521   2.137   6.427  14.993  0.1650  0.0204  0.3667
  677TIP3    H123522   2.053   6.472  14.978  1.6334  3.1565  0.7529
  677TIP3    H223523   2.148   6.431  15.088  1.7762  1.7822  0.1493
  678TIP3   OH223524   0.552   5.170  16.293  0.0427  0.0426 -0.1693
  678TIP3    H123525   0.571   5.263  16.279  0.1856  0.0813  0.2505
  678TIP3    H223526   0.631   5.136  16.336  0.3660 -0.4864 -1.1531
  679TIP3   OH223527   1.418   0.894   1.044  0.4821  0.0510 -0.4235
  679TIP3    H123528   1.466   0.813   1.060  1.4044  0.5661 -0.5400
  679TIP3    H223529   1.378   0.916   1.129  2.0565  0.6466  0.1919
  680TIP3   OH223530   2.174   4.003   0.714 -0.2662 -0.0600  0.1933
  680TIP3    H123531   2.155   4.073   0.776  1.0330  0.3538  0.1591
  680TIP3    H223532   2.230   3.942   0.763  1.6107  0.7730 -0.8103
  681TIP3   OH223533   0.745   5.238   0.754 -0.2782 -0.3484  0.1679
  681TIP3    H123534   0.759   5.175   0.682 -0.3384 -0.3614  0.1676
  681TIP3    H223535   0.730   5.183   0.831 -0.6770 -0.3346  0.1001
  682TIP3   OH223536   1.416   2.579   1.230 -0.4354 -0.2387  0.3478
  682TIP3    H123537   1.445   2.526   1.305  0.9734 -0.6250 -0.4370
  682TIP3    H223538   1.489   2.639   1.214  0.3521 -1.7433 -2.1696
  683TIP3   OH223539   6.396   3.513   4.422 -0.2361 -0.5645 -0.0558
  683TIP3    H123540   6.388   3.607   4.405  0.0809 -0.7095 -1.0439
  683TIP3    H223541   6.450   3.480   4.351 -0.1544 -1.4653  0.4116
  684TIP3   OH223542   6.416   2.654  12.528  0.2341  0.1927 -0.5892
  684TIP3    H123543   6.455   2.692  12.607 -1.4678  0.4533  0.1703
  684TIP3    H223544   6.470   2.687  12.456  1.0775  0.9509  0.3639
  685TIP3   OH223545   0.853   1.158   5.744 -0.0784  0.1030  0.3699
  685TIP3    H123546   0.936   1.114   5.759  0.5346  1.2303  0.4033
  685TIP3    H223547   0.806   1.152   5.827  0.9764  1.5094  1.1001
  686TIP3   OH223548   4.430   4.708  10.938 -0.0928  0.0673 -0.3120
  686TIP3    H123549   4.519   4.740  10.926 -0.2231 -0.0743 -1.8594
  686TIP3    H223550   4.378   4.758  10.874 -0.9980 -0.3326  0.0926
  687TIP3   OH223551   4.247   6.576  13.147 -0.5716  0.9923  0.1369
  687TIP3    H123552   4.240   6.593  13.241 -0.7015  4.0526 -0.3372
  687TIP3    H223553   4.300   6.648  13.113 -1.1796  0.4023 -2.2520
  688TIP3   OH223554   2.204   4.134  11.720 -0.1415  0.0644 -0.1933
  688TIP3    H123555   2.251   4.069  11.772  0.1002  0.8375  0.5810
  688TIP3    H223556   2.273   4.187  11.679 -0.3366  0.1562 -0.4119
  689TIP3   OH223557   6.400   6.680  14.101  0.2965 -0.3652  0.1308
  689TIP3    H123558   6.340   6.738  14.055  0.2218 -1.1295 -0.7540
  689TIP3    H223559   6.471   6.738  14.131 -0.5395  0.4245  0.6172
  690TIP3   OH223560   2.849   2.517   2.979  0.7145  0.0834 -0.2279
  690TIP3    H123561   2.757   2.511   2.955  1.0615 -1.0377 -1.4005
  690TIP3    H223562   2.849   2.563   3.063 -0.8832  0.2964 -0.3123
  691TIP3   OH223563   4.257   2.481  16.603  0.5782  0.6287  0.0754
  691TIP3    H123564   4.252   2.385  16.609  2.7960  0.5740  3.0052
  691TIP3    H223565   4.172   2.511  16.634  0.2156 -0.3898  0.1184
  692TIP3   OH223566   4.117   4.647  12.484 -0.4475 -0.0204 -0.2297
  692TIP3    H123567   4.057   4.710  12.525 -0.5437 -0.5997  0.5258
  692TIP3    H223568   4.098   4.564  12.527 -0.2036 -0.5417 -1.1092
  693TIP3   OH223569   4.242   5.855  10.421 -0.5303 -0.2695  0.4730
  693TIP3    H123570   4.207   5.766  10.414 -0.5870 -0.2812  0.8592
  693TIP3    H223571   4.337   5.844  10.419 -0.4705 -0.0561 -2.8471
  694TIP3   OH223572   6.665   4.764  14.209  0.4120  0.4144  0.5500
  694TIP3    H123573   6.696   4.814  14.133  3.6717 -1.1034  0.6893
  694TIP3    H223574   6.745   4.741  14.256 -1.2829 -1.2143  2.8652
  695TIP3   OH223575   2.469   0.570  14.818  0.2171 -0.7667 -0.1027
  695TIP3    H123576   2.415   0.647  14.838 -0.7431 -1.7157  1.0995
  695TIP3    H223577   2.534   0.602  14.755 -0.5572  0.8676 -0.1207
  696TIP3   OH223578   6.009   4.580  17.012  0.0154  0.1513 -0.0988
  696TIP3    H123579   6.062   4.643  16.961  0.5064  0.9266  1.3038
  696TIP3    H223580   5.931   4.630  17.037  0.1454  0.0378  0.5489
  697TIP3   OH223581   0.403   3.076   0.601 -0.0336  0.2993  0.5749
  697TIP3    H123582   0.365   3.021   0.668 -0.7034 -1.4135 -1.1407
  697TIP3    H223583   0.418   3.160   0.645  1.1455 -1.2031  3.3149
  698TIP3   OH223584   4.110   1.476   3.295 -0.0601 -0.0402 -0.3052
  698TIP3    H123585   4.084   1.385   3.282  0.2973  0.0184 -1.5779
  698TIP3    H223586   4.123   1.510   3.206 -3.0763  2.1022 -0.0883
  699TIP3   OH223587   5.676   3.935   4.881 -0.0223  0.3893 -0.5741
  699TIP3    H123588   5.611   3.889   4.933 -0.2572  1.8091  0.4550
  699TIP3    H223589   5.726   3.866   4.837  0.3991 -0.9135  1.7865
  700TIP3   OH223590   5.795   0.243   3.557 -0.7010  0.1707  0.2579
  700TIP3    H123591   5.700   0.245   3.550 -0.6797  0.9780  0.0538
  700TIP3    H223592   5.826   0.288   3.477 -0.2074  1.3801  1.0947
  701TIP3   OH223593   1.905   1.216   5.386  0.9725  0.3434 -0.3627
  701TIP3    H123594   1.838   1.160   5.347  0.8157  0.0870  0.2715
  701TIP3    H223595   1.972   1.156   5.418  0.2090  0.4019  1.4669
  702TIP3   OH223596   5.306   3.374  12.458 -0.0181  0.8649 -0.1980
  702TIP3    H123597   5.320   3.398  12.367 -0.2782 -0.4342 -0.5999
  702TIP3    H223598   5.246   3.300  12.455 -1.4940  1.9342  1.1334
  703TIP3   OH223599   0.743   2.486  11.808  0.9405  0.0799 -0.4108
  703TIP3    H123600   0.788   2.494  11.724  0.8374 -0.7323 -0.5521
  703TIP3    H223601   0.726   2.577  11.835  4.8263  0.6138  0.8721
  704TIP3   OH223602   2.219   0.765   6.462 -0.2228 -0.1244 -0.0927
  704TIP3    H123603   2.146   0.751   6.403  1.2360  0.0565 -2.0275
  704TIP3    H223604   2.273   0.687   6.454  0.8732  0.6330 -0.3449
  705TIP3   OH223605   2.997   0.690  14.220  0.1417  0.1050 -0.7509
  705TIP3    H123606   2.925   0.633  14.193  0.6313 -1.0949  0.3969
  705TIP3    H223607   2.965   0.779  14.204 -1.7823 -0.3814  0.1633
  706TIP3   OH223608   6.308   2.384   1.911 -0.0467  1.0645 -0.0405
  706TIP3    H123609   6.308   2.293   1.883 -1.1349  0.7894  0.7858
  706TIP3    H223610   6.393   2.418   1.882 -0.0588  0.0948 -1.2805
  707TIP3   OH223611   5.185   5.314  15.418  0.3635 -0.3383  0.1398
  707TIP3    H123612   5.279   5.305  15.404  0.4232  1.8038 -1.3506
  707TIP3    H223613   5.149   5.227  15.401  1.8744 -0.7038 -1.3805
  708TIP3   OH223614   4.824   2.628   4.994  0.1748 -0.0831  0.4858
  708TIP3    H123615   4.895   2.563   4.999  0.7834  0.5641  0.4634
  708TIP3    H223616   4.749   2.579   4.962  0.2735 -1.0557  1.6840
  709TIP3   OH223617   1.939   3.675  14.078 -0.1473 -0.0193 -0.4584
  709TIP3    H123618   2.008   3.633  14.130 -1.6393  0.5322  2.1394
  709TIP3    H223619   1.875   3.606  14.062  0.4216 -0.2451 -1.8255
  710TIP3   OH223620   2.884   4.180  10.893 -0.0668  0.5996 -0.2153
  710TIP3    H123621   2.929   4.109  10.847  0.9224  0.4066  1.0091
  710TIP3    H223622   2.797   4.143  10.913 -0.4038  0.5784 -1.5935
  711TIP3   OH223623   3.795   2.600   5.578 -0.2514 -0.3411  0.3155
  711TIP3    H123624   3.748   2.647   5.647  1.1677 -0.1452  1.1999
  711TIP3    H223625   3.870   2.655   5.559 -0.2725 -0.7289 -0.9404
  712TIP3   OH223626   1.134   6.472   3.798  0.3161  0.6085  0.1947
  712TIP3    H123627   1.073   6.538   3.830 -1.8102 -0.9568 -0.3687
  712TIP3    H223628   1.135   6.405   3.867  2.4615  1.1718  0.7792
  713TIP3   OH223629   3.567   0.941  16.593 -0.3346  0.0733  0.4449
  713TIP3    H123630   3.538   0.928  16.683  0.7876 -1.0971  0.6634
  713TIP3    H223631   3.625   1.017  16.596  1.1527 -1.0316  1.0877
  714TIP3   OH223632   4.026   4.569  11.441  0.0830  0.0991  0.2456
  714TIP3    H123633   3.971   4.646  11.460 -0.1638  0.1193 -0.5002
  714TIP3    H223634   3.981   4.497  11.484 -0.1304  0.2399  0.2621
  715TIP3   OH223635   3.625   3.784  15.518 -0.4561 -0.0741 -0.3316
  715TIP3    H123636   3.653   3.867  15.480  0.5607 -0.0696  0.3901
  715TIP3    H223637   3.529   3.789  15.519 -0.4238  0.8504 -0.8140
  716TIP3   OH223638   5.885   0.294  15.683  0.2593  0.6206  0.1414
  716TIP3    H123639   5.808   0.259  15.640  0.5722 -0.0734  0.1388
  716TIP3    H223640   5.882   0.388  15.665  0.1993  0.3973 -1.1040
  717TIP3   OH223641   0.192   0.386   4.429 -0.4233  0.0737  0.3917
  717TIP3    H123642   0.182   0.434   4.347  1.2842  1.6768  1.0809
  717TIP3    H223643   0.119   0.416   4.484 -0.5169  0.3575  0.1115
  718TIP3   OH223644   2.944   0.516   4.103 -0.0348 -0.0778 -0.1122
  718TIP3    H123645   2.916   0.558   4.185  0.5767  0.1360 -0.0089
  718TIP3    H223646   2.920   0.424   4.114 -3.7246  0.5423 -1.3403
  719TIP3   OH223647   1.371   3.627  16.111 -0.4497 -0.0911 -0.1333
  719TIP3    H123648   1.455   3.669  16.129 -0.2575 -0.7055  0.4146
  719TIP3    H223649   1.388   3.534  16.122 -0.7359 -0.3787 -1.8595
  720TIP3   OH223650   3.882   0.460   0.478  0.4592  0.4565 -0.3653
  720TIP3    H123651   3.971   0.490   0.494  0.0134  1.7201 -0.1783
  720TIP3    H223652   3.828   0.510   0.538 -0.7049  1.7806 -2.3884
  721TIP3   OH223653   4.076   2.238   6.522 -0.3712  0.7114 -0.7738
  721TIP3    H123654   4.079   2.142   6.517  2.0340  0.7069 -0.5055
  721TIP3    H223655   3.990   2.261   6.486 -0.5982 -1.4716 -1.8320
  722TIP3   OH223656   5.478   5.610  15.673 -0.2278  0.1241 -0.1963
  722TIP3    H123657   5.529   5.618  15.753  1.3721 -1.0236 -1.0478
  722TIP3    H223658   5.437   5.696  15.662 -0.2057  0.3989  1.6404
  723TIP3   OH223659   0.592   6.508   1.773 -0.1043  0.3147  0.1991
  723TIP3    H123660   0.609   6.513   1.679  2.4854  0.7831  0.6096
  723TIP3    H223661   0.629   6.424   1.799  1.2318  1.1556  1.1177
  724TIP3   OH223662   4.385   3.805  14.829 -0.6596 -0.1933 -0.2221
  724TIP3    H123663   4.364   3.838  14.742 -0.5925  1.0618  0.2240
  724TIP3    H223664   4.476   3.775  14.822 -0.1201  1.3675 -0.1872
  725TIP3   OH223665   4.434   1.189  11.942  0.2788 -0.0986  0.2029
  725TIP3    H123666   4.430   1.133  12.020  0.1482 -0.4541 -0.0569
  725TIP3    H223667   4.455   1.275  11.977 -1.2453  0.0665  0.8070
  726TIP3   OH223668   5.297   6.808   1.176  0.3118  0.2791 -0.0965
  726TIP3    H123669   5.367   6.825   1.113  0.9822 -0.1533  0.5254
  726TIP3    H223670   5.292   6.713   1.182 -0.4362  0.2996 -0.2402
  727TIP3   OH223671   0.554   4.652   1.515 -0.1976  0.3007  0.2556
  727TIP3    H123672   0.606   4.574   1.537 -0.1372  0.4245  0.5588
  727TIP3    H223673   0.502   4.625   1.439 -0.0914  0.0016  0.2857
  728TIP3   OH223674   4.693   0.188  15.947 -0.1925  0.3249 -0.5017
  728TIP3    H123675   4.648   0.271  15.962 -1.4808 -0.4789  0.3337
  728TIP3    H223676   4.769   0.191  16.005 -0.4542  0.7421 -0.1734
  729TIP3   OH223677   1.006   3.908  13.853  0.6554 -0.5232  0.7161
  729TIP3    H123678   0.983   3.934  13.763  0.4377 -2.2083  0.2538
  729TIP3    H223679   0.922   3.886  13.894  0.7750  0.0553  1.2940
  730TIP3   OH223680   5.419   5.042  13.262  0.0914 -0.1211 -0.1695
  730TIP3    H123681   5.366   5.106  13.215 -1.5652 -1.2331  0.0831
  730TIP3    H223682   5.359   5.005  13.327  1.1866 -1.4321  0.1402
  731TIP3   OH223683   1.222   6.003  15.776 -0.1684  0.0107 -0.3769
  731TIP3    H123684   1.309   5.965  15.774  0.3168  1.1209 -1.1940
  731TIP3    H223685   1.220   6.055  15.857  0.2799  0.7592 -0.8374
  732TIP3   OH223686   1.563   4.963   3.961 -0.2837 -0.1440 -0.4754
  732TIP3    H123687   1.603   5.005   3.885 -0.1004 -0.3022 -0.4642
  732TIP3    H223688   1.495   4.906   3.924  1.0192 -1.6354 -0.6527
  733TIP3   OH223689   3.998   6.780  14.301 -0.3639  0.2012  0.0909
  733TIP3    H123690   3.908   6.813  14.308 -0.7431 -0.2617 -1.9644
  733TIP3    H223691   3.988   6.689  14.270  0.7884  0.6675 -1.8611
  734TIP3   OH223692   0.302   1.223   3.333  0.1001  0.2373 -0.3983
  734TIP3    H123693   0.301   1.220   3.429 -1.7062 -0.7104 -0.3969
  734TIP3    H223694   0.231   1.283   3.311 -0.9914 -1.2695 -1.1332
  735TIP3   OH223695   2.253   0.203   0.722  0.1201  0.3753 -0.1295
  735TIP3    H123696   2.184   0.137   0.711 -0.8100  1.4499 -1.1349
  735TIP3    H223697   2.335   0.154   0.720 -0.5412 -0.7282 -1.0399
  736TIP3   OH223698   2.081   0.847  15.801  0.3510  0.1764 -0.2687
  736TIP3    H123699   2.124   0.785  15.742 -0.8886  0.8147 -1.8834
  736TIP3    H223700   2.062   0.795  15.880  0.3317 -1.2033 -1.1512
  737TIP3   OH223701   2.705   5.617  11.913  0.1755  0.6593 -0.0951
  737TIP3    H123702   2.620   5.573  11.915  1.2000 -1.4370  0.7103
  737TIP3    H223703   2.708   5.667  11.995  0.3550 -0.6765  0.7566
  738TIP3   OH223704   6.560   1.118   0.689 -0.4059 -0.1291 -0.4021
  738TIP3    H123705   6.619   1.194   0.688 -0.3447 -0.1787 -1.3955
  738TIP3    H223706   6.597   1.058   0.624 -0.0215 -1.3584  0.9034
  739TIP3   OH223707   6.747   5.722  14.575  0.4564 -0.1179  0.0158
  739TIP3    H123708   6.700   5.721  14.491  2.3963  1.8823 -1.1815
  739TIP3    H223709   6.755   5.629  14.598  0.8417 -0.8314 -2.6161
  740TIP3   OH223710   6.268   1.744  16.504 -0.6796 -0.0023 -0.1623
  740TIP3    H123711   6.265   1.650  16.522 -0.2250  0.0504  0.2074
  740TIP3    H223712   6.358   1.760  16.476 -1.2072  0.0266 -1.9383
  741TIP3   OH223713   2.327   1.685  16.323 -0.4866  0.8048 -0.7771
  741TIP3    H123714   2.235   1.660  16.318 -0.5495  0.4581  1.3042
  741TIP3    H223715   2.373   1.602  16.339  0.0560  1.1212 -0.6801
  742TIP3   OH223716   1.510   5.574  16.670 -0.1206  0.6258 -0.2487
  742TIP3    H123717   1.545   5.538  16.588  0.4802  0.0048  0.2623
  742TIP3    H223718   1.536   5.510  16.737 -1.8997  0.3500  0.2314
  743TIP3   OH223719   1.779   5.690   0.104  0.3563  0.1661 -0.0196
  743TIP3    H123720   1.771   5.599   0.077  1.7600 -0.0150  0.1065
  743TIP3    H223721   1.843   5.728   0.044  1.7025  0.3810  1.4758
  744TIP3   OH223722   1.079   3.411   6.032 -0.1212  0.2681 -0.0781
  744TIP3    H123723   1.109   3.497   6.001  3.2599 -0.7907 -0.2121
  744TIP3    H223724   1.159   3.367   6.059 -1.3641 -3.6530 -2.0373
  745TIP3   OH223725   2.683   6.419   4.027 -0.3760 -0.2168  0.5637
  745TIP3    H123726   2.743   6.346   4.014 -1.3600 -1.2783  1.7025
  745TIP3    H223727   2.737   6.490   4.060  0.1010 -1.6021  2.9783
  746TIP3   OH223728   5.211   1.763   5.323 -0.7041 -0.3892  0.3117
  746TIP3    H123729   5.145   1.710   5.279 -0.1934 -0.4880 -0.3466
  746TIP3    H223730   5.294   1.721   5.302 -0.4185 -0.2241  1.0678
  747TIP3   OH223731   6.324   3.297   2.660 -0.1152  0.1734  0.0274
  747TIP3    H123732   6.411   3.302   2.701  0.8328  1.7482 -1.9845
  747TIP3    H223733   6.339   3.247   2.580 -1.4105 -0.8004  0.3666
  748TIP3   OH223734   5.584   6.050   3.089 -0.2861  0.1316  0.0237
  748TIP3    H123735   5.498   6.039   3.048 -0.2948 -1.5774  0.4211
  748TIP3    H223736   5.645   6.011   3.027  0.6885  3.9260 -1.6713
  749TIP3   OH223737   1.874   2.337  12.524  0.3449 -0.0210  0.3095
  749TIP3    H123738   1.942   2.288  12.570  1.5251  0.9338 -0.3498
  749TIP3    H223739   1.908   2.346  12.434 -0.7817  0.2439 -0.1103
  750TIP3   OH223740   1.072   0.066   0.108  0.0020  0.8811  0.0938
  750TIP3    H123741   1.101   0.015   0.033 -0.3758  1.2102 -0.2824
  750TIP3    H223742   1.065   0.002   0.179  2.0241  0.8588  0.3307
  751TIP3   OH223743   4.020   6.071  11.648  0.2106 -0.2115 -0.2037
  751TIP3    H123744   3.944   6.070  11.590  0.5921 -0.9142 -0.7143
  751TIP3    H223745   3.993   6.122  11.724 -0.6493 -0.1647 -0.5378
  752TIP3   OH223746   2.936   2.141   1.096  0.0107  0.3187  0.0966
  752TIP3    H123747   2.998   2.184   1.038 -0.4779  3.2602  1.5834
  752TIP3    H223748   2.865   2.113   1.039  1.3619 -0.6064 -1.2202
  753TIP3   OH223749   2.737   6.002   3.357 -0.5667 -0.1291  0.6024
  753TIP3    H123750   2.758   6.049   3.437  0.3663 -1.5149  1.2006
  753TIP3    H223751   2.818   5.958   3.332 -1.2042 -0.8233 -0.3420
  754TIP3   OH223752   6.036   2.060   0.978 -0.0986  0.0344 -0.1771
  754TIP3    H123753   5.943   2.040   0.972  0.1876 -1.2368 -0.7622
  754TIP3    H223754   6.041   2.137   1.035 -1.3244 -1.5841  2.3220
  755TIP3   OH223755   5.633   5.318   1.771 -0.0902  0.6630  0.2247
  755TIP3    H123756   5.690   5.270   1.831  0.0193  0.1699 -0.2570
  755TIP3    H223757   5.691   5.348   1.701 -0.3470  0.4819 -0.0752
  756TIP3   OH223758   0.674   1.843  17.177 -0.3473  0.0333 -0.6906
  756TIP3    H123759   0.626   1.916  17.216 -1.1049  0.0326 -1.5750
  756TIP3    H223760   0.667   1.773  17.242 -0.7408  0.3313 -0.4027
  757TIP3   OH223761   3.382   2.156   0.954 -0.4577 -0.2464  0.3159
  757TIP3    H123762   3.391   2.061   0.941 -0.3726 -0.0703 -0.9988
  757TIP3    H223763   3.464   2.182   0.996 -0.0513 -0.6099 -0.2253
  758TIP3   OH223764   6.483   1.736   5.933 -0.7022  0.5633  0.2147
  758TIP3    H123765   6.425   1.667   5.967  0.7916  0.3094  2.5001
  758TIP3    H223766   6.552   1.743   5.998  1.6619  1.1230 -2.1701
  759TIP3   OH223767   5.935   6.490  17.131  0.7740 -0.2523  0.2905
  759TIP3    H123768   5.898   6.409  17.096 -3.1137  1.2807  0.3833
  759TIP3    H223769   5.960   6.468  17.221 -0.8654 -1.2273  0.5541
  760TIP3   OH223770   2.550   6.239  10.607 -0.4698 -0.1864 -0.1254
  760TIP3    H123771   2.550   6.291  10.527 -0.4286 -1.0340 -0.6883
  760TIP3    H223772   2.590   6.156  10.582  0.5065 -0.1049  1.0198
  761TIP3   OH223773   3.561   1.520   5.672 -0.3117  0.8169  0.0321
  761TIP3    H123774   3.579   1.516   5.578 -0.2170 -0.3879  0.0926
  761TIP3    H223775   3.569   1.613   5.694  2.2286  0.8385 -0.6741
  762TIP3   OH223776   3.943   5.489   3.654  0.0546 -0.0853 -0.0672
  762TIP3    H123777   4.027   5.469   3.612 -0.3263 -1.5572 -0.2006
  762TIP3    H223778   3.965   5.508   3.745  0.6308  0.5304 -0.3349
  763TIP3   OH223779   4.167   1.923  13.935 -0.2621  0.2751  0.6867
  763TIP3    H123780   4.179   2.016  13.913  0.4613 -0.2399 -1.3123
  763TIP3    H223781   4.237   1.903  13.997  1.8967  0.2447 -1.6338
  764TIP3   OH223782   4.979   5.332   3.130  0.2594  0.1247 -0.0788
  764TIP3    H123783   4.956   5.299   3.217  0.7306  1.2510  0.4984
  764TIP3    H223784   4.896   5.363   3.093  0.2098  0.6141  0.4168
  765TIP3   OH223785   5.553   0.109  13.498  0.0586  0.3824 -0.2096
  765TIP3    H123786   5.645   0.110  13.524  0.4811  1.2231 -1.6338
  765TIP3    H223787   5.525   0.200  13.509 -0.8159 -0.0014  0.8810
  766TIP3   OH223788   3.075   0.468   1.176  0.0878 -0.3490 -0.0303
  766TIP3    H123789   3.102   0.430   1.259  2.5394 -0.1055 -0.6248
  766TIP3    H223790   3.075   0.395   1.114 -1.8031 -0.5457  0.1315
  767TIP3   OH223791   1.460   2.481   2.441 -0.0706 -0.3253  0.3709
  767TIP3    H123792   1.384   2.451   2.391  0.4592 -0.3537 -0.4321
  767TIP3    H223793   1.468   2.574   2.421  0.8067 -0.5730 -0.4962
  768TIP3   OH223794   6.255   5.222  16.721  0.0953 -0.4189  0.0143
  768TIP3    H123795   6.307   5.215  16.801  0.7666 -0.2181 -0.4000
  768TIP3    H223796   6.319   5.217  16.650 -0.6190 -2.1094 -0.5605
  769TIP3   OH223797   3.543   1.611  13.816 -0.3280 -0.6990 -0.1166
  769TIP3    H123798   3.548   1.705  13.795  2.0095 -0.4438  1.2544
  769TIP3    H223799   3.570   1.567  13.736 -1.0331 -0.2206 -0.6391
  770TIP3   OH223800   5.891   6.015  15.178  0.0511 -0.0542  0.1037
  770TIP3    H123801   5.856   6.090  15.129 -2.1226 -0.4030  1.0265
  770TIP3    H223802   5.863   5.938  15.128  2.5030 -0.3120 -0.9865
  771TIP3   OH223803   6.288   6.148   1.764  0.5537  0.8443  0.2888
  771TIP3    H123804   6.247   6.101   1.692  0.6454  0.5436  0.4324
  771TIP3    H223805   6.358   6.091   1.795  2.9660  2.5044 -1.7418
  772TIP3   OH223806   1.520   0.514   5.702  1.0504  0.5047 -0.5891
  772TIP3    H123807   1.504   0.543   5.792  3.0716  1.8725 -0.6023
  772TIP3    H223808   1.471   0.576   5.648 -1.7151 -1.4137 -0.5026
  773TIP3   OH223809   5.047   1.822   6.008  0.0734 -0.2778  0.1148
  773TIP3    H123810   5.074   1.777   6.088  2.7380  0.6749 -0.1506
  773TIP3    H223811   5.012   1.752   5.953  2.4659 -1.8443  0.3865
  774TIP3   OH223812   3.989   6.511  14.217 -0.4162 -0.2740 -0.0288
  774TIP3    H123813   4.063   6.473  14.171  0.6367 -1.1685  2.2591
  774TIP3    H223814   3.932   6.437  14.237  0.3144 -0.3224  2.0885
  775TIP3   OH223815   0.809   0.826  13.216  0.6279  0.1975 -0.1312
  775TIP3    H123816   0.714   0.836  13.204  0.4332 -0.4370  0.7328
  775TIP3    H223817   0.843   0.813  13.128 -0.3123 -1.1905 -0.3247
  776TIP3   OH223818   4.258   0.095   5.911 -0.1528 -0.0901 -0.1069
  776TIP3    H123819   4.220   0.008   5.923  0.3032 -0.7247 -2.6362
  776TIP3    H223820   4.349   0.077   5.886  0.2208  1.1690  0.2942
  777TIP3   OH223821   0.184   1.688  12.871  0.4836  0.4303  0.4791
  777TIP3    H123822   0.222   1.612  12.915 -0.6179 -0.3594  0.1145
  777TIP3    H223823   0.108   1.711  12.924  0.4357  0.8674  0.2216
  778TIP3   OH223824   4.888   3.952   4.984  0.0693  0.0909  0.3274
  778TIP3    H123825   4.946   3.878   4.969 -1.0218 -0.6574 -0.3088
  778TIP3    H223826   4.810   3.914   5.024 -0.3478  0.9556  0.3621
  779TIP3   OH223827   1.572   5.456  13.380 -0.0414 -0.0114 -0.1102
  779TIP3    H123828   1.629   5.486  13.451  0.9219  1.3302 -1.3770
  779TIP3    H223829   1.532   5.536  13.346 -0.3818 -0.6023 -1.1416
  780TIP3   OH223830   3.294   2.570  16.960 -0.6076 -0.2001 -0.7472
  780TIP3    H123831   3.343   2.626  16.901 -1.3037  0.3310 -0.8334
  780TIP3    H223832   3.228   2.627  16.998 -2.3294 -1.2675 -1.9830
  781TIP3   OH223833   6.391   6.717  12.913  0.4514 -0.2321  0.1012
  781TIP3    H123834   6.415   6.642  12.858 -0.9027 -1.6555  1.3787
  781TIP3    H223835   6.463   6.725  12.975  1.0018  0.0869 -0.5617
  782TIP3   OH223836   0.357   5.281   6.545 -0.5806 -0.5265 -0.2519
  782TIP3    H123837   0.409   5.361   6.557  0.4868 -1.3779  1.0695
  782TIP3    H223838   0.277   5.311   6.502 -0.7966  1.4928  1.3662
  783TIP3   OH223839   5.896   3.706   5.137 -0.4488 -0.2903  0.2623
  783TIP3    H123840   5.954   3.630   5.131  1.6384  1.2304  0.2138
  783TIP3    H223841   5.942   3.767   5.195 -2.1587  0.8699  0.4718
  784TIP3   OH223842   6.508   2.921   5.327 -1.0653 -0.0744 -0.2883
  784TIP3    H123843   6.597   2.892   5.351 -1.2991 -0.8682 -0.3368
  784TIP3    H223844   6.479   2.857   5.262 -1.8319 -0.0655  0.0334
  785TIP3   OH223845   0.321   3.879   1.374  0.2276  0.0489 -0.8399
  785TIP3    H123846   0.373   3.918   1.304  1.3524 -1.9181 -1.1748
  785TIP3    H223847   0.338   3.785   1.367 -2.1302 -0.5214  0.0844
  786TIP3   OH223848   2.075   5.841  14.696 -0.4698  0.4982 -0.3766
  786TIP3    H123849   2.069   5.899  14.620  0.3191  0.1088 -0.7447
  786TIP3    H223850   2.138   5.774  14.670  0.0534  0.5360  0.7351
  787TIP3   OH223851   2.647   1.892  13.894  0.8490 -0.2209 -0.0574
  787TIP3    H123852   2.725   1.865  13.847  0.6480  0.8850 -1.0800
  787TIP3    H223853   2.645   1.987  13.886  0.3404 -0.0662  1.4781
  788TIP3   OH223854   4.446   2.171  15.341  0.7103  0.2427  0.2282
  788TIP3    H123855   4.510   2.153  15.411  1.3695  0.8535 -0.2031
  788TIP3    H223856   4.475   2.116  15.268 -0.4988 -1.0736  0.7053
  789TIP3   OH223857   4.197   1.701   1.897  0.3121 -0.4285  0.5785
  789TIP3    H123858   4.182   1.607   1.891  0.9940 -0.4299 -2.0525
  789TIP3    H223859   4.285   1.714   1.862  0.5578  1.1323  1.6378
  790TIP3   OH223860   4.430   5.931  17.179  0.4770 -0.0045 -0.6765
  790TIP3    H123861   4.453   5.958  17.268  1.2058 -2.3893 -0.0934
  790TIP3    H223862   4.481   5.989  17.123  2.1480 -0.2587  0.5138
  791TIP3   OH223863   0.908   6.674   2.367 -0.7988  0.0647 -0.3636
  791TIP3    H123864   0.839   6.692   2.303 -2.0157 -0.0717  0.8619
  791TIP3    H223865   0.981   6.730   2.339 -1.7427  0.9611 -1.1433
  792TIP3   OH223866   3.312   5.322   0.308 -0.2223  0.1213 -0.1388
  792TIP3    H123867   3.218   5.316   0.326 -0.1373 -0.0558  0.2505
  792TIP3    H223868   3.325   5.264   0.234 -0.5059  0.5368 -0.5207
  793TIP3   OH223869   4.281   4.961   0.522 -0.0596 -0.1461  0.0213
  793TIP3    H123870   4.240   5.005   0.596  0.4503 -2.5762  1.8904
  793TIP3    H223871   4.208   4.936   0.466 -0.6433  0.2000  0.6138
  794TIP3   OH223872   0.212   3.165   4.406 -0.2315 -0.2073  0.1740
  794TIP3    H123873   0.179   3.250   4.378 -2.4033 -0.9711  0.2211
  794TIP3    H223874   0.153   3.101   4.366  1.4237 -1.7393  0.0173
  795TIP3   OH223875   2.115   0.549   1.350  0.3560  0.3701 -0.4053
  795TIP3    H123876   2.202   0.535   1.387  0.0159 -1.5213 -0.2489
  795TIP3    H223877   2.090   0.636   1.381  1.7505  0.5069  0.4244
  796TIP3   OH223878   1.389   0.987   2.665 -0.8687  0.0708  0.2246
  796TIP3    H123879   1.336   1.011   2.741  0.2920 -0.2923  1.1764
  796TIP3    H223880   1.472   0.957   2.702 -0.0325  0.5038 -1.2110
  797TIP3   OH223881   3.632   6.056   1.677  0.1222 -0.0354  0.1377
  797TIP3    H123882   3.719   6.082   1.708  0.2932  2.2564 -1.9366
  797TIP3    H223883   3.648   5.978   1.624  0.4438 -1.3032  2.0221
  798TIP3   OH223884   3.701   5.613   0.368 -0.4749  0.9643 -0.4451
  798TIP3    H123885   3.724   5.681   0.432 -0.0824  1.2440 -0.8771
  798TIP3    H223886   3.607   5.599   0.381 -0.7194  2.1386 -0.8634
  799TIP3   OH223887   2.686   1.283  14.795 -0.2291  0.3683  1.0151
  799TIP3    H123888   2.764   1.291  14.739  0.7009  0.5126  2.2818
  799TIP3    H223889   2.686   1.363  14.847 -0.3867 -0.2870  2.0466
  800TIP3   OH223890   3.258   6.214  16.662  0.3150 -0.2744  0.1373
  800TIP3    H123891   3.344   6.255  16.660 -0.7638  2.1783  0.0910
  800TIP3    H223892   3.255   6.168  16.746  2.0999 -1.5661 -0.4414
  801TIP3   OH223893   0.704   3.722   3.542  0.2970 -0.7099 -0.4698
  801TIP3    H123894   0.765   3.684   3.478 -0.6601  0.0440 -1.8630
  801TIP3    H223895   0.654   3.647   3.575 -1.1827 -0.8262 -2.7748
  802TIP3   OH223896   1.713   6.055  16.342 -0.7904 -0.0755  0.7536
  802TIP3    H123897   1.739   6.060  16.434 -1.3235 -0.0730  0.9147
  802TIP3    H223898   1.622   6.085  16.342 -0.8437 -0.2253  0.2473
  803TIP3   OH223899   0.757   0.906  15.501  0.3285 -0.3027 -0.5271
  803TIP3    H123900   0.845   0.870  15.510  0.6939  0.8711  1.0412
  803TIP3    H223901   0.769   0.985  15.448  0.4001  0.3659  0.4550
  804TIP3   OH223902   3.651   6.148  14.818  0.3963 -0.0756  0.6313
  804TIP3    H123903   3.732   6.106  14.787 -0.3341 -0.0600 -1.4536
  804TIP3    H223904   3.630   6.212  14.750 -1.6566 -0.4604  0.8417
  805TIP3   OH223905   2.328   2.335   6.600  0.0430  0.6747 -0.4286
  805TIP3    H123906   2.265   2.401   6.573 -0.7413  0.6661  1.2596
  805TIP3    H223907   2.405   2.384   6.628 -0.5651  0.9203  0.8933
  806TIP3   OH223908   2.761   0.328   4.096 -0.0987 -0.3634 -0.5925
  806TIP3    H123909   2.821   0.287   4.158 -1.0491  0.6738  1.1070
  806TIP3    H223910   2.685   0.269   4.092 -0.2619 -0.1740 -0.3407
  807TIP3   OH223911   6.830   2.867  11.916  0.0334 -0.7085 -0.0672
  807TIP3    H123912   6.833   2.771  11.912 -0.5116 -0.7152 -0.4968
  807TIP3    H223913   6.744   2.890  11.880  0.7148  0.0146 -1.2770
  808TIP3   OH223914   6.126   5.613   6.303 -0.0580  0.4278 -0.0739
  808TIP3    H123915   6.119   5.693   6.250 -1.0973  1.0060  0.9132
  808TIP3    H223916   6.048   5.613   6.357 -0.7308 -1.9441 -0.9488
  809TIP3   OH223917   5.365   0.346   1.886 -0.3741  0.2448 -0.3287
  809TIP3    H123918   5.276   0.378   1.870  0.5780  2.8091 -0.9098
  809TIP3    H223919   5.415   0.374   1.811  1.7386  2.3306  1.7018
  810TIP3   OH223920   1.877   4.812   3.144 -0.0425 -0.2433 -0.5537
  810TIP3    H123921   1.872   4.765   3.228 -0.5708  1.8349  0.6767
  810TIP3    H223922   1.789   4.802   3.106  0.5107 -2.1053 -1.4538
  811TIP3   OH223923   0.322   2.321   2.625 -0.1060 -0.0014  0.2806
  811TIP3    H123924   0.413   2.310   2.598  0.4180 -0.7848  2.2042
  811TIP3    H223925   0.324   2.390   2.691 -1.0659  0.6215 -0.3146
  812TIP3   OH223926   0.681   5.259   1.846 -0.3419  0.5631  0.3588
  812TIP3    H123927   0.671   5.244   1.752  1.0721  0.0991  0.2616
  812TIP3    H223928   0.750   5.198   1.873 -1.7587 -0.3857  2.0021
  813TIP3   OH223929   1.911   5.253  12.029  0.0132  0.1047 -0.3236
  813TIP3    H123930   1.817   5.268  12.018 -0.1070  0.0241  0.5647
  813TIP3    H223931   1.925   5.164  11.998 -0.3902 -0.2647  0.5165
  814TIP3   OH223932   2.813   6.572   1.061 -0.4320 -0.7847  0.0302
  814TIP3    H123933   2.811   6.515   0.984  0.8457  1.1214 -1.5012
  814TIP3    H223934   2.870   6.527   1.123  0.2515 -1.3689 -0.9927
  815TIP3   OH223935   1.860   0.417  14.389 -0.3296  0.2907  0.2613
  815TIP3    H123936   1.822   0.459  14.466  0.4730  2.3329 -0.3853
  815TIP3    H223937   1.840   0.324  14.400 -3.1784  0.9111  1.2337
  816TIP3   OH223938   6.552   2.061   3.532 -0.0586  0.2425 -0.0369
  816TIP3    H123939   6.486   2.124   3.502 -0.7975 -1.0067 -1.1299
  816TIP3    H223940   6.512   1.975   3.516  1.5141 -0.5317  0.0510
  817TIP3   OH223941   1.358   4.818   2.070 -0.4597  0.6049 -0.3298
  817TIP3    H123942   1.393   4.839   2.156 -0.2884  1.6093 -0.6286
  817TIP3    H223943   1.351   4.723   2.069  0.9796  0.4727  0.2309
  818TIP3   OH223944   0.839   3.903   3.735  0.4781 -0.5545 -0.0673
  818TIP3    H123945   0.788   3.843   3.681 -0.1313  2.0645 -2.6528
  818TIP3    H223946   0.781   3.924   3.808 -0.7013 -0.5077 -0.9749
  819TIP3   OH223947   6.487   1.321  14.690 -0.1333  0.2624 -0.8396
  819TIP3    H123948   6.457   1.265  14.762 -0.0651  1.1630 -0.0933
  819TIP3    H223949   6.582   1.312  14.691 -0.1544  0.0180 -1.0306
  820TIP3   OH223950   6.673   4.276   2.286  0.5808  0.0590 -0.2030
  820TIP3    H123951   6.606   4.226   2.331  0.4759 -0.4097 -0.8625
  820TIP3    H223952   6.645   4.367   2.294  0.4107 -0.0439  0.4026
  821TIP3   OH223953   2.641   0.742   2.742  0.1223 -0.9132 -0.0058
  821TIP3    H123954   2.672   0.668   2.689  1.3908 -0.2766 -0.1813
  821TIP3    H223955   2.552   0.716   2.769  0.4814 -2.4336 -0.1758
  822TIP3   OH223956   5.904   4.048  13.960  0.3983 -0.2831  0.2355
  822TIP3    H123957   5.980   4.105  13.951  0.6273 -0.7958 -1.2580
  822TIP3    H223958   5.872   4.065  14.049  1.6487  0.6730  0.5276
  823TIP3   OH223959   4.379   3.060   4.171  0.1048 -0.1019 -0.1306
  823TIP3    H123960   4.396   3.010   4.250 -0.8120  0.4485  0.4370
  823TIP3    H223961   4.428   3.141   4.182 -1.0700  0.5518  0.5141
  824TIP3   OH223962   5.573   6.240  16.546 -0.0025  0.2931  0.3541
  824TIP3    H123963   5.487   6.235  16.504  0.3541  0.4507 -0.4156
  824TIP3    H223964   5.588   6.334  16.558 -0.0600  0.2528  0.7579
  825TIP3   OH223965   3.706   2.360   3.750  0.3761 -0.4215 -0.4154
  825TIP3    H123966   3.724   2.269   3.775 -1.9360 -0.3908  1.7603
  825TIP3    H223967   3.715   2.409   3.832  0.1801  1.0842 -1.2658
  826TIP3   OH223968   0.392   0.767   0.202 -0.2996  0.4288 -0.3365
  826TIP3    H123969   0.359   0.712   0.131 -0.9459  1.5734 -0.9470
  826TIP3    H223970   0.353   0.729   0.281 -1.6468  0.6401 -0.8658
  827TIP3   OH223971   4.233   0.674  14.795  0.1557 -0.1574 -0.0277
  827TIP3    H123972   4.160   0.628  14.837  0.1434  1.0690  1.3840
  827TIP3    H223973   4.193   0.720  14.721 -0.2748 -0.4434  0.0235
  828TIP3   OH223974   5.814   3.198   5.016 -0.0227  0.4470  0.1301
  828TIP3    H123975   5.871   3.249   4.959  1.5084  0.3474  1.4778
  828TIP3    H223976   5.860   3.115   5.027 -0.6328  0.1970  0.9187
  829TIP3   OH223977   2.747   1.592   4.527 -0.0703 -0.2414  0.0543
  829TIP3    H123978   2.669   1.599   4.582 -0.1554 -0.7087  0.0012
  829TIP3    H223979   2.814   1.642   4.573 -0.2365 -0.3454  0.4134
  830TIP3   OH223980   1.360   6.455   5.056 -0.0387 -0.0819 -0.4166
  830TIP3    H123981   1.330   6.460   5.147  0.2668  1.0981 -0.3616
  830TIP3    H223982   1.319   6.530   5.013  1.5373  0.6399 -0.7264
  831TIP3   OH223983   4.697   0.636   6.549  0.4076  0.6825  0.0833
  831TIP3    H123984   4.713   0.562   6.606 -1.6834 -0.2783 -0.5071
  831TIP3    H223985   4.785   0.668   6.527  1.3309 -1.0583  1.0326
  832TIP3   OH223986   2.938   2.881  16.879 -0.5362 -0.8968 -0.4402
  832TIP3    H123987   2.859   2.882  16.933 -0.1710  1.8300  0.1853
  832TIP3    H223988   3.006   2.846  16.937 -0.3083  1.3276  0.7626
  833TIP3   OH223989   3.434   6.089  14.525 -0.3524 -0.4434  0.0031
  833TIP3    H123990   3.483   6.008  14.537  1.9188  1.0475  1.6870
  833TIP3    H223991   3.486   6.155  14.570 -1.7236  2.1176 -1.9098
  834TIP3   OH223992   5.559   3.892  16.031  0.5366  0.1031  0.1703
  834TIP3    H123993   5.543   3.850  16.115  1.5398  0.5414  0.5997
  834TIP3    H223994   5.579   3.820  15.971 -0.8416 -0.2729  0.1123
  835TIP3   OH223995   1.825   2.020   4.983 -0.0973  0.2642 -0.0826
  835TIP3    H123996   1.918   1.999   4.971 -0.4728 -0.4570 -2.0706
  835TIP3    H223997   1.804   2.079   4.911 -1.0285  1.0403  0.7881
  836TIP3   OH223998   1.724   6.451  13.445  0.4034  0.1491 -0.1141
  836TIP3    H123999   1.632   6.424  13.445 -0.2759  2.2805 -1.2136
  836TIP3    H224000   1.766   6.394  13.381  0.0668 -1.3654  0.9543
  837TIP3   OH224001   4.593   3.789  11.587  0.1969  0.4268 -0.5647
  837TIP3    H124002   4.612   3.715  11.530  2.2575  0.1110  0.4457
  837TIP3    H224003   4.562   3.750  11.668  1.2414  0.6570 -0.0451
  838TIP3   OH224004   2.723   4.302   0.174  0.3369 -0.7922  0.5672
  838TIP3    H124005   2.715   4.379   0.119 -1.4896 -0.0318  1.7929
  838TIP3    H224006   2.638   4.258   0.167  0.9537 -2.0938  0.7682
  839TIP3   OH224007   3.757   4.454  12.647  0.5142 -0.6806  0.2712
  839TIP3    H124008   3.829   4.485  12.702  1.3512 -1.3295 -0.4312
  839TIP3    H224009   3.679   4.467  12.701  1.4301 -2.5258  2.1884
  840TIP3   OH224010   6.707   4.527  15.289 -0.3204 -0.3142  0.1225
  840TIP3    H124011   6.800   4.546  15.284 -0.3778  0.1583  0.7783
  840TIP3    H224012   6.665   4.598  15.241 -0.2547 -1.6502 -2.0807
  841TIP3   OH224013   4.058   0.425   1.323 -0.0512  0.1473  0.4381
  841TIP3    H124014   4.023   0.337   1.334 -0.0154 -0.1940 -1.6420
  841TIP3    H224015   4.015   0.478   1.390 -0.2209 -1.3993  1.5942
  842TIP3   OH224016   4.876   6.829   6.573 -0.0125 -0.4333  0.0174
  842TIP3    H124017   4.841   6.918   6.571  1.9148  0.4728  2.2246
  842TIP3    H224018   4.951   6.831   6.513 -1.1304 -1.1948 -1.4744
  843TIP3   OH224019   0.863   5.325   3.311  0.1203  0.3148 -0.3622
  843TIP3    H124020   0.918   5.258   3.352  0.6830  1.1432  0.2699
  843TIP3    H224021   0.868   5.306   3.217  2.5826  1.1311 -0.4580
  844TIP3   OH224022   5.603   3.235  14.485  1.0652 -0.1627  0.2072
  844TIP3    H124023   5.688   3.193  14.493  0.9446 -0.2385  1.2754
  844TIP3    H224024   5.622   3.328  14.474  1.2926 -0.2672 -0.3186
  845TIP3   OH224025   1.555   3.021  11.127  0.0095 -0.5658  0.4362
  845TIP3    H124026   1.623   2.978  11.076 -0.2717 -0.5953  0.0859
  845TIP3    H224027   1.603   3.073  11.192  0.3571 -1.0310  0.5593
  846TIP3   OH224028   0.639   3.735   2.618  0.0433 -0.7726 -0.5711
  846TIP3    H124029   0.652   3.657   2.672 -2.6176 -1.5366 -0.9134
  846TIP3    H224030   0.704   3.798   2.650  2.4325 -3.1485 -0.4256
  847TIP3   OH224031   5.698   5.124   2.560 -0.4213 -0.0641  0.2275
  847TIP3    H124032   5.728   5.196   2.616 -0.6478 -0.0479  0.3282
  847TIP3    H224033   5.753   5.130   2.482 -0.2956  0.0873  0.3269
  848TIP3   OH224034   3.381   5.048  13.157  0.2729  0.2208  0.4749
  848TIP3    H124035   3.457   5.051  13.099 -1.1668  1.0822 -1.4802
  848TIP3    H224036   3.331   4.973  13.127 -0.7119  0.9371  0.2840
  849TIP3   OH224037   1.511   1.820   5.921  0.1516  0.2397  0.4806
  849TIP3    H124038   1.601   1.803   5.949  0.2434 -2.3189 -1.0379
  849TIP3    H224039   1.458   1.761   5.974  0.0413 -2.4017 -2.2556
  850TIP3   OH224040   3.313   0.255   0.564 -0.4958 -0.3192  0.3266
  850TIP3    H124041   3.339   0.282   0.476  0.4218 -1.1665  0.3262
  850TIP3    H224042   3.241   0.194   0.551 -1.5027  0.8415  0.2587
  851TIP3   OH224043   4.261   0.723  13.361  0.4884  0.7627 -0.0636
  851TIP3    H124044   4.166   0.709  13.356  0.4839 -0.8550  2.5764
  851TIP3    H224045   4.298   0.659  13.300 -0.0889  0.2375  0.1249
  852TIP3   OH224046   6.347   5.529  13.159  0.5150  0.0567 -0.8533
  852TIP3    H124047   6.398   5.605  13.133  0.3109  0.4094 -0.2367
  852TIP3    H224048   6.390   5.497  13.239 -0.7252  0.8938  0.1963
  853TIP3   OH224049   5.061   2.473   4.811  0.2262 -0.4926  0.4452
  853TIP3    H124050   5.119   2.398   4.822  1.0228  0.2082  1.1690
  853TIP3    H224051   5.118   2.549   4.819 -0.5122  0.2021 -0.6015
  854TIP3   OH224052   1.779   6.691  14.328 -0.3669  0.6595 -0.5117
  854TIP3    H124053   1.844   6.663  14.264  0.4729 -3.9246  1.9593
  854TIP3    H224054   1.697   6.692  14.280  0.6918  0.8906 -2.4112
  855TIP3   OH224055   4.526   0.459  16.644  0.1638  0.1802  0.1447
  855TIP3    H124056   4.596   0.393  16.638 -1.2508 -1.2966 -1.1593
  855TIP3    H224057   4.446   0.410  16.624 -1.0297  2.1809 -0.1908
  856TIP3   OH224058   3.794   0.383  13.596 -0.2431 -0.7977  0.3629
  856TIP3    H124059   3.773   0.464  13.551  1.4378 -0.4715  0.0704
  856TIP3    H224060   3.845   0.411  13.673  1.7707 -1.5854 -0.6011
  857TIP3   OH224061   0.175   3.204   6.022  0.1648 -0.0514 -0.0911
  857TIP3    H124062   0.185   3.299   6.021 -0.4352  0.0323  1.0237
  857TIP3    H224063   0.144   3.184   6.110  0.2892 -1.2849 -0.3148
  858TIP3   OH224064   5.662   5.768  12.623 -0.5896 -0.4174 -0.4272
  858TIP3    H124065   5.658   5.673  12.625 -0.5752 -0.4224  1.9054
  858TIP3    H224066   5.571   5.797  12.623 -0.6007 -0.3965 -1.5957
  859TIP3   OH224067   6.185   1.801   2.632  0.8306  0.1496  0.1823
  859TIP3    H124068   6.171   1.859   2.557  0.2880  0.4729  0.5244
  859TIP3    H224069   6.254   1.742   2.603 -0.2070 -0.5307 -1.0315
  860TIP3   OH224070   4.795   4.431   5.095 -0.4097 -0.1489 -0.0593
  860TIP3    H124071   4.780   4.365   5.162  0.4971 -0.7718 -0.4396
  860TIP3    H224072   4.851   4.387   5.031 -1.5802  0.2977 -1.4380
  861TIP3   OH224073   5.231   5.602  11.541  0.1128  0.6819 -0.3374
  861TIP3    H124074   5.307   5.622  11.595  0.2580  0.0153 -0.2832
  861TIP3    H224075   5.251   5.517  11.502 -0.3077  0.8177 -0.8653
  862TIP3   OH224076   4.958   1.500   0.444 -0.1211 -0.1861  0.0466
  862TIP3    H124077   5.030   1.514   0.505  1.0573 -0.6375 -1.1897
  862TIP3    H224078   4.992   1.529   0.359 -1.2832 -0.6901 -0.6211
  863TIP3   OH224079   4.616   4.251   2.691  0.1657 -0.0189 -0.2448
  863TIP3    H124080   4.639   4.332   2.736  1.2349  0.8729 -2.2217
  863TIP3    H224081   4.594   4.279   2.602  0.1372 -1.8614 -0.8546
  864TIP3   OH224082   2.704   5.029   4.031 -0.3463  0.2619 -0.0814
  864TIP3    H124083   2.713   4.961   4.097 -1.7837 -1.3850 -1.4586
  864TIP3    H224084   2.660   5.102   4.076  2.6986  1.0717  1.8505
  865TIP3   OH224085   2.426   2.806  13.031 -1.0051 -0.0110  0.0198
  865TIP3    H124086   2.402   2.784  12.941 -2.0127 -0.0880  0.2889
  865TIP3    H224087   2.520   2.790  13.036 -0.6853  1.2253 -1.3787
  866TIP3   OH224088   1.100   2.633  12.568 -0.0582 -0.5203  0.5842
  866TIP3    H124089   1.172   2.578  12.600  0.1714 -1.1216 -0.8813
  866TIP3    H224090   1.033   2.627  12.636  0.1146 -2.3351  0.6311
  867TIP3   OH224091   4.618   5.555   5.081 -0.5363  0.4195  0.5022
  867TIP3    H124092   4.635   5.577   4.990 -0.9316 -0.6303  0.1608
  867TIP3    H224093   4.683   5.604   5.131  2.2519 -1.9098 -0.5951
  868TIP3   OH224094   3.025   5.112  11.929 -0.4255 -0.3132  0.5409
  868TIP3    H124095   3.033   5.182  11.993 -0.2788 -0.5610  0.7935
  868TIP3    H224096   3.092   5.131  11.863 -1.9808  1.1429 -0.6847
  869TIP3   OH224097   4.673   0.480   5.347 -0.0031 -0.7947  0.5637
  869TIP3    H124098   4.621   0.400   5.341 -2.6458  0.6995  1.7831
  869TIP3    H224099   4.613   0.550   5.320  1.6356  0.9839  1.2968
  870TIP3   OH224100   5.940   1.193   2.957 -0.1817  0.4908 -0.0703
  870TIP3    H124101   5.936   1.234   3.043 -0.4101 -1.4893  0.9297
  870TIP3    H224102   6.015   1.233   2.914  0.2937  1.1059  1.2860
  871TIP3   OH224103   5.711   2.543   2.705 -0.3824 -0.4094 -0.0179
  871TIP3    H124104   5.672   2.622   2.668 -0.2190 -0.6828 -0.7760
  871TIP3    H224105   5.693   2.550   2.799 -0.6520  0.3664 -0.1187
  872TIP3   OH224106   2.645   5.106  10.498 -0.1330 -0.5614  0.3907
  872TIP3    H124107   2.590   5.149  10.432  0.0212 -0.7143  0.1584
  872TIP3    H224108   2.734   5.114  10.463 -0.0383 -0.5396  0.6390
  873TIP3   OH224109   5.606   3.700   0.815  1.1701  0.2883 -0.0721
  873TIP3    H124110   5.557   3.618   0.811  0.2606  0.5615  3.1062
  873TIP3    H224111   5.678   3.682   0.876  2.3022  1.2535 -1.0726
  874TIP3   OH224112   0.708   2.173  11.679  0.4813 -0.1073  0.2613
  874TIP3    H124113   0.658   2.254  11.693  0.9851  0.0739  1.0956
  874TIP3    H224114   0.711   2.163  11.584 -2.6471 -1.0962  0.1544
  875TIP3   OH224115   2.482   4.577  17.016  0.2546 -0.3462  0.0141
  875TIP3    H124116   2.407   4.623  16.980  1.1310  0.4012 -0.8975
  875TIP3    H224117   2.460   4.484  17.007  0.8487 -0.2649 -3.5036
  876TIP3   OH224118   2.882   2.027  14.845  0.7847 -0.6306  0.2119
  876TIP3    H124119   2.868   1.992  14.932 -0.1519 -0.8212 -0.0057
  876TIP3    H224120   2.817   1.983  14.790 -0.0878  1.0342 -0.1663
  877TIP3   OH224121   5.129   3.621   2.712 -0.3295 -0.4769  0.0092
  877TIP3    H124122   5.190   3.682   2.753 -1.0331  0.2090  0.0569
  877TIP3    H224123   5.181   3.576   2.646  0.4566 -0.5699  0.6738
  878TIP3   OH224124   0.805   1.817  16.740 -0.2333  0.0253 -0.5107
  878TIP3    H124125   0.884   1.851  16.782  0.7169 -0.4568 -1.8630
  878TIP3    H224126   0.746   1.798  16.813  0.0475  2.3685  0.4432
  879TIP3   OH224127   1.035   1.315  13.996  0.4341  0.0249 -0.9702
  879TIP3    H124128   1.061   1.224  13.985  4.0101  0.7721  0.1601
  879TIP3    H224129   1.052   1.356  13.911  1.7517  0.2173 -0.6301
  880TIP3   OH224130   3.392   6.030   2.585  0.0491 -0.0376  0.0412
  880TIP3    H124131   3.367   6.121   2.598  1.2288  0.3867 -0.5261
  880TIP3    H224132   3.436   6.005   2.666 -0.8830 -0.3463  0.4755
  881TIP3   OH224133   4.539   0.602  12.342  0.1070 -0.2073 -0.5109
  881TIP3    H124134   4.532   0.633  12.252 -2.1481 -0.3717 -0.4471
  881TIP3    H224135   4.624   0.558  12.346  2.1705  3.3306 -1.3777
  882TIP3   OH224136   3.549   3.385  15.980 -0.4416 -0.4493  0.1305
  882TIP3    H124137   3.501   3.415  15.903  0.0838 -0.5409 -0.2412
  882TIP3    H224138   3.577   3.465  16.023  0.8794 -0.3681 -0.8112
  883TIP3   OH224139   0.002   6.408   1.129 -0.4898  0.0041  0.5489
  883TIP3    H124140  -0.027   6.317   1.127 -3.2123  0.7665 -0.9985
  883TIP3    H224141   0.059   6.414   1.205 -1.0285 -2.7504  1.2782
  884TIP3   OH224142   2.975   1.257   5.931  0.2843 -0.3189 -0.2123
  884TIP3    H124143   2.882   1.236   5.933  0.1331  0.4019  1.3505
  884TIP3    H224144   3.012   1.197   5.865 -0.9114 -2.1217  0.6810
  885TIP3   OH224145   1.191   3.253  14.251 -0.4846  0.1932 -0.0376
  885TIP3    H124146   1.257   3.190  14.280 -0.3690  0.5195  0.4104
  885TIP3    H224147   1.107   3.212  14.275 -0.3671  0.9373  1.7683
  886TIP3   OH224148   0.542   1.222   0.159 -0.0469 -0.0013  0.0839
  886TIP3    H124149   0.612   1.251   0.218  0.4688  0.5714 -0.7823
  886TIP3    H224150   0.546   1.126   0.163  1.2706  0.0109 -0.4907
  887TIP3   OH224151   0.869   5.477   3.667 -0.3560  0.4994  0.1476
  887TIP3    H124152   0.852   5.526   3.586 -0.1922  0.0249 -0.1801
  887TIP3    H224153   0.950   5.429   3.649 -0.2480  0.4993  0.6430
  888TIP3   OH224154   1.529   0.487   4.243  0.1704  0.0172 -0.0829
  888TIP3    H124155   1.616   0.462   4.274 -0.6591 -0.7717  1.8337
  888TIP3    H224156   1.545   0.544   4.168  2.3350  0.2319  0.4740
  889TIP3   OH224157   6.026   6.602   5.961  0.2672 -0.1741  0.4270
  889TIP3    H124158   6.037   6.685   5.915 -0.6505 -0.4122 -0.2438
  889TIP3    H224159   6.038   6.535   5.894  3.2480 -0.7249  1.3585
  890TIP3   OH224160   1.256   3.859   4.703 -0.0525 -0.3514 -0.3740
  890TIP3    H124161   1.212   3.938   4.670 -1.1578 -0.2558  1.2311
  890TIP3    H224162   1.349   3.882   4.704 -0.4569  1.5234  1.4690
  891TIP3   OH224163   2.194   3.218  11.153  0.0802 -0.3692  0.0686
  891TIP3    H124164   2.182   3.177  11.238 -0.5687 -0.0845  0.1207
  891TIP3    H224165   2.242   3.299  11.171 -0.5618 -0.0233  0.2387
  892TIP3   OH224166   2.142   4.016  14.764  0.3689 -0.4397 -0.4539
  892TIP3    H124167   2.136   3.933  14.810 -1.4105  0.1517  0.4856
  892TIP3    H224168   2.169   4.079  14.831  0.3247 -0.0217 -0.8174
  893TIP3   OH224169   0.037   0.136  15.457 -0.5225  0.2224 -0.1310
  893TIP3    H124170   0.082   0.189  15.392  1.3155  0.2418  1.0834
  893TIP3    H224171  -0.026   0.196  15.498  1.1892  1.4097  0.8911
  894TIP3   OH224172   4.944   3.761   0.063 -0.0629 -0.3352 -0.6796
  894TIP3    H124173   4.856   3.780   0.031  0.3793  0.7134 -1.3534
  894TIP3    H224174   4.982   3.704  -0.003 -0.0483 -0.3157 -0.6883
  895TIP3   OH224175   4.843   5.037  11.735 -0.0981 -0.5929  0.3982
  895TIP3    H124176   4.862   5.057  11.826  0.5772 -0.2642  0.1958
  895TIP3    H224177   4.883   5.109  11.686 -1.7024  0.0212 -0.0759
  896TIP3   OH224178   2.794   2.186   4.914  0.6551  0.1564 -0.0252
  896TIP3    H124179   2.856   2.117   4.940  1.2980  0.9214  0.5513
  896TIP3    H224180   2.708   2.146   4.921  0.9870 -0.4279  0.8592
  897TIP3   OH224181   3.207   3.261  12.365  0.1337 -0.4756 -0.5194
  897TIP3    H124182   3.294   3.225  12.348 -0.3083 -1.1095 -1.5657
  897TIP3    H224183   3.167   3.268  12.278 -0.1801  1.6026 -0.2495
  898TIP3   OH224184   4.489   1.584  12.330  0.1092 -0.0499  0.0203
  898TIP3    H124185   4.519   1.648  12.396 -1.7772  1.8816 -0.9005
  898TIP3    H224186   4.570   1.550  12.292  1.1905  1.2101  1.0866
  899TIP3   OH224187   6.454   6.623   2.487 -0.4199 -0.5019  0.3808
  899TIP3    H124188   6.510   6.616   2.564  0.5882  1.9411 -0.0335
  899TIP3    H224189   6.514   6.618   2.413 -1.1853 -1.2666 -0.2009
  900TIP3   OH224190   1.628   0.254  13.775  1.0525  0.1528 -0.2074
  900TIP3    H124191   1.626   0.205  13.693  0.3196 -0.6580  0.2850
  900TIP3    H224192   1.664   0.192  13.839 -0.3078  0.0909  0.5207
  901TIP3   OH224193   4.842   4.910  14.486 -0.7806  0.2892  0.1763
  901TIP3    H124194   4.799   4.987  14.523 -2.5669 -1.4799  1.9551
  901TIP3    H224195   4.771   4.856  14.453  0.5193 -0.1618 -2.1057
  902TIP3   OH224196   1.914   6.733  17.159  0.1668  0.2066  0.4080
  902TIP3    H124197   1.886   6.653  17.113 -0.0295 -0.1783  1.1755
  902TIP3    H224198   2.003   6.749  17.128  0.0953 -0.1325  0.0139
  903TIP3   OH224199   1.794   2.883   2.210 -0.2388  0.7112 -0.1564
  903TIP3    H124200   1.877   2.893   2.256 -0.1507  1.4064 -0.4608
  903TIP3    H224201   1.802   2.798   2.166  0.0431  0.4691  0.3512
  904TIP3   OH224202   2.199   4.076  10.800  0.1570 -0.8410 -0.4392
  904TIP3    H124203   2.260   4.066  10.873 -0.9713  0.6843  0.7796
  904TIP3    H224204   2.133   4.009  10.814 -0.2053 -0.3739  0.1073
  905TIP3   OH224205   6.227   6.454   4.399  0.5266  0.0001  0.1410
  905TIP3    H124206   6.318   6.456   4.368  1.4106 -0.5450  2.4836
  905TIP3    H224207   6.176   6.429   4.322  2.2471  1.0064 -1.4151
  906TIP3   OH224208   1.256   2.927  11.580 -0.3050  0.2738 -0.7249
  906TIP3    H124209   1.292   2.861  11.638 -1.9318 -0.1886 -0.1827
  906TIP3    H224210   1.172   2.890  11.551 -0.0693  0.9895 -2.4634
  907TIP3   OH224211   4.562   3.985   1.372 -0.1245  0.2860 -0.5774
  907TIP3    H124212   4.511   3.927   1.429 -0.2459  0.8231 -0.1423
  907TIP3    H224213   4.502   4.005   1.300 -1.6106  3.1674  1.2834
  908TIP3   OH224214   5.220   6.133   6.274 -0.5003 -0.6177  0.1529
  908TIP3    H124215   5.214   6.067   6.343  0.3349 -0.4525  0.3944
  908TIP3    H224216   5.129   6.155   6.254 -0.8541 -2.5721 -0.6469
  909TIP3   OH224217   4.144   2.132   5.867  0.0409  0.3848  0.6209
  909TIP3    H124218   4.107   2.201   5.812 -1.1775  0.3931  1.4117
  909TIP3    H224219   4.081   2.060   5.862  0.7388 -0.2441  0.7004
  910TIP3   OH224220   0.879   2.691  15.796 -0.3105  0.0021 -0.2215
  910TIP3    H124221   0.787   2.718  15.805 -0.4296 -0.2598 -0.6394
  910TIP3    H224222   0.910   2.738  15.719  0.1638  0.7729  0.4328
  911TIP3   OH224223   1.350   2.314   0.977 -0.0138  1.0637 -0.1978
  911TIP3    H124224   1.332   2.311   1.071 -0.1530 -1.4721 -0.2356
  911TIP3    H224225   1.443   2.335   0.971  0.4639 -0.6112  0.6366
  912TIP3   OH224226   6.203   0.910  14.315  0.6953  0.1845  0.2294
  912TIP3    H124227   6.114   0.944  14.314  0.5024  0.0281  3.3315
  912TIP3    H224228   6.193   0.815  14.310  0.6372  0.1437  1.0166
  913TIP3   OH224229   6.531   2.875  14.383  0.1177 -0.8174  0.4699
  913TIP3    H124230   6.561   2.961  14.414 -2.7463  0.6966 -0.6674
  913TIP3    H224231   6.438   2.887  14.366  0.1510 -3.4536 -2.2175
  914TIP3   OH224232   2.433   4.517   5.202 -0.0769  0.1044  0.1298
  914TIP3    H124233   2.429   4.499   5.296  0.1927  1.2519  0.3755
  914TIP3    H224234   2.461   4.608   5.196  2.1866 -0.5713 -1.0703
  915TIP3   OH224235   3.655   3.122  13.846  0.5774 -0.5324  0.0596
  915TIP3    H124236   3.604   3.096  13.923 -0.1327 -1.1270 -0.5891
  915TIP3    H224237   3.743   3.091  13.864  0.1825 -1.6517  0.1846
  916TIP3   OH224238   2.644   2.290  14.742  0.2368  0.1320 -0.0728
  916TIP3    H124239   2.687   2.325  14.664 -0.3492  0.4309 -0.2690
  916TIP3    H224240   2.688   2.333  14.815  0.2983  0.4052 -0.2683
  917TIP3   OH224241   5.690   0.816  12.302  0.0753  0.2823  0.1419
  917TIP3    H124242   5.771   0.786  12.342  0.4721  0.5227 -0.4687
  917TIP3    H224243   5.706   0.907  12.278 -0.5008  0.4452  0.3462
  918TIP3   OH224244   6.537   0.948  16.920 -0.6901 -0.0366  0.2648
  918TIP3    H124245   6.555   0.931  16.828  0.4797 -0.7675  0.5971
  918TIP3    H224246   6.553   1.042  16.931  1.4610 -0.3330  0.1633
  919TIP3   OH224247   3.191   1.161   0.594 -0.4485  0.6093  0.3312
  919TIP3    H124248   3.256   1.135   0.529  1.0788  1.7067  1.3281
  919TIP3    H224249   3.121   1.097   0.585 -0.4233  0.8438 -2.5281
  920TIP3   OH224250   1.584   3.500  10.149 -0.2432 -0.6359  0.2501
  920TIP3    H124251   1.662   3.461  10.188  1.2375  0.3022 -1.6327
  920TIP3    H224252   1.516   3.434  10.162  0.7815 -1.4123  2.0798
  921TIP3   OH224253   6.448   3.495  15.327  0.4814 -0.5270 -0.1933
  921TIP3    H124254   6.364   3.500  15.372 -1.0516  1.2598 -2.9444
  921TIP3    H224255   6.477   3.586  15.319  0.8490 -0.7690 -2.3554
  922TIP3   OH224256   5.549   2.134  12.943  0.5041 -0.4980  0.8259
  922TIP3    H124257   5.488   2.123  13.015 -0.7380 -0.5595 -0.2034
  922TIP3    H224258   5.535   2.224  12.914 -0.3991 -1.0361 -0.5274
  923TIP3   OH224259   4.044   1.991  11.024 -0.4307  0.3464  0.0049
  923TIP3    H124260   4.133   1.977  10.994 -1.0584 -1.7300 -1.0332
  923TIP3    H224261   4.044   1.960  11.114  0.0827  1.1891  0.3079
  924TIP3   OH224262   6.548   5.554  11.924 -0.3686 -0.1374  0.2837
  924TIP3    H124263   6.549   5.539  12.019 -1.1396 -1.4213  0.1122
  924TIP3    H224264   6.576   5.645  11.914 -0.7248  0.1631  1.7748
  925TIP3   OH224265   2.167   4.137   5.178 -0.2454  0.1414  0.0404
  925TIP3    H124266   2.212   4.056   5.152 -2.1329 -0.2961 -2.1630
  925TIP3    H224267   2.200   4.155   5.266  1.7963 -1.8575 -0.2117
  926TIP3   OH224268   2.144   2.870   3.771 -0.0694  0.8452  0.4276
  926TIP3    H124269   2.054   2.872   3.740  0.2459  0.1652 -0.5971
  926TIP3    H224270   2.188   2.940   3.721  0.3915 -0.1085 -0.5487
  927TIP3   OH224271   2.249   2.628  15.993  0.0842  0.5528 -0.1808
  927TIP3    H124272   2.177   2.578  15.954 -0.9210  2.1636 -0.4721
  927TIP3    H224273   2.328   2.588  15.958 -0.7285 -0.0054 -1.4235
  928TIP3   OH224274   6.155   5.112  13.876  0.0711 -0.0276  0.0235
  928TIP3    H124275   6.090   5.118  13.806 -0.2809  0.6927  0.4017
  928TIP3    H224276   6.144   5.024  13.912  0.2820 -0.4119 -0.8430
  929TIP3   OH224277   4.108   6.330  12.722  0.1392  0.1525  0.4390
  929TIP3    H124278   4.163   6.341  12.800  0.1227  1.5665  0.2728
  929TIP3    H224279   4.114   6.413  12.676  0.0574 -0.6286 -1.0346
  930TIP3   OH224280   1.156   0.419  16.403  0.4990  0.2681 -0.5691
  930TIP3    H124281   1.132   0.365  16.328 -0.0025 -1.0111  0.4813
  930TIP3    H224282   1.121   0.505  16.382  0.1002 -0.1365 -1.6677
  931TIP3   OH224283   1.748   0.300   4.705 -0.0769  0.0230  0.1555
  931TIP3    H124284   1.732   0.281   4.612 -0.3893  2.5692 -0.4033
  931TIP3    H224285   1.729   0.394   4.713  2.8272  0.5742  2.1483
  932TIP3   OH224286   5.424   3.202   4.087  0.6097  0.0215 -0.2780
  932TIP3    H124287   5.425   3.119   4.038 -0.9946  0.5183 -1.2430
  932TIP3    H224288   5.377   3.262   4.030  0.0052  1.0514  1.2475
  933TIP3   OH224289   1.444   0.957   5.914  0.1042  0.6776  0.3324
  933TIP3    H124290   1.413   0.933   6.001  0.0788 -0.6640 -0.0237
  933TIP3    H224291   1.535   0.984   5.927 -0.0014  0.8101  0.8103
  934TIP3   OH224292   6.709   6.203   4.321 -0.0498  0.2831 -0.2269
  934TIP3    H124293   6.786   6.166   4.364  0.1318  0.3155 -0.5241
  934TIP3    H224294   6.637   6.144   4.344 -0.1045  0.7079  0.7440
  935TIP3   OH224295   2.342   3.947  15.025  0.2561 -0.0237  0.4229
  935TIP3    H124296   2.388   3.912  14.949  0.6164 -0.4480  0.8335
  935TIP3    H224297   2.374   3.895  15.098  0.2776  0.7089  0.9395
  936TIP3   OH224298   4.558   4.307  15.888  0.6401 -0.3382 -0.1753
  936TIP3    H124299   4.596   4.316  15.975  0.8393  1.0768 -0.3784
  936TIP3    H224300   4.490   4.373  15.884 -0.4093 -1.4094 -0.5792
  937TIP3   OH224301   5.294   5.045   5.792  0.8778  0.1714  0.2180
  937TIP3    H124302   5.368   5.045   5.730  0.8454 -0.2517  0.1759
  937TIP3    H224303   5.264   5.136   5.793  0.6815  0.1218 -0.6250
  938TIP3   OH224304   6.267   3.553  12.299  0.0028 -0.1476 -0.3849
  938TIP3    H124305   6.206   3.597  12.358 -0.5232 -1.2791 -0.0516
  938TIP3    H224306   6.227   3.468  12.282  1.2091 -0.6914 -0.6297
  939TIP3   OH224307   4.262   0.565  13.625  0.5869 -0.4340  0.8531
  939TIP3    H124308   4.278   0.471  13.616 -0.4376 -0.5181 -0.4784
  939TIP3    H224309   4.309   0.604  13.551 -3.3506 -0.5076 -1.9869
  940TIP3   OH224310   6.779   2.221  16.367  0.4441 -0.3554  0.0096
  940TIP3    H124311   6.787   2.240  16.461  0.0320 -2.7940  0.6095
  940TIP3    H224312   6.858   2.258  16.329  0.0314  1.8325  1.0483
  941TIP3   OH224313   2.528   4.092  13.356 -0.4566 -0.2388  0.2908
  941TIP3    H124314   2.560   4.046  13.278  2.2545  1.6274  0.1957
  941TIP3    H224315   2.535   4.185  13.334 -1.1228  0.3159  2.2293
  942TIP3   OH224316   5.880   3.540  15.130 -0.3459  0.5527 -0.3972
  942TIP3    H124317   5.883   3.465  15.070  1.8427 -0.0342  0.3452
  942TIP3    H224318   5.839   3.505  15.209  0.8372  0.0281  0.0157
  943TIP3   OH224319   6.310   5.817  15.224  0.8869  0.0399 -0.4400
  943TIP3    H124320   6.306   5.773  15.309  0.9034 -0.2995 -0.6130
  943TIP3    H224321   6.263   5.759  15.165 -1.0385  1.3149 -0.2284
  944TIP3   OH224322   1.925   1.663   2.966 -0.2599 -0.6507 -0.0361
  944TIP3    H124323   2.013   1.649   3.001 -0.1186 -0.8190 -0.4565
  944TIP3    H224324   1.938   1.720   2.890 -0.2685 -2.3009 -1.3396
  945TIP3   OH224325   4.156   2.471   3.811  0.5251 -0.1335 -0.3853
  945TIP3    H124326   4.178   2.378   3.823  2.3213  0.2858 -0.1754
  945TIP3    H224327   4.192   2.514   3.889 -1.7249  0.5609  0.3357
  946TIP3   OH224328   6.653   1.695   6.498 -0.3857  0.0887 -0.4469
  946TIP3    H124329   6.580   1.685   6.437  0.0243  0.2400 -0.9745
  946TIP3    H224330   6.612   1.717   6.582 -0.9690 -0.3312 -0.6180
  947TIP3   OH224331   1.773   3.243  15.592  0.2314 -0.0249 -0.0750
  947TIP3    H124332   1.794   3.193  15.512  1.4602 -0.4114  0.4631
  947TIP3    H224333   1.851   3.298  15.607 -0.2996  0.6049  0.4439
  948TIP3   OH224334   5.040   5.878   2.120 -0.4818  0.2652  0.4453
  948TIP3    H124335   5.097   5.898   2.195 -0.1699 -0.4895  0.4222
  948TIP3    H224336   5.098   5.835   2.057 -0.9170  0.1778  0.0987
  949TIP3   OH224337   5.406   0.285   5.105 -0.4344  0.0249 -0.4217
  949TIP3    H124338   5.469   0.296   5.176 -0.2250 -1.0787 -0.4227
  949TIP3    H224339   5.450   0.228   5.042 -1.3871 -0.7141 -0.4514
  950TIP3   OH224340   3.760   1.960   2.933  0.1988 -0.4311 -0.1964
  950TIP3    H124341   3.750   2.054   2.946 -2.3374 -0.5322 -0.8807
  950TIP3    H224342   3.701   1.920   2.996  1.6266 -1.6268  0.4488
  951TIP3   OH224343   5.336   0.030  13.317  0.0041  0.7946 -0.1186
  951TIP3    H124344   5.303   0.013  13.406  0.1438  2.9384  0.3921
  951TIP3    H224345   5.337   0.125  13.309  1.9060  0.7139 -1.7242
  952TIP3   OH224346   4.966   3.934  14.585 -0.0429  0.8601  0.0613
  952TIP3    H124347   5.053   3.950  14.548 -0.6136  1.4798 -1.0667
  952TIP3    H224348   4.949   3.841  14.568  0.9050  0.3937  1.4532
  953TIP3   OH224349   1.997   5.902   1.586  0.4668  0.3421  0.0977
  953TIP3    H124350   1.928   5.901   1.520  0.5815 -0.7893 -0.0191
  953TIP3    H224351   2.078   5.896   1.537  0.5894  0.2410  0.3114
  954TIP3   OH224352   6.099   4.253  15.475  0.9591  0.4389 -0.0330
  954TIP3    H124353   6.009   4.237  15.505  1.0820  1.3561  0.9016
  954TIP3    H224354   6.088   4.289  15.387  0.5020 -0.9048 -0.5402
  955TIP3   OH224355   3.806   4.753  12.626 -0.0560  0.1928 -0.0771
  955TIP3    H124356   3.878   4.785  12.680 -1.2205  0.8652  1.1315
  955TIP3    H224357   3.755   4.696  12.684  0.2862 -1.4832 -1.3268
  956TIP3   OH224358   3.622   3.770   4.019 -0.1813 -0.0735  0.3299
  956TIP3    H124359   3.643   3.701   4.082 -0.1158 -1.2125 -0.9071
  956TIP3    H224360   3.706   3.813   4.001 -0.3921  1.1048  1.9350
  957TIP3   OH224361   0.010   3.292   5.782  0.0025  0.3130 -0.2045
  957TIP3    H124362   0.092   3.243   5.773  0.1123  0.5105 -0.2892
  957TIP3    H224363  -0.037   3.274   5.701 -0.0646  0.1523 -0.1308
  958TIP3   OH224364   4.030   2.160  11.967  0.2253 -0.4892  0.3020
  958TIP3    H124365   4.043   2.187  12.058 -0.4134 -2.1860  0.9381
  958TIP3    H224366   3.983   2.234  11.927  0.0076  0.0509  1.5023
  959TIP3   OH224367   2.446   4.235   3.162  0.2298  0.4427  1.0645
  959TIP3    H124368   2.490   4.320   3.161 -0.5686  0.9069 -1.0336
  959TIP3    H224369   2.356   4.256   3.187  0.1348  0.1705  0.9470
  960TIP3   OH224370   4.417   4.602  15.273 -0.4916 -0.1886  0.0812
  960TIP3    H124371   4.451   4.663  15.208 -0.9747 -1.3150 -1.2913
  960TIP3    H224372   4.487   4.596  15.339  0.7185 -0.2154 -1.1572
  961TIP3   OH224373   5.465   4.124   5.899  0.3500 -0.2849  0.4353
  961TIP3    H124374   5.387   4.112   5.953 -0.8621 -1.9148 -1.5407
  961TIP3    H224375   5.519   4.046   5.918  0.2954 -0.4502 -0.0739
  962TIP3   OH224376   5.384   0.906   5.750  0.0088  0.5043 -0.0778
  962TIP3    H124377   5.459   0.896   5.691 -0.4663 -0.9961 -0.4835
  962TIP3    H224378   5.413   0.869   5.833 -1.0311 -2.5988 -0.9522
  963TIP3   OH224379   5.207   5.145  12.880  0.1047 -0.2710  0.6938
  963TIP3    H124380   5.183   5.057  12.852 -0.7350 -0.5088  2.0669
  963TIP3    H224381   5.134   5.173  12.936  1.0112  0.7550  1.4060
  964TIP3   OH224382   0.740   1.708   6.255 -0.4347 -0.4060  0.5363
  964TIP3    H124383   0.770   1.796   6.277  0.2822 -0.1645 -1.2092
  964TIP3    H224384   0.784   1.650   6.318 -0.2431  0.3966  1.1493
  965TIP3   OH224385   1.919   5.522   4.839  0.0101  0.4395  0.8197
  965TIP3    H124386   1.835   5.501   4.799  1.1522  0.0612 -1.6027
  965TIP3    H224387   1.908   5.608   4.878 -1.5579  0.2653  0.7986
  966TIP3   OH224388   0.509   0.312  16.937 -0.0282 -0.2475 -0.0472
  966TIP3    H124389   0.470   0.245  16.993 -1.7779  0.7819  0.0465
  966TIP3    H224390   0.464   0.393  16.961  1.1165  0.7308 -1.0476
  967TIP3   OH224391   5.123   3.516   2.134  0.2145 -0.4106  0.1735
  967TIP3    H124392   5.070   3.527   2.213  0.4817  1.5949  0.1358
  967TIP3    H224393   5.094   3.433   2.096 -0.1944 -1.2243  2.1520
  968TIP3   OH224394   2.784   3.787  16.454  0.5700  0.2020  0.3471
  968TIP3    H124395   2.703   3.838  16.458 -0.2142 -0.9436 -0.2532
  968TIP3    H224396   2.762   3.703  16.494  1.5785  0.0085  0.5254
  969TIP3   OH224397   5.954   5.328  10.787  0.0042  0.0973  0.2139
  969TIP3    H124398   6.039   5.369  10.804  0.0229  0.1607 -0.0249
  969TIP3    H224399   5.890   5.398  10.803 -0.0758 -0.2225  1.3686
  970TIP3   OH224400   6.752   2.424   4.049  0.2976 -0.2374  0.3499
  970TIP3    H124401   6.840   2.449   4.020 -0.3725  0.8323 -0.8227
  970TIP3    H224402   6.712   2.385   3.972 -0.2729 -0.7085  0.8776
  971TIP3   OH224403   6.505   2.778   1.063  0.2135  0.1053  0.1868
  971TIP3    H124404   6.571   2.722   1.103  1.7949  0.5383 -1.6532
  971TIP3    H224405   6.423   2.755   1.107  1.7666  0.5975  3.6074
  972TIP3   OH224406   1.704   2.945   2.717 -0.8606 -0.3374 -1.0976
  972TIP3    H124407   1.707   3.031   2.759 -1.3315 -1.4052  1.3099
  972TIP3    H224408   1.614   2.916   2.728 -0.1295 -2.2027  0.5832
  973TIP3   OH224409   6.722   1.136   4.413  0.6020  0.4852  0.7054
  973TIP3    H124410   6.706   1.225   4.443 -0.4132  0.9594 -1.1117
  973TIP3    H224411   6.810   1.139   4.375  1.0505  0.3930  1.7107
  974TIP3   OH224412   2.710   2.472  13.885  0.1671 -0.1325 -0.2690
  974TIP3    H124413   2.805   2.464  13.900  0.4921  2.7142 -0.2646
  974TIP3    H224414   2.703   2.501  13.794 -0.8872 -2.2883 -0.9344
  975TIP3   OH224415   5.934   2.604   1.149  0.1097 -0.1129 -0.3810
  975TIP3    H124416   5.841   2.610   1.170  0.5752  3.4695  1.4646
  975TIP3    H224417   5.977   2.578   1.230  0.8489 -0.3213 -0.8196
  976TIP3   OH224418   4.298   5.161   5.701 -0.3203 -0.0703 -0.1979
  976TIP3    H124419   4.268   5.246   5.667  0.1129 -0.5454 -1.8709
  976TIP3    H224420   4.281   5.100   5.629 -1.1500 -1.5291  1.1896
  977TIP3   OH224421   5.672   2.171   0.210  0.1169  0.1845  0.0836
  977TIP3    H124422   5.623   2.162   0.291  0.7293  0.2550  0.4642
  977TIP3    H224423   5.753   2.216   0.235  0.8746 -0.9050 -0.3380
  978TIP3   OH224424   0.467   1.316   1.702  0.4660 -0.1389  0.6836
  978TIP3    H124425   0.469   1.227   1.737  0.7396  0.4158  2.1420
  978TIP3    H224426   0.465   1.305   1.607 -0.1470 -1.7036  0.8589
  979TIP3   OH224427   4.270   5.050   0.927 -0.2353 -0.5302  0.2667
  979TIP3    H124428   4.213   5.074   0.854 -1.2075 -0.4972  1.0258
  979TIP3    H224429   4.299   4.961   0.906  2.5585  0.7567 -2.0422
  980TIP3   OH224430   3.296   4.368  13.218 -0.1513 -0.0858  0.1942
  980TIP3    H124431   3.259   4.338  13.301  1.8428 -0.7177  0.9074
  980TIP3    H224432   3.377   4.318  13.208 -0.5038 -0.2812 -2.3364
  981TIP3   OH224433   4.017   2.313   3.140  0.3341 -0.7934  0.4999
  981TIP3    H124434   3.955   2.315   3.212  1.2138  0.0213  1.2644
  981TIP3    H224435   4.103   2.320   3.182  0.8417  0.3079 -0.6504
  982TIP3   OH224436   3.770   2.208  15.951 -0.3860 -0.2481  0.4197
  982TIP3    H124437   3.802   2.135  15.898  0.5243 -0.9070  1.8241
  982TIP3    H224438   3.829   2.280  15.930 -1.1990  0.0902 -0.8608
  983TIP3   OH224439   3.012   0.767   5.427  0.0703  0.0820  0.1954
  983TIP3    H124440   2.999   0.731   5.515  1.4827  0.3284  0.5293
  983TIP3    H224441   3.098   0.735   5.401  0.8515  2.1972 -0.0010
  984TIP3   OH224442   1.887   2.687  15.361 -0.2001  0.4715  0.0679
  984TIP3    H124443   1.814   2.625  15.367  1.5265 -1.5880  1.4301
  984TIP3    H224444   1.849   2.771  15.384 -2.0255 -0.6346  1.3902
  985TIP3   OH224445   1.793   4.776  14.502  0.6684  0.0563 -0.1101
  985TIP3    H124446   1.757   4.856  14.464 -0.9790 -0.4669  0.2709
  985TIP3    H224447   1.826   4.803  14.588  1.4222  0.5764 -0.5425
  986TIP3   OH224448   4.705   0.478  12.745  0.1209  0.4713 -0.2217
  986TIP3    H124449   4.773   0.457  12.810  0.9303 -0.8835 -1.4395
  986TIP3    H224450   4.624   0.444  12.784  0.1236  1.8660  1.1273
  987TIP3   OH224451   2.539   5.141  14.148  0.5652  0.1980 -0.4439
  987TIP3    H124452   2.542   5.156  14.054 -1.1901 -1.1550 -0.7571
  987TIP3    H224453   2.479   5.068  14.160  1.9787 -0.7461  1.6272
  988TIP3   OH224454   0.172   5.256   5.469 -0.4457 -0.7670  0.5461
  988TIP3    H124455   0.206   5.168   5.486  0.9552 -0.6989 -1.5403
  988TIP3    H224456   0.097   5.241   5.412 -0.9765 -0.6484  1.2009
  989TIP3   OH224457   6.261   4.659   0.581 -0.4343  0.1900  0.2623
  989TIP3    H124458   6.284   4.636   0.671  0.0508  0.4779  0.2174
  989TIP3    H224459   6.183   4.607   0.562 -0.2559 -0.2459  0.6848
  990TIP3   OH224460   4.323   2.789   0.824 -0.2715 -0.2111  0.2935
  990TIP3    H124461   4.325   2.855   0.756  0.4227  0.2381  0.7363
  990TIP3    H224462   4.284   2.833   0.900 -0.0848 -0.3889  0.4972
  991TIP3   OH224463   3.037   1.516   3.248 -0.3143 -0.1271 -1.1494
  991TIP3    H124464   2.987   1.544   3.172 -1.1447 -0.5069 -0.7553
  991TIP3    H224465   3.036   1.592   3.307 -2.4751 -0.8658 -0.1269
  992TIP3   OH224466   3.467   1.173  13.348  0.1069  0.4761  0.6021
  992TIP3    H124467   3.458   1.248  13.407  0.4356  1.5473 -0.6355
  992TIP3    H224468   3.475   1.213  13.261 -0.6811 -1.0542 -0.2060
  993TIP3   OH224469   4.917   0.666  12.733 -0.4096 -0.0842  0.1149
  993TIP3    H124470   4.887   0.709  12.653 -0.8368  1.7895  1.2314
  993TIP3    H224471   4.866   0.585  12.737  0.3919 -0.7851 -2.0291
  994TIP3   OH224472   6.391   5.444  15.194 -0.1724  0.0726 -0.3280
  994TIP3    H124473   6.412   5.430  15.101  0.9931 -0.8152  0.0482
  994TIP3    H224474   6.387   5.356  15.231 -1.4662  0.3786  0.3124
  995TIP3   OH224475   2.140   3.150   4.030  0.2582 -0.4335 -0.8999
  995TIP3    H124476   2.179   3.129   4.115  0.0106  2.3740  0.0176
  995TIP3    H224477   2.204   3.207   3.987 -0.4857 -0.1777 -1.7207
  996TIP3   OH224478   3.973   1.838   4.640  0.1950 -0.0485  0.1505
  996TIP3    H124479   4.066   1.856   4.633  0.3590 -0.9112  0.0212
  996TIP3    H224480   3.963   1.795   4.726 -0.2287  0.8918  0.5897
  997TIP3   OH224481   6.483   5.870   2.689  0.0591  0.1199 -0.2772
  997TIP3    H124482   6.552   5.854   2.754 -0.4605 -0.5820  0.1141
  997TIP3    H224483   6.437   5.786   2.682 -0.7580  0.5780 -0.5252
  998TIP3   OH224484   0.381   5.146   6.050 -0.1493 -0.3962  0.1511
  998TIP3    H124485   0.337   5.222   6.089 -0.3706 -0.1864 -0.4891
  998TIP3    H224486   0.332   5.129   5.970  1.6550  0.5988 -1.2423
  999TIP3   OH224487   0.767   3.430  12.480 -0.2961  0.2287  0.0407
  999TIP3    H124488   0.838   3.440  12.544 -0.5186  1.2436  0.1457
  999TIP3    H224489   0.740   3.520  12.461 -0.9030 -0.1126 -0.7313
 1000TIP3   OH224490   2.583   2.156   2.694 -0.2495 -0.2764  0.1830
 1000TIP3    H124491   2.546   2.158   2.606 -1.9357  1.0148  0.8649
 1000TIP3    H224492   2.627   2.240   2.703 -0.9902  0.0453  0.9155
 1001TIP3   OH224493   0.435   1.932  15.026 -0.6010 -0.0266  0.7644
 1001TIP3    H124494   0.480   1.927  15.110  0.8799 -2.9162 -0.0607
 1001TIP3    H224495   0.402   1.844  15.011 -1.7782  0.6877 -1.2083
 1002TIP3   OH224496   5.165   3.200  14.654  0.1839  0.8457  1.2543
 1002TIP3    H124497   5.101   3.188  14.584  0.5328  1.5725  0.8013
 1002TIP3    H224498   5.241   3.148  14.627  0.3727  1.2427  1.0272
 1003TIP3   OH224499   0.632   0.623   3.513  0.1985  0.4140  0.1661
 1003TIP3    H124500   0.578   0.545   3.499  1.2173 -0.1731 -0.6524
 1003TIP3    H224501   0.585   0.672   3.580 -0.6734 -0.7087  0.4245
 1004TIP3   OH224502   4.499   0.688  13.489 -0.0296 -0.1509 -0.4546
 1004TIP3    H124503   4.575   0.745  13.477 -0.5040  0.1789 -2.2157
 1004TIP3    H224504   4.436   0.719  13.424 -1.4542 -0.8054  0.5626
 1005TIP3   OH224505   2.682   5.424  16.303 -0.2129  0.1203 -0.1386
 1005TIP3    H124506   2.755   5.486  16.305 -1.7280  2.0347 -0.9368
 1005TIP3    H224507   2.647   5.424  16.392 -1.0257  1.5200 -0.4213
 1006TIP3   OH224508   5.138   1.721   3.850  0.1023  0.4023  0.4236
 1006TIP3    H124509   5.150   1.743   3.942 -0.9460  0.0805  0.6487
 1006TIP3    H224510   5.210   1.765   3.805  0.4437  0.8160  1.3583
 1007TIP3   OH224511   0.471   6.187   6.130 -0.3542 -0.1233  0.2605
 1007TIP3    H124512   0.449   6.281   6.130 -0.6232 -0.1536 -1.3264
 1007TIP3    H224513   0.391   6.144   6.159  0.0532  0.1610  1.9017
 1008TIP3   OH224514   3.383   5.419  15.867 -0.0562  0.2872  0.0250
 1008TIP3    H124515   3.445   5.470  15.815  0.4293  0.8908  1.1570
 1008TIP3    H224516   3.299   5.428  15.821  0.5102  0.1585 -1.0604
 1009TIP3   OH224517   2.506   4.169   0.419  0.2257  0.1670  0.0661
 1009TIP3    H124518   2.496   4.132   0.332 -1.7488 -0.0409  0.3436
 1009TIP3    H224519   2.417   4.179   0.452  0.7543  2.9494  0.9434
 1010TIP3   OH224520   6.427   5.934   1.905 -0.2665  0.1751  0.4249
 1010TIP3    H124521   6.366   5.862   1.920 -0.9140 -0.0169 -2.4146
 1010TIP3    H224522   6.508   5.891   1.877 -0.0910  0.4947  0.4382
 1011TIP3   OH224523   4.400   6.267  14.967  0.8125 -0.1800  0.2053
 1011TIP3    H124524   4.461   6.292  14.898 -0.8550  0.5280 -1.0827
 1011TIP3    H224525   4.407   6.172  14.972  2.1557 -0.0928  0.2477
 1012TIP3   OH224526   2.436   2.132   2.434  0.1441  0.0101 -0.3058
 1012TIP3    H124527   2.416   2.173   2.350  4.0776  0.3657 -1.2995
 1012TIP3    H224528   2.405   2.042   2.425  1.2187 -0.2090 -2.5797
 1013TIP3   OH224529   3.515   0.107   5.996 -0.4166  0.0358 -0.3033
 1013TIP3    H124530   3.481   0.095   6.084 -1.7993 -0.5497 -0.8881
 1013TIP3    H224531   3.563   0.026   5.977 -1.9952 -0.8355 -0.8587
 1014TIP3   OH224532   6.602   0.944   4.267  0.1486  0.4095 -0.2902
 1014TIP3    H124533   6.640   1.031   4.280 -0.2342  0.5123  0.1559
 1014TIP3    H224534   6.651   0.887   4.325 -0.1688  0.4836  0.0494
 1015TIP3   OH224535   3.588   6.272   2.368 -0.2224 -0.2397 -0.2690
 1015TIP3    H124536   3.614   6.364   2.365 -0.9763  0.0194  0.6958
 1015TIP3    H224537   3.493   6.274   2.374 -0.4689 -1.1412 -2.7420
 1016TIP3   OH224538   5.123   4.303   6.134 -0.2965 -0.5070  0.1770
 1016TIP3    H124539   5.036   4.299   6.174 -0.2999 -0.0525  0.2165
 1016TIP3    H224540   5.112   4.358   6.057 -0.0142 -0.3241  0.2657
 1017TIP3   OH224541   0.278   2.287  16.657  0.0099  0.1091 -0.0538
 1017TIP3    H124542   0.342   2.223  16.625 -1.1175  0.4729 -3.4970
 1017TIP3    H224543   0.218   2.235  16.711  1.0232 -1.0269  0.0240
 1018TIP3   OH224544   4.292   6.302   1.993  0.5011  0.1693 -0.0054
 1018TIP3    H124545   4.260   6.224   1.950 -0.6987 -0.0433  1.1868
 1018TIP3    H224546   4.338   6.270   2.071 -0.3789  0.6278  0.7317
 1019TIP3   OH224547   1.027   3.950   1.517 -0.4317 -0.5022 -0.1709
 1019TIP3    H124548   0.934   3.959   1.498 -0.1028  0.3723 -1.4865
 1019TIP3    H224549   1.051   3.864   1.483 -0.6668 -0.5299 -0.2665
 1020TIP3   OH224550   4.986   4.842  11.408  0.0586 -0.2169 -0.1015
 1020TIP3    H124551   5.078   4.867  11.408  0.1269 -0.4392  1.1944
 1020TIP3    H224552   4.970   4.810  11.319 -0.1216  4.5996 -2.0795
 1021TIP3   OH224553   1.211   4.828  11.597  0.4036  0.3461 -0.4348
 1021TIP3    H124554   1.261   4.817  11.677  2.9202 -3.6936 -2.2200
 1021TIP3    H224555   1.129   4.780  11.612  1.1352 -0.9407 -0.3724
 1022TIP3   OH224556   6.529   4.363   1.358 -0.6074 -0.1921 -0.3357
 1022TIP3    H124557   6.544   4.295   1.424  2.0218  0.3893 -0.2460
 1022TIP3    H224558   6.443   4.399   1.381 -0.4175 -0.9877  1.9075
 1023TIP3   OH224559   3.396   3.818   2.999 -0.2167  0.5485  0.0101
 1023TIP3    H124560   3.412   3.727   2.974 -0.6543  0.0567  1.4397
 1023TIP3    H224561   3.477   3.846   3.041 -0.0008  0.9031 -0.6336
 1024TIP3   OH224562   5.507   5.171  11.815 -0.7666  0.5076  0.3228
 1024TIP3    H124563   5.591   5.165  11.770 -1.0140 -0.5989 -0.0206
 1024TIP3    H224564   5.517   5.244  11.876  0.6901 -0.0913  0.8160
 1025TIP3   OH224565   4.986   6.149   3.660  0.3649 -0.3304 -0.5621
 1025TIP3    H124566   4.912   6.096   3.631  2.1660 -1.4080 -3.6635
 1025TIP3    H224567   4.996   6.217   3.594  0.5602  1.4904  1.2414
 1026TIP3   OH224568   3.601   2.003  11.752 -0.2223  0.3425  0.0722
 1026TIP3    H124569   3.507   2.015  11.740 -0.4826 -1.1239  0.3417
 1026TIP3    H224570   3.607   1.924  11.807  1.1714  0.0569 -0.4554
 1027TIP3   OH224571   3.473   2.403  15.663  0.3447 -0.1983 -0.2861
 1027TIP3    H124572   3.428   2.325  15.630  1.7386 -0.2812 -2.0865
 1027TIP3    H224573   3.408   2.473  15.653 -0.8409 -1.0224  1.1321
 1028TIP3   OH224574   5.456   2.951   5.802 -0.6409 -0.0635 -0.7940
 1028TIP3    H124575   5.551   2.942   5.811 -0.5702  0.3337 -1.1083
 1028TIP3    H224576   5.420   2.885   5.861 -0.1637 -0.6665 -1.1611
 1029TIP3   OH224577   4.865   6.250   2.912 -0.5889  0.0633  0.0878
 1029TIP3    H124578   4.771   6.233   2.901 -0.5017  0.8795 -2.3898
 1029TIP3    H224579   4.907   6.191   2.849  0.4369  0.9662 -0.0944
 1030TIP3   OH224580   1.508   2.985   3.403 -0.0549 -0.6532 -0.4347
 1030TIP3    H124581   1.489   3.000   3.310  0.7483  0.8895 -0.3884
 1030TIP3    H224582   1.596   2.948   3.404  0.3527  0.2820 -0.2708
 1031TIP3   OH224583   3.737   1.526  12.377 -0.3497 -0.2985  0.1861
 1031TIP3    H124584   3.792   1.450  12.400 -0.4092 -1.1204 -2.1104
 1031TIP3    H224585   3.794   1.582  12.325 -0.6690  0.6687  0.8444
 1032TIP3   OH224586   2.951   1.764  14.153 -0.3315 -0.0356 -0.2914
 1032TIP3    H124587   2.873   1.812  14.180 -0.1723  0.6919 -1.1001
 1032TIP3    H224588   2.920   1.702  14.087  0.0804  1.8225 -2.3490
 1033TIP3   OH224589   0.005   1.331  12.970  0.4724 -0.4176 -0.3222
 1033TIP3    H124590  -0.029   1.313  12.882 -0.0362 -0.0656 -0.2034
 1033TIP3    H224591   0.002   1.247  13.014 -2.1111 -0.0924  0.3057
 1034TIP3   OH224592   2.476   2.986   2.074  0.0806  0.1484 -0.4824
 1034TIP3    H124593   2.413   3.048   2.112  0.1424 -0.6203  0.9195
 1034TIP3    H224594   2.526   3.039   2.012 -2.0350  0.7414 -1.7680
 1035TIP3   OH224595   1.067   5.815   4.285  0.3954  0.6858  0.1644
 1035TIP3    H124596   1.106   5.731   4.263  0.6009  0.1887  2.2531
 1035TIP3    H224597   1.124   5.880   4.243 -0.4157 -0.1717 -2.4528
 1036TIP3   OH224598   6.755   1.579  14.516 -0.4761 -0.1516  0.1082
 1036TIP3    H124599   6.843   1.617  14.506 -0.8615  1.3211  1.8256
 1036TIP3    H224600   6.771   1.485  14.525  0.8853  0.0279 -0.1448
 1037TIP3   OH224601   1.385   1.808  10.505 -0.3123  1.0962 -0.4620
 1037TIP3    H124602   1.460   1.768  10.549  0.3689  0.0699 -2.4618
 1037TIP3    H224603   1.397   1.902  10.517  0.7420  0.9023  0.1125
 1038TIP3   OH224604   2.844   3.797   6.445  0.7232 -0.3812  0.5410
 1038TIP3    H124605   2.832   3.821   6.537 -1.7729 -2.0211  0.7539
 1038TIP3    H224606   2.817   3.705   6.441  0.6255 -0.3052 -1.8575
 1039TIP3   OH224607   2.537   5.685  14.921  0.5462 -0.6456  0.5109
 1039TIP3    H124608   2.473   5.614  14.911  0.9271 -1.1171  1.3394
 1039TIP3    H224609   2.485   5.765  14.913  0.0281 -1.0131  0.0835
 1040TIP3   OH224610   5.999   3.946   3.292  0.4067  0.2741 -0.6884
 1040TIP3    H124611   5.959   3.859   3.295 -0.5245  0.7017 -0.3531
 1040TIP3    H224612   5.928   4.004   3.262  0.9193  0.9637 -0.5845
 1041TIP3   OH224613   6.351   2.998   3.206  0.2293 -0.4349  0.0328
 1041TIP3    H124614   6.315   2.909   3.200  1.0344 -0.7623 -0.1221
 1041TIP3    H224615   6.276   3.052   3.230 -0.2981 -1.1394  0.0342
 1042TIP3   OH224616   4.424   3.283  11.707 -0.5439 -0.1494  0.2796
 1042TIP3    H124617   4.504   3.236  11.686 -0.2939  0.4632 -0.1660
 1042TIP3    H224618   4.354   3.233  11.664 -0.1684  0.4339 -1.0696
 1043TIP3   OH224619   4.436   1.209  16.188 -0.0404 -0.2694  0.0535
 1043TIP3    H124620   4.477   1.141  16.241 -0.1048 -0.7457 -0.4959
 1043TIP3    H224621   4.481   1.289  16.213 -0.6684 -0.3272  1.4715
 1044TIP3   OH224622   0.439   4.501  17.125 -0.1606 -0.1838  0.1843
 1044TIP3    H124623   0.488   4.584  17.128 -0.1624 -0.2024  0.8330
 1044TIP3    H224624   0.399   4.494  17.212 -2.0477  0.2615 -0.6044
 1045TIP3   OH224625   1.499   3.312  13.983 -0.8593 -0.3893 -0.6181
 1045TIP3    H124626   1.584   3.353  13.973 -0.9229 -0.2598 -0.6364
 1045TIP3    H224627   1.470   3.338  14.071 -1.9996  1.7157 -1.5172
 1046TIP3   OH224628   5.579   5.587  16.304  0.4888  0.6349 -0.6215
 1046TIP3    H124629   5.502   5.620  16.258 -0.1119  1.0702  0.6458
 1046TIP3    H224630   5.553   5.500  16.335  0.5602  0.7165 -0.3273
 1047TIP3   OH224631   2.555   5.399  12.219 -0.0579 -0.0364  0.0065
 1047TIP3    H124632   2.515   5.418  12.134 -0.3045 -2.7617 -0.5763
 1047TIP3    H224633   2.525   5.310  12.240  1.6643 -0.2208  1.9673
 1048TIP3   OH224634   4.456   1.999   5.288 -0.0454  0.3197 -0.1257
 1048TIP3    H124635   4.496   1.924   5.244 -0.9762 -0.4292  0.2822
 1048TIP3    H224636   4.398   1.961   5.354 -1.2478  1.3824 -0.5255
 1049TIP3   OH224637   6.125   0.418   5.414  0.3930  0.4295  0.2881
 1049TIP3    H124638   6.124   0.376   5.328  1.3235  0.2709  0.3443
 1049TIP3    H224639   6.146   0.347   5.475 -1.3267  0.3084  0.8025
 1050TIP3   OH224640   5.403   3.636   5.357  0.4213 -0.0143 -0.1465
 1050TIP3    H124641   5.348   3.712   5.377  0.2316 -0.6281  1.9090
 1050TIP3    H224642   5.342   3.562   5.359  1.1793 -0.6404  1.6468
 1051TIP3   OH224643   3.002   4.059   5.325  0.1078  0.2560  0.3256
 1051TIP3    H124644   2.979   4.074   5.233  0.0661 -0.3457  0.2310
 1051TIP3    H224645   3.085   4.010   5.321  0.6975  1.1949  0.6353
 1052TIP3   OH224646   5.772   2.695  14.389  0.0949  0.4287 -0.5153
 1052TIP3    H124647   5.755   2.746  14.468  0.1904  0.6886 -0.6625
 1052TIP3    H224648   5.725   2.613  14.403  3.2349 -1.2081  1.5537
 1053TIP3   OH224649   6.073   0.568   1.719 -0.4014 -0.0406  0.3760
 1053TIP3    H124650   5.997   0.520   1.687  0.0034  0.2468 -1.0857
 1053TIP3    H224651   6.110   0.610   1.641  1.5548 -0.5715  0.9634
 1054TIP3   OH224652   0.039   5.564  14.994 -1.0157 -0.0111  0.0445
 1054TIP3    H124653   0.045   5.472  15.020 -1.9299  0.1882  1.0175
 1054TIP3    H224654   0.082   5.567  14.908  0.5202 -1.0215  0.7218
 1055TIP3   OH224655   3.111   4.468  12.816  0.1634 -0.1803 -0.0319
 1055TIP3    H124656   3.095   4.448  12.908  0.9137 -1.0417 -0.0668
 1055TIP3    H224657   3.084   4.388  12.770  0.3244  0.0333 -0.4995
 1056TIP3   OH224658   3.780   2.715   2.309  0.3258  0.1220  0.8611
 1056TIP3    H124659   3.801   2.681   2.396  1.2559  2.3168  1.5670
 1056TIP3    H224660   3.746   2.803   2.325 -1.2857 -0.1153 -0.9005
 1057TIP3   OH224661   1.843   5.771  11.988 -0.0383 -0.6212  0.6818
 1057TIP3    H124662   1.786   5.785  11.913 -1.5036  0.9040  2.0007
 1057TIP3    H224663   1.866   5.679  11.984  0.9040 -0.3533 -2.2595
 1058TIP3   OH224664   0.326   1.784  16.258 -0.0771  0.3086  0.2394
 1058TIP3    H124665   0.327   1.740  16.343 -2.1874 -0.0732  0.1356
 1058TIP3    H224666   0.236   1.816  16.249  0.5993  1.9931 -1.0421
 1059TIP3   OH224667   4.676   5.929  13.794 -0.2202 -0.1031  0.5266
 1059TIP3    H124668   4.627   5.987  13.852 -0.2537 -0.4574  0.8580
 1059TIP3    H224669   4.622   5.921  13.716 -0.2574  0.2359  0.5182
 1060TIP3   OH224670   3.708   5.235   5.087 -0.3680  0.0781 -0.6201
 1060TIP3    H124671   3.800   5.216   5.067 -0.7012 -0.5170 -1.6608
 1060TIP3    H224672   3.660   5.197   5.014 -1.4333  0.5680 -0.1844
 1061TIP3   OH224673   4.659   3.368   3.519  0.2752  0.1197 -0.0282
 1061TIP3    H124674   4.726   3.315   3.562 -1.2072 -1.1285  0.8683
 1061TIP3    H224675   4.645   3.326   3.435 -0.0641 -0.2227  0.1950
 1062TIP3   OH224676   2.321   1.984  16.653 -0.6554 -0.5157  0.0538
 1062TIP3    H124677   2.397   2.040  16.671 -0.8305 -0.0326 -0.6604
 1062TIP3    H224678   2.328   1.913  16.717  0.5618 -0.6501 -0.2047
 1063TIP3   OH224679   2.186   4.482  10.985  0.1051  0.7838  0.8681
 1063TIP3    H124680   2.197   4.576  11.000  0.5224  0.7799  0.6121
 1063TIP3    H224681   2.127   4.477  10.910  0.9211  0.8680  0.2026
 1064TIP3   OH224682   4.209   0.251   4.716  0.2538  0.6010 -0.1245
 1064TIP3    H124683   4.266   0.328   4.707  2.3157 -1.0678 -2.8047
 1064TIP3    H224684   4.198   0.218   4.626 -0.4728 -2.2961  0.9154
 1065TIP3   OH224685   4.638   6.616  16.153 -0.2185  0.1766 -0.4741
 1065TIP3    H124686   4.634   6.697  16.203  2.4959  0.8364 -1.1336
 1065TIP3    H224687   4.547   6.595  16.133 -1.0307  3.0093 -0.1955
 1066TIP3   OH224688   0.977   5.013  15.488  0.0286  0.0635  0.1263
 1066TIP3    H124689   0.955   5.106  15.498 -3.3923 -0.6433  0.7511
 1066TIP3    H224690   0.980   4.979  15.578 -1.3171 -0.8434 -0.1336
 1067TIP3   OH224691   6.287   6.567   1.406  0.7494 -0.7075  0.2359
 1067TIP3    H124692   6.284   6.500   1.475  2.7827  1.2964  2.4749
 1067TIP3    H224693   6.270   6.649   1.453 -0.5548  0.5214 -2.2094
 1068TIP3   OH224694   3.227   4.564  11.759 -0.1668 -0.2567  0.4065
 1068TIP3    H124695   3.296   4.537  11.820 -0.2059 -0.1657  0.4905
 1068TIP3    H224696   3.225   4.659  11.765  0.2738 -0.2041 -0.2287
 1069TIP3   OH224697   5.865   6.695   0.203  0.8767  0.1495 -0.0859
 1069TIP3    H124698   5.955   6.703   0.173  0.9312  1.6471  0.4244
 1069TIP3    H224699   5.870   6.638   0.280  1.1970 -0.8266 -0.8129
 1070TIP3   OH224700   2.125   3.640  13.815 -0.1417 -0.4038 -0.1570
 1070TIP3    H124701   2.115   3.555  13.858 -0.2244  0.6317  1.9915
 1070TIP3    H224702   2.216   3.664  13.832 -0.0476 -0.1574 -0.9740
 1071TIP3   OH224703   5.023   5.108  16.982  0.3419 -0.5185  0.1512
 1071TIP3    H124704   5.027   5.203  16.983 -2.8341 -0.2704 -0.3830
 1071TIP3    H224705   4.991   5.084  17.069  1.4217 -1.1599  0.3920
 1072TIP3   OH224706   5.347   0.702  11.898 -1.0994  0.4061 -0.1230
 1072TIP3    H124707   5.284   0.733  11.832  0.3606  1.4997 -1.0786
 1072TIP3    H224708   5.368   0.779  11.950 -0.0796  0.2323 -0.2446
 1073TIP3   OH224709   2.576   3.427  11.140  0.1217 -0.5449  0.0847
 1073TIP3    H124710   2.624   3.393  11.215  0.9365 -0.2217 -0.2707
 1073TIP3    H224711   2.534   3.507  11.173  0.0246 -0.6990  0.3367
 1074TIP3   OH224712   6.037   3.742  11.366 -0.1055 -0.6155 -0.2086
 1074TIP3    H124713   6.066   3.755  11.276  1.3720 -0.7909  0.2099
 1074TIP3    H224714   5.975   3.814  11.382  0.2723 -0.0727 -1.0939
 1075TIP3   OH224715   6.828   3.004   4.715 -0.1746  0.5779 -0.7826
 1075TIP3    H124716   6.904   2.949   4.736 -0.4639  0.3183 -0.4101
 1075TIP3    H224717   6.866   3.091   4.699  0.1188  0.6472  0.2393
 1076TIP3   OH224718   4.751   4.863   6.805  0.1015 -0.2834 -0.8379
 1076TIP3    H124719   4.658   4.884   6.791 -0.5036 -0.4892  2.2313
 1076TIP3    H224720   4.785   4.937   6.855  1.1003 -1.0716 -0.3264
 1077TIP3   OH224721   2.694   0.352  13.771  0.2963 -0.2456  0.9946
 1077TIP3    H124722   2.668   0.287  13.836  1.0546  0.7076  2.3079
 1077TIP3    H224723   2.788   0.363  13.784  0.1827  1.1198  0.8304
 1078TIP3   OH224724   5.768   4.489  10.364 -0.1119  0.3899  0.0570
 1078TIP3    H124725   5.830   4.493  10.291 -2.7887  1.1819 -2.3555
 1078TIP3    H224726   5.707   4.561  10.347 -1.0001  0.4610  3.0071
 1079TIP3   OH224727   0.834   3.341   4.886  0.3144 -0.6644  0.3235
 1079TIP3    H124728   0.889   3.401   4.936 -1.8404  1.1687  0.6438
 1079TIP3    H224729   0.772   3.306   4.949 -0.9386 -0.1617 -0.5834
 1080TIP3   OH224730   5.729   3.191   5.323  0.0360 -0.1991  0.0457
 1080TIP3    H124731   5.739   3.167   5.231 -1.1502 -0.7882  0.0519
 1080TIP3    H224732   5.818   3.211   5.352  0.3583  0.6160 -1.3837
 1081TIP3   OH224733   0.161   5.137  13.561  0.1035 -0.1617  0.0696
 1081TIP3    H124734   0.144   5.069  13.627 -0.2752  0.2164  0.3676
 1081TIP3    H224735   0.256   5.135  13.549  0.0302 -1.1568 -0.3791
 1082TIP3   OH224736   6.235   6.692   2.346  0.1371 -0.7645  0.1036
 1082TIP3    H124737   6.301   6.652   2.402 -0.1569 -1.9782 -0.3880
 1082TIP3    H224738   6.177   6.738   2.407  2.0753  1.3723  0.4576
 1083TIP3   OH224739   3.518   0.513   2.628 -0.1516 -0.4893  0.4006
 1083TIP3    H124740   3.568   0.463   2.692 -1.0502  0.0861  1.5906
 1083TIP3    H224741   3.550   0.602   2.636  1.3448 -0.7627 -1.6129
 1084TIP3   OH224742   6.488   5.427   4.546  0.3894 -0.3734  0.2453
 1084TIP3    H124743   6.567   5.441   4.495 -0.3557  1.8354 -0.4105
 1084TIP3    H224744   6.451   5.346   4.510  1.6263 -0.7040 -0.3490
 1085TIP3   OH224745   3.836   0.067  15.323  0.0015  0.4989 -0.0247
 1085TIP3    H124746   3.773   0.059  15.394 -2.2059 -2.7762 -2.0954
 1085TIP3    H224747   3.909   0.010  15.348 -0.6829 -0.4964 -0.2768
 1086TIP3   OH224748   6.239   1.903  16.750  0.3527 -0.6466 -0.1088
 1086TIP3    H124749   6.311   1.960  16.777  0.2666  0.2668 -1.7014
 1086TIP3    H224750   6.276   1.849  16.680 -0.0885 -1.2666  0.1304
 1087TIP3   OH224751   1.567   5.628   1.721  0.6701 -0.0078  0.3876
 1087TIP3    H124752   1.561   5.719   1.750  1.2602  0.4462 -0.8586
 1087TIP3    H224753   1.477   5.597   1.721  0.2332  1.1617 -0.9403
 1088TIP3   OH224754   6.734   0.227   6.552 -0.1771  0.2265 -0.3249
 1088TIP3    H124755   6.645   0.197   6.532  0.2799 -0.9513 -0.6443
 1088TIP3    H224756   6.730   0.252   6.644 -0.7727 -0.0812 -0.2592
 1089TIP3   OH224757   3.679   4.127  10.307  0.4588 -0.0502 -0.2935
 1089TIP3    H124758   3.607   4.157  10.252  0.4464  1.4017  0.4426
 1089TIP3    H224759   3.640   4.060  10.364 -0.8400  1.9013  1.2817
 1090TIP3   OH224760   2.185   0.233  13.532  0.4703 -0.0312  0.0243
 1090TIP3    H124761   2.177   0.309  13.474 -1.2518  0.2719  0.5941
 1090TIP3    H224762   2.278   0.231  13.556  0.8034  1.1094 -1.0219
 1091TIP3   OH224763   2.782   4.996  12.237 -0.2585  0.0302 -0.0863
 1091TIP3    H124764   2.748   4.925  12.182  0.2641  0.0339 -0.4160
 1091TIP3    H224765   2.859   4.959  12.279 -1.1292 -0.2705  1.3458
 1092TIP3   OH224766   2.308   2.454   3.954 -0.3048 -0.0643  0.9673
 1092TIP3    H124767   2.399   2.473   3.979 -0.3103  0.7665  0.3727
 1092TIP3    H224768   2.264   2.438   4.038  0.4780 -0.9250  1.2338
 1093TIP3   OH224769   3.162   0.371  16.691 -0.2085 -0.0439 -0.5980
 1093TIP3    H124770   3.205   0.457  16.688  1.1782 -0.7184 -1.0467
 1093TIP3    H224771   3.071   0.391  16.713 -0.3103  1.6765 -2.2833
 1094TIP3   OH224772   0.433   2.954   2.086  0.2985  0.9580 -0.0528
 1094TIP3    H124773   0.393   3.030   2.129  0.6876  1.9436 -1.3698
 1094TIP3    H224774   0.362   2.915   2.035  0.1929  0.6516  0.3228
 1095TIP3   OH224775   5.710   1.149  11.039  0.0730 -0.1172  0.4780
 1095TIP3    H124776   5.783   1.170  11.098 -0.0152 -0.8911  0.8744
 1095TIP3    H224777   5.680   1.234  11.007  2.3394  0.1706 -1.1606
 1096TIP3   OH224778   2.229   2.224   5.793 -0.0108 -0.3006 -0.3211
 1096TIP3    H124779   2.147   2.194   5.833 -0.0780 -0.7560 -0.7901
 1096TIP3    H224780   2.298   2.176   5.839  0.1690  1.4511  1.3861
 1097TIP3   OH224781   2.575   0.389  11.105 -0.1238 -0.5347  0.1245
 1097TIP3    H124782   2.494   0.353  11.071  0.0956 -0.3284 -0.6432
 1097TIP3    H224783   2.640   0.372  11.036  0.1564  0.6069  0.0810
 1098TIP3   OH224784   0.993   5.228   3.905 -0.1412 -0.5729 -0.7208
 1098TIP3    H124785   0.973   5.224   3.999  1.2800 -0.5836 -0.3941
 1098TIP3    H224786   0.928   5.287   3.869 -0.7530 -0.6252  0.2633
 1099TIP3   OH224787   5.121   0.748   2.845 -0.3719  0.4307 -0.3190
 1099TIP3    H124788   5.162   0.834   2.842 -0.6909  0.6219  0.5892
 1099TIP3    H224789   5.190   0.687   2.817 -0.3636  1.0372 -1.6994
 1100TIP3   OH224790   1.325   2.469  11.874  0.2342  0.1715  0.3650
 1100TIP3    H124791   1.340   2.540  11.811  0.4021 -0.7621 -0.6893
 1100TIP3    H224792   1.292   2.397  11.821 -0.3894 -0.3944  1.4896
 1101TIP3   OH224793   4.664   4.557   1.556  0.5990 -0.0036  0.0323
 1101TIP3    H124794   4.583   4.600   1.582 -1.3075 -3.1982 -0.0138
 1101TIP3    H224795   4.710   4.542   1.638  0.1082 -0.0305  0.3073
 1102TIP3   OH224796   3.175   0.382   0.870  0.1123  0.3088 -0.0232
 1102TIP3    H124797   3.155   0.438   0.795 -0.5738  1.2151  0.8079
 1102TIP3    H224798   3.204   0.442   0.938 -2.4006 -0.0495  1.5122
 1103TIP3   OH224799   3.833   5.492   1.301  0.8281 -0.1627  0.0687
 1103TIP3    H124800   3.825   5.554   1.228 -0.8437  0.1618  0.4919
 1103TIP3    H224801   3.911   5.521   1.349  0.7599  0.8725 -0.4276
 1104TIP3   OH224802   4.171   1.014   2.529 -0.1763 -0.1155 -0.4022
 1104TIP3    H124803   4.141   0.947   2.467  1.6843 -1.1798 -0.2306
 1104TIP3    H224804   4.123   0.995   2.609  0.2279 -1.1820 -0.3999
 1105TIP3   OH224805   4.646   1.866  14.286  0.1403  0.1492  0.3766
 1105TIP3    H124806   4.627   1.917  14.208  0.0672 -0.8649 -0.2780
 1105TIP3    H224807   4.579   1.798  14.287 -2.9405  2.7755  3.8615
 1106TIP3   OH224808   4.236   2.932   3.432  0.4628 -0.2485  0.0852
 1106TIP3    H124809   4.233   2.880   3.352  2.1315  2.3190 -1.7962
 1106TIP3    H224810   4.146   2.961   3.446  0.4832  1.1662 -2.2917
 1107TIP3   OH224811   5.875   4.830   3.792 -0.3183 -0.3319  0.2072
 1107TIP3    H124812   5.865   4.741   3.823 -2.4079 -0.8453 -1.6475
 1107TIP3    H224813   5.785   4.863   3.783  0.2550  0.9104 -1.8386
 1108TIP3   OH224814   2.416   1.198   5.948  0.2862 -0.0708 -0.2554
 1108TIP3    H124815   2.482   1.143   5.989 -0.3686 -0.7681 -0.1026
 1108TIP3    H224816   2.333   1.167   5.985 -0.0825  1.1756  0.0022
 1109TIP3   OH224817   3.067   0.444  13.116 -0.2945  0.1801  0.2097
 1109TIP3    H124818   2.995   0.383  13.099  0.9514 -1.2909  0.0291
 1109TIP3    H224819   3.070   0.500  13.038 -0.0520 -0.9803 -0.6340
 1110TIP3   OH224820   2.779   1.044   2.609 -0.6720 -0.1153  0.1550
 1110TIP3    H124821   2.801   0.967   2.662 -0.4193  0.6377  1.1620
 1110TIP3    H224822   2.765   1.008   2.521 -1.2884 -1.4171  0.7506
 1111TIP3   OH224823   4.390   6.801  13.190  0.5995  0.8637  0.4454
 1111TIP3    H124824   4.433   6.870  13.240  2.8787 -0.0113 -0.1890
 1111TIP3    H224825   4.438   6.797  13.108 -0.7245 -0.2131 -0.3260
 1112TIP3   OH224826   5.284   4.084   6.106  0.3242 -0.4171  0.7325
 1112TIP3    H124827   5.230   4.161   6.089  0.0271 -0.8774 -0.4949
 1112TIP3    H224828   5.289   4.079   6.202  0.1297  0.9607  0.8354
 1113TIP3   OH224829   6.120   3.621   3.968  0.3775 -0.0674 -0.3300
 1113TIP3    H124830   6.202   3.636   3.922  0.3371  3.0211  0.3837
 1113TIP3    H224831   6.054   3.667   3.915 -0.4108 -0.1860  0.5184
 1114TIP3   OH224832   4.743   1.027   1.681  0.4506  0.3189  0.3009
 1114TIP3    H124833   4.836   1.015   1.660  0.4795  0.2370  0.4746
 1114TIP3    H224834   4.740   1.110   1.729  0.5683 -0.1699  1.1656
 1115TIP3   OH224835   6.299   4.226  12.836  0.4939 -0.4130  0.6905
 1115TIP3    H124836   6.261   4.249  12.920 -2.0630  0.6738 -0.6318
 1115TIP3    H224837   6.330   4.136  12.847  0.0968 -0.3506  2.6992
 1116TIP3   OH224838   5.016   0.570  16.587  0.5214  0.0479  0.7450
 1116TIP3    H124839   5.077   0.510  16.629  1.2252 -1.0978 -1.7512
 1116TIP3    H224840   5.039   0.656  16.622 -0.1878 -0.9572  4.0084
 1117TIP3   OH224841   1.306   0.409  11.849  0.2069 -0.5666 -0.1227
 1117TIP3    H124842   1.353   0.483  11.811  0.4093  0.0416  1.2541
 1117TIP3    H224843   1.251   0.448  11.917  0.4307 -1.6765  0.7297
 1118TIP3   OH224844   2.711   1.784   2.233 -0.2904  0.1682  0.1942
 1118TIP3    H124845   2.746   1.826   2.155  0.5904 -3.0481 -1.3336
 1118TIP3    H224846   2.780   1.793   2.298  0.8743 -0.7760 -0.8430
 1119TIP3   OH224847   4.912   1.504  12.964 -0.2155  0.1612  0.0528
 1119TIP3    H124848   4.914   1.526  13.057  0.1443 -1.5101  0.4599
 1119TIP3    H224849   4.823   1.474  12.948 -0.3112  0.5591 -0.1892
 1120TIP3   OH224850   4.245   2.801   3.919 -0.6008 -0.2034 -0.5956
 1120TIP3    H124851   4.324   2.748   3.910 -0.7195 -0.4750 -0.0499
 1120TIP3    H224852   4.253   2.867   3.850 -1.4845 -2.1957 -2.7300
 1121TIP3   OH224853   1.908   5.862   5.274 -0.2640  0.1124  0.3948
 1121TIP3    H124854   1.894   5.799   5.203 -0.2525 -0.2798  0.7387
 1121TIP3    H224855   1.831   5.920   5.271  0.5225  1.1487 -1.0104
 1122TIP3   OH224856   2.250   1.525   2.422  0.3774 -0.4494 -0.0889
 1122TIP3    H124857   2.270   1.571   2.504  1.2615  0.0175 -0.5576
 1122TIP3    H224858   2.316   1.556   2.360 -0.8904 -0.0226 -1.2744
 1123TIP3   OH224859   1.407   3.791  11.210 -0.2132 -0.6587 -0.3849
 1123TIP3    H124860   1.444   3.750  11.132 -0.8115  0.1483 -1.1272
 1123TIP3    H224861   1.329   3.740  11.230  0.0865 -1.0258 -0.1614
 1124TIP3   OH224862   2.612   0.555   4.043  0.4035 -0.1177  0.1972
 1124TIP3    H124863   2.532   0.522   4.083  2.1378 -2.5058  1.9590
 1124TIP3    H224864   2.671   0.480   4.041  2.4752  1.4110 -1.5157
 1125TIP3   OH224865   1.977   0.828  15.263  0.5933  0.2503  0.6388
 1125TIP3    H124866   1.915   0.901  15.275 -0.0513 -0.0409 -0.7209
 1125TIP3    H224867   2.039   0.838  15.335  0.7728  2.4083  0.2593
 1126TIP3   OH224868   3.150   2.876   0.140 -0.3563 -0.0998 -0.2128
 1126TIP3    H124869   3.117   2.954   0.185 -1.4592 -0.9713  0.5435
 1126TIP3    H224870   3.131   2.804   0.199  1.7176 -0.8450 -0.3695
 1127TIP3   OH224871   2.156   2.257  16.680  0.1247 -0.5160 -0.4610
 1127TIP3    H124872   2.191   2.169  16.688  0.6276 -0.2262  0.7169
 1127TIP3    H224873   2.067   2.251  16.716  0.8640 -0.1527  1.6047
 1128TIP3   OH224874   2.052   5.397  11.153  0.2414  0.9542 -0.0440
 1128TIP3    H124875   2.136   5.420  11.192  0.7883  0.8653 -1.1186
 1128TIP3    H224876   2.076   5.357  11.069 -0.9267  2.3231 -1.0605
 1129TIP3   OH224877   6.245   3.191   2.924 -0.2433 -0.9980 -0.1473
 1129TIP3    H124878   6.254   3.235   2.839  1.3279 -1.9254 -0.5077
 1129TIP3    H224879   6.156   3.212   2.952  0.0680  1.5365 -0.7626
 1130TIP3   OH224880   4.249   2.465   5.490 -0.1194 -0.6558  0.1358
 1130TIP3    H124881   4.335   2.427   5.476 -0.5439 -1.5128 -0.2007
 1130TIP3    H224882   4.243   2.476   5.585 -0.0545 -1.6048  0.2605
 1131TIP3   OH224883   2.165   0.915  16.222 -0.5246 -0.5494  0.3921
 1131TIP3    H124884   2.086   0.861  16.218 -1.3311  0.5836  0.5580
 1131TIP3    H224885   2.232   0.862  16.179 -1.1203 -1.9331  1.0955
 1132TIP3   OH224886   3.000   0.435  13.562  0.1562  0.3652  0.3817
 1132TIP3    H124887   3.026   0.393  13.644  0.3511 -1.1456 -0.4155
 1132TIP3    H224888   2.913   0.400  13.543  1.4319 -1.9773 -1.7186
 1133TIP3   OH224889   2.255   3.968  15.810 -0.0661  0.4621  0.2187
 1133TIP3    H124890   2.281   3.889  15.763  1.1406  1.5713 -1.0916
 1133TIP3    H224891   2.191   3.938  15.874  0.2522 -1.5410 -0.3251
 1134TIP3   OH224892   1.010   3.373  12.979  0.0132  0.7400 -0.2729
 1134TIP3    H124893   1.094   3.373  13.025  0.8431 -4.3444 -1.2588
 1134TIP3    H224894   1.031   3.403  12.891  0.2507  1.7491  0.1110
 1135TIP3   OH224895   2.835   2.608   3.237  0.4717 -0.0109  0.1234
 1135TIP3    H124896   2.795   2.574   3.318  2.6689  0.1196  1.3547
 1135TIP3    H224897   2.829   2.703   3.246 -0.0254 -0.0020 -0.2820
 1136TIP3   OH224898   1.307   4.611  15.879 -0.0176  0.3808  0.0974
 1136TIP3    H124899   1.303   4.611  15.975 -0.8680  0.7723  0.0733
 1136TIP3    H224900   1.366   4.684  15.858  1.0547 -0.3948  0.3345
 1137TIP3   OH224901   0.020   0.464  14.923  0.3531 -0.0556 -0.7692
 1137TIP3    H124902   0.028   0.542  14.869 -3.9824  0.5166 -0.9461
 1137TIP3    H224903   0.064   0.486  15.005  0.8217  1.8216 -1.4904
 1138TIP3   OH224904   3.421   2.882  11.551 -0.0598 -0.5010  0.9568
 1138TIP3    H124905   3.401   2.974  11.538 -1.7218 -1.2250 -3.3370
 1138TIP3    H224906   3.513   2.880  11.577 -0.5014  2.3171  3.2447
 1139TIP3   OH224907   3.451   1.765  12.885 -0.0533  0.2844 -0.5636
 1139TIP3    H124908   3.359   1.791  12.893  0.7727  3.1884  1.0289
 1139TIP3    H224909   3.471   1.721  12.967 -0.3082 -1.6853 -1.4970
 1140TIP3   OH224910   3.474   3.624   3.773 -0.4346 -0.1426 -0.4395
 1140TIP3    H124911   3.512   3.644   3.858  1.6775  0.7600 -1.5250
 1140TIP3    H224912   3.466   3.529   3.772 -0.9644 -0.1232  0.9488
 1141TIP3   OH224913   5.908   6.261  11.879  0.1489  0.3590  0.2579
 1141TIP3    H124914   5.885   6.309  11.800  1.1538 -1.0338 -0.9248
 1141TIP3    H224915   6.003   6.275  11.889  0.0877  0.2690  1.0599
 1142TIP3   OH224916   3.382   4.875   5.049  0.0530  0.0870  0.6991
 1142TIP3    H124917   3.352   4.921   4.971  0.9257  1.5867  1.2169
 1142TIP3    H224918   3.343   4.787   5.041 -1.2071  0.7209 -0.5794
 1143TIP3   OH224919   5.930   6.376  14.369  0.1452 -0.1619  0.5671
 1143TIP3    H124920   5.928   6.338  14.281 -0.1275 -1.9329  1.2969
 1143TIP3    H224921   5.842   6.363  14.403  0.1136  0.9511  0.9290
 1144TIP3   OH224922   2.868   4.862   4.778 -0.1553  0.0192 -0.0553
 1144TIP3    H124923   2.870   4.887   4.871 -0.1256 -1.9971  0.5300
 1144TIP3    H224924   2.945   4.904   4.741  0.0091  0.6023  0.9028
 1145TIP3   OH224925   6.057   6.400   0.198 -0.2486 -0.5386 -0.1723
 1145TIP3    H124926   5.979   6.411   0.252 -0.6674  0.9629 -1.0165
 1145TIP3    H224927   6.128   6.386   0.260 -0.7897  0.7041  0.7550
 1146TIP3   OH224928   4.314   5.752   4.997 -0.0609 -0.5511 -0.8645
 1146TIP3    H124929   4.399   5.793   5.012 -0.8138  0.8201 -0.1699
 1146TIP3    H224930   4.257   5.789   5.064 -1.0268 -2.0531 -0.8063
 1147TIP3   OH224931   2.291   2.331   4.795  0.1607  0.3576  0.1946
 1147TIP3    H124932   2.364   2.270   4.784 -1.2838 -1.6503  1.0131
 1147TIP3    H224933   2.294   2.387   4.717  1.3296 -1.0165 -0.8035
 1148TIP3   OH224934   6.039   0.428   3.011  1.1513 -0.1061 -0.6969
 1148TIP3    H124935   5.968   0.445   2.949 -0.4316  2.9764  1.6675
 1148TIP3    H224936   6.113   0.401   2.957 -0.6833  0.3906 -3.6662
 1149TIP3   OH224937   4.700   4.620   3.158  0.1048 -0.6164  1.1734
 1149TIP3    H124938   4.791   4.651   3.158 -0.5506  1.4839  1.7203
 1149TIP3    H224939   4.661   4.658   3.079  0.4834 -4.3888 -1.0769
 1150TIP3   OH224940   4.520   0.174  13.979 -0.0649  0.7331  0.5823
 1150TIP3    H124941   4.540   0.255  14.026  0.8160  1.9916 -1.7652
 1150TIP3    H224942   4.605   0.131  13.968 -0.3522  0.1193  0.7218
 1151TIP3   OH224943   2.978   1.661   3.680  0.3191  0.3333  0.1023
 1151TIP3    H124944   2.988   1.653   3.775  1.0617 -1.2188 -0.0742
 1151TIP3    H224945   2.893   1.622   3.661  0.5414 -0.1310  0.0493
 1152TIP3   OH224946   6.189   6.648  15.971  0.1386  0.0911  0.3394
 1152TIP3    H124947   6.211   6.722  16.029 -0.2510  0.7372 -0.3173
 1152TIP3    H224948   6.256   6.651  15.903 -0.4296  0.4396 -0.2148
 1153TIP3   OH224949   3.610   2.569  12.255  0.6332 -0.3871 -0.1130
 1153TIP3    H124950   3.642   2.618  12.331 -0.4540  0.3186 -0.0924
 1153TIP3    H224951   3.684   2.514  12.229  1.6853  0.8302  0.2241
 1154TIP3   OH224952   6.027   3.187   0.130  0.0989  0.0086 -0.2880
 1154TIP3    H124953   5.951   3.241   0.149 -0.8540 -1.0615 -0.9474
 1154TIP3    H224954   6.019   3.112   0.189  1.3164  0.4709  0.5059
 1155TIP3   OH224955   1.231   3.406   3.491  0.1594  0.0745  0.1446
 1155TIP3    H124956   1.255   3.468   3.422 -1.6411 -0.1814 -0.7769
 1155TIP3    H224957   1.241   3.320   3.451  0.0508 -0.1177  0.5277
 1156TIP3   OH224958   1.823   2.601   0.951 -0.8987 -0.2023  0.2104
 1156TIP3    H124959   1.868   2.534   0.901  0.8885 -0.8551  2.4893
 1156TIP3    H224960   1.743   2.558   0.983 -1.7328  0.0353 -1.4834
 1157TIP3   OH224961   2.911   5.178  10.759  0.0598 -0.1197  0.1190
 1157TIP3    H124962   2.955   5.256  10.726 -1.1855 -0.2437 -1.9759
 1157TIP3    H224963   2.821   5.204  10.774  0.0990 -0.6480  1.4389
 1158TIP3   OH224964   0.127   5.128   3.955  0.2546  0.0477 -0.8430
 1158TIP3    H124965   0.140   5.052   3.898  2.1147 -1.6895  1.6767
 1158TIP3    H224966   0.057   5.101   4.015  0.1538  0.7767 -0.6248
 1159TIP3   OH224967   1.477   1.339   4.866 -0.4859 -0.6362  1.3797
 1159TIP3    H124968   1.393   1.293   4.871 -0.5906 -0.4291  1.5114
 1159TIP3    H224969   1.455   1.431   4.878 -0.4127 -0.4127 -0.0004
 1160TIP3   OH224970   4.722   3.668   1.975  0.5072 -0.5365 -0.7172
 1160TIP3    H124971   4.712   3.702   2.064  0.3059  1.1982 -1.3556
 1160TIP3    H224972   4.800   3.713   1.941 -0.1155 -0.2185 -1.8029
 1161TIP3   OH224973   4.380   3.971   2.009  0.0759  0.4638 -0.3860
 1161TIP3    H124974   4.466   4.014   2.014 -1.0427  2.6838  0.9672
 1161TIP3    H224975   4.320   4.040   1.980 -1.6011 -0.4526  0.7344
 1162TIP3   OH224976   6.598   2.107   4.301 -0.2805 -0.0313  0.4708
 1162TIP3    H124977   6.651   2.071   4.230 -0.6118  1.3806 -0.5314
 1162TIP3    H224978   6.596   2.038   4.367 -0.7319 -1.7706 -1.2714
 1163TIP3   OH224979   0.233   3.471   4.435  0.0499  0.1370  0.4601
 1163TIP3    H124980   0.177   3.512   4.370 -0.6879 -0.1597  0.8869
 1163TIP3    H224981   0.311   3.526   4.439 -0.3363  0.7167  0.0582
 1164TIP3   OH224982   6.037   1.123   1.079  0.4608  0.3531  1.1163
 1164TIP3    H124983   6.021   1.183   1.007  1.0805 -1.2562 -0.4243
 1164TIP3    H224984   6.006   1.038   1.048  2.1127 -0.6933  2.1418
 1165TIP3   OH224985   4.572   5.974   6.807  0.2111  0.2560 -0.2652
 1165TIP3    H124986   4.561   5.969   6.712  0.9510 -0.1492 -0.3407
 1165TIP3    H224987   4.532   6.057   6.832 -1.3922 -0.3602 -0.7144
 1166TIP3   OH224988   5.616   0.714   1.314  0.1863 -0.2932  0.4063
 1166TIP3    H124989   5.604   0.803   1.346 -1.0909 -1.0451  2.2422
 1166TIP3    H224990   5.649   0.666   1.391  0.2932 -1.5245 -0.3838
 1167TIP3   OH224991   4.346   3.288  12.784 -0.3783  0.3755  0.3312
 1167TIP3    H124992   4.417   3.332  12.831 -0.0430  0.6862 -0.4481
 1167TIP3    H224993   4.362   3.309  12.692  0.6739 -2.5527 -0.2901
 1168TIP3   OH224994   0.374   0.761  14.181 -0.0597  0.1326 -0.0729
 1168TIP3    H124995   0.338   0.811  14.255  0.0563 -0.7984  0.6430
 1168TIP3    H224996   0.468   0.769  14.191 -0.0447  0.0535 -0.1548
 1169TIP3   OH224997   0.922   0.457   4.900 -0.4079  0.1019 -0.0354
 1169TIP3    H124998   0.933   0.383   4.959 -2.8570  0.3769  0.9088
 1169TIP3    H224999   0.884   0.419   4.821 -0.3440  0.1670 -0.0975
 1170TIP3   OH225000   2.741   0.530  11.523 -0.5114 -0.3563 -0.0570
 1170TIP3    H125001   2.729   0.468  11.451 -3.4732  1.1126 -1.0066
 1170TIP3    H225002   2.663   0.585  11.520  1.2986  2.5497  1.6077
 1171TIP3   OH225003   4.501   0.821   0.705  0.2203 -0.9459 -0.0203
 1171TIP3    H125004   4.504   0.908   0.665  0.6506 -1.1759 -0.4941
 1171TIP3    H225005   4.578   0.818   0.761  0.9723 -1.5086 -1.0442
 1172TIP3   OH225006   6.374   5.982   5.350 -0.0948  0.0107  0.2342
 1172TIP3    H125007   6.411   5.896   5.332 -1.1299 -0.3381 -0.2916
 1172TIP3    H225008   6.447   6.043   5.337  1.2372 -0.9156  2.6177
 1173TIP3   OH225009   5.123   0.832  13.082 -0.2356  0.1389 -0.1034
 1173TIP3    H125010   5.115   0.909  13.026  1.1792  1.8076  1.8301
 1173TIP3    H225011   5.181   0.773  13.034 -0.5522  0.6929 -1.1928
 1174TIP3   OH225012   5.194   2.503  15.556  0.0986  0.1990  0.2638
 1174TIP3    H125013   5.241   2.585  15.543  0.0853 -0.0811 -1.8658
 1174TIP3    H225014   5.113   2.528  15.599 -0.8085  1.6313 -2.1032
 1175TIP3   OH225015   5.045   0.313  13.791  0.3059 -0.3996 -0.3401
 1175TIP3    H125016   5.026   0.250  13.721  1.8951 -0.5852 -0.6390
 1175TIP3    H225017   5.140   0.320  13.791  0.1892  1.5687  0.1041
 1176TIP3   OH225018   4.201   2.102   1.556 -0.2343 -0.0165 -0.1262
 1176TIP3    H125019   4.218   2.008   1.568 -0.0902  0.1048  0.6624
 1176TIP3    H225020   4.153   2.128   1.635  2.9633  1.3632  1.5590
 1177TIP3   OH225021   4.239   5.456   3.630  0.4021  0.0251 -0.5134
 1177TIP3    H125022   4.308   5.395   3.605  0.9374  0.8776 -1.1760
 1177TIP3    H225023   4.261   5.481   3.720 -0.4794 -1.6164  0.2032
 1178TIP3   OH225024   5.177   0.471  16.816 -0.3477  0.3628 -0.1794
 1178TIP3    H125025   5.113   0.531  16.855 -2.3380 -2.5241  1.3851
 1178TIP3    H225026   5.258   0.489  16.863 -1.1123  1.2631  0.8455
 1179TIP3   OH225027   2.868   0.185   1.927  0.0801  0.1203 -0.0587
 1179TIP3    H125028   2.964   0.181   1.930  0.0361 -0.6406  0.5944
 1179TIP3    H225029   2.849   0.228   1.843  0.9845 -0.1346 -0.4115
 1180TIP3   OH225030   4.174   5.381  11.107 -0.0504 -0.0727  0.3930
 1180TIP3    H125031   4.081   5.380  11.084 -0.2821 -1.8840  1.2203
 1180TIP3    H225032   4.216   5.328  11.040  0.8634  2.6870 -1.4147
 1181TIP3   OH225033   2.877   0.131   5.179 -0.3077  0.0688  0.2502
 1181TIP3    H125034   2.801   0.166   5.226 -1.1178 -1.3169  0.0131
 1181TIP3    H225035   2.941   0.112   5.248 -0.3524  0.7818  0.4986
 1182TIP3   OH225036   0.127   1.982  16.167 -0.3766  0.1934 -0.6482
 1182TIP3    H125037   0.146   1.963  16.075  0.2666 -0.6972 -0.3600
 1182TIP3    H225038   0.032   1.983  16.173 -0.4524  1.8811 -1.6150
 1183TIP3   OH225039   5.693   1.023  14.548  0.2391  0.0578 -0.1943
 1183TIP3    H125040   5.784   0.995  14.560  0.2173  0.2983  0.5402
 1183TIP3    H225041   5.644   0.941  14.545  0.2218 -0.0429  1.5965
 1184TIP3   OH225042   1.118   4.816  11.948 -0.4111  0.1277 -0.7300
 1184TIP3    H125043   1.154   4.822  12.036 -1.5053  2.7585 -0.3608
 1184TIP3    H225044   1.127   4.723  11.924  0.7473 -0.4793  1.7476
 1185TIP3   OH225045   1.154   1.818  11.534 -0.3679  0.7080  0.4110
 1185TIP3    H125046   1.169   1.770  11.453 -0.0779  1.7986 -0.2045
 1185TIP3    H225047   1.131   1.751  11.598  1.5911 -0.4441 -0.0030
 1186TIP3   OH225048   0.943   2.361  15.210  0.3674 -0.0327  0.1098
 1186TIP3    H125049   0.917   2.386  15.299 -0.3696 -0.1565 -0.0625
 1186TIP3    H225050   0.869   2.388  15.155  1.3034  1.1189 -0.6362
 1187TIP3   OH225051   0.443   5.752  14.996  0.9715 -0.3724 -0.5059
 1187TIP3    H125052   0.531   5.774  14.964  1.5310  1.0882  1.8628
 1187TIP3    H225053   0.419   5.825  15.053 -1.2269 -1.4067 -0.0222
 1188TIP3   OH225054   5.060   5.540  14.354  0.2768 -0.0745  0.4906
 1188TIP3    H125055   5.036   5.454  14.320 -0.6409  0.9437 -1.5658
 1188TIP3    H225056   5.152   5.551  14.328  0.2504 -0.2421  0.3237
 1189TIP3   OH225057   1.072   3.094  13.975 -0.0428 -0.0553  0.3133
 1189TIP3    H125058   1.014   3.152  13.924  0.5707 -0.0571 -0.3941
 1189TIP3    H225059   1.018   3.018  13.994 -0.4813  0.2256  0.2219
 1190TIP3   OH225060   3.380   0.066   5.356 -0.3434  0.4490  0.4186
 1190TIP3    H125061   3.434  -0.013   5.359  0.3943  0.8865 -0.6577
 1190TIP3    H225062   3.311   0.050   5.421 -0.5902 -1.3455 -0.2286
 1191TIP3   OH225063   4.229   6.129  15.712 -0.0733  0.4865 -0.0265
 1191TIP3    H125064   4.167   6.141  15.784  2.3884  1.1019  2.1551
 1191TIP3    H225065   4.302   6.082  15.751  1.4193  0.9306 -2.1227
 1192TIP3   OH225066   0.270   2.104   5.785 -0.8014  0.1876  0.1548
 1192TIP3    H125067   0.246   2.196   5.790  1.2617  0.8792 -1.1991
 1192TIP3    H225068   0.202   2.063   5.732 -1.4620  1.0508  0.3236
 1193TIP3   OH225069   4.768   3.374   1.307 -0.0407 -0.3938  0.5791
 1193TIP3    H125070   4.674   3.375   1.294  0.0264 -0.8670 -0.0108
 1193TIP3    H225071   4.781   3.405   1.396 -0.5464  3.6380 -0.5305
 1194TIP3   OH225072   0.816   4.618  15.010  0.0608  0.0311 -0.6376
 1194TIP3    H125073   0.907   4.596  14.987 -0.1665 -1.8941  0.1190
 1194TIP3    H225074   0.801   4.574  15.093 -1.3561  0.9484 -0.3797
 1195TIP3   OH225075   2.858   4.947   0.754 -0.1905 -0.0335  0.2217
 1195TIP3    H125076   2.927   5.011   0.737 -1.4682  1.1955 -0.6111
 1195TIP3    H225077   2.901   4.877   0.803  0.9846  2.0936  2.4348
 1196TIP3   OH225078   5.014   2.565  13.207 -0.4058 -0.1216 -0.2480
 1196TIP3    H125079   4.963   2.513  13.270 -0.5060  1.6086  1.1927
 1196TIP3    H225080   5.089   2.597  13.257 -0.6138  1.5159 -0.9205
 1197TIP3   OH225081   0.741   3.573  14.709  0.2458  0.0628 -0.1074
 1197TIP3    H125082   0.646   3.562  14.699  0.2798  0.4161 -0.9520
 1197TIP3    H225083   0.758   3.662  14.679  0.6996  0.4247  1.1980
 1198TIP3   OH225084   6.176   6.430  14.610 -0.0429 -0.6132 -0.6012
 1198TIP3    H125085   6.221   6.403  14.690  0.7149 -2.4240 -1.5858
 1198TIP3    H225086   6.211   6.517  14.592 -0.7131  0.1279  1.3474
 1199TIP3   OH225087   4.932   2.053  12.909 -0.0446 -0.5152  0.4622
 1199TIP3    H125088   4.842   2.050  12.940 -0.0324 -0.7846  0.4750
 1199TIP3    H225089   4.941   2.140  12.870 -0.0279 -0.1362  1.2912
 1200TIP3   OH225090   4.581   0.681  12.061 -0.0294  0.5385 -0.4511
 1200TIP3    H125091   4.582   0.759  12.005 -0.9276 -0.1536 -1.4787
 1200TIP3    H225092   4.672   0.651  12.062 -0.0009  0.5005 -1.6772
 1201TIP3   OH225093   6.457   2.297   5.861  0.1046  0.0388 -0.3560
 1201TIP3    H125094   6.404   2.344   5.925 -1.4638 -0.2937 -1.3480
 1201TIP3    H225095   6.529   2.357   5.841  0.2296  0.4334  1.1537
 1202TIP3   OH225096   2.461   6.819   2.546 -0.2884  0.0405  0.0222
 1202TIP3    H125097   2.418   6.892   2.502 -0.6955 -1.4119 -2.1740
 1202TIP3    H225098   2.509   6.774   2.476  0.5252 -1.3836  1.4277
 1203TIP3   OH225099   5.035   6.544   5.760  0.3406 -0.2154  0.1501
 1203TIP3    H125100   5.077   6.627   5.781 -0.4499 -0.3496  2.5211
 1203TIP3    H225101   4.994   6.559   5.675  2.1567  1.0192 -0.5879
 1204TIP3   OH225102   6.421   0.668   2.149 -0.1983 -0.0275 -0.4990
 1204TIP3    H125103   6.478   0.687   2.075 -0.4330  1.2230 -0.3813
 1204TIP3    H225104   6.432   0.743   2.208 -2.3579  0.5162 -0.7238
 1205TIP3   OH225105   2.063   0.583  14.327 -0.4200 -0.1418  0.7163
 1205TIP3    H125106   1.993   0.525  14.356 -1.6702  0.8610 -0.1853
 1205TIP3    H225107   2.055   0.584  14.232 -0.5381  1.6362  0.7230
 1206TIP3   OH225108   3.028   5.383  10.647  0.6013 -0.6127  0.5854
 1206TIP3    H125109   3.069   5.467  10.628  0.9611 -0.8370  0.3298
 1206TIP3    H225110   3.081   5.320  10.598 -0.5980 -0.8207 -0.5158
 1207TIP3   OH225111   0.483   4.026   4.082  0.6527 -0.0215 -0.3213
 1207TIP3    H125112   0.558   3.982   4.123  1.1491  0.2505 -0.9345
 1207TIP3    H225113   0.407   3.977   4.114  1.2502 -2.1681 -1.9878
 1208TIP3   OH225114   4.939   1.862  11.864  0.4305  0.1111  0.0250
 1208TIP3    H125115   4.877   1.843  11.934  1.8580  0.1805  1.3442
 1208TIP3    H225116   4.884   1.885  11.789 -1.1208  1.3292  1.4689
 1209TIP3   OH225117   5.659   3.205  14.960 -0.3159  0.0540  0.1072
 1209TIP3    H125118   5.571   3.233  14.984 -0.1941 -0.3598  1.0896
 1209TIP3    H225119   5.655   3.109  14.959  0.2697  0.0015  0.8473
 1210TIP3   OH225120   4.354   4.587   5.675 -1.0148  0.0307 -0.3986
 1210TIP3    H125121   4.356   4.683   5.666  2.7171  0.1104 -0.0737
 1210TIP3    H225122   4.332   4.572   5.767 -2.4463  0.4964 -0.6405
 1211TIP3   OH225123   0.660   2.611  11.518 -0.2131 -0.0661  0.0749
 1211TIP3    H125124   0.730   2.592  11.456  0.5852  0.7176  0.6992
 1211TIP3    H225125   0.589   2.645  11.464 -0.0082 -0.5930 -0.5387
 1212TIP3   OH225126   2.229   2.525   0.706 -0.5746 -0.5457  0.6245
 1212TIP3    H125127   2.253   2.495   0.618  1.2424 -1.2505  1.3022
 1212TIP3    H225128   2.193   2.613   0.693  2.0335  0.4305 -0.6194
 1213TIP3   OH225129   3.666   2.873   5.335 -0.3241 -0.6881  0.3371
 1213TIP3    H125130   3.598   2.832   5.389 -2.0906  0.3372 -1.0023
 1213TIP3    H225131   3.647   2.844   5.246 -0.3708  1.3211 -0.3714
 1214TIP3   OH225132   5.716   1.160  16.774  0.7053 -0.0167  0.7017
 1214TIP3    H125133   5.750   1.248  16.757 -1.2115  1.4469  3.6536
 1214TIP3    H225134   5.638   1.153  16.718  1.2627 -0.1531 -0.0713
 1215TIP3   OH225135   6.395   3.261   0.953  1.0018  0.0157 -0.0842
 1215TIP3    H125136   6.447   3.183   0.934  1.2329 -0.1379  1.1346
 1215TIP3    H225137   6.378   3.256   1.047  1.3202  1.6237  0.0795
 1216TIP3   OH225138   4.509   0.861  13.010  0.1633  0.1730 -0.2635
 1216TIP3    H125139   4.415   0.846  13.006  0.0634  0.2668  1.3376
 1216TIP3    H225140   4.539   0.849  12.920 -0.9664 -2.5334 -0.3569
 1217TIP3   OH225141   3.448   1.500   0.217  0.4892  0.0897  0.1045
 1217TIP3    H125142   3.483   1.514   0.305 -2.5255  0.5518  1.3595
 1217TIP3    H225143   3.410   1.585   0.193 -1.0800 -0.7217 -0.4408
 1218TIP3   OH225144   3.090   0.913   2.523  0.0466  0.4544 -0.2853
 1218TIP3    H125145   3.093   0.834   2.577 -0.2845  1.5546  1.4252
 1218TIP3    H225146   3.073   0.881   2.435  1.3570 -1.4869  0.0885
 1219TIP3   OH225147   3.635   4.618  16.706 -0.1678  0.5543 -0.0748
 1219TIP3    H125148   3.606   4.642  16.618  2.0965  0.9530 -0.7984
 1219TIP3    H225149   3.681   4.535  16.694  0.5273  0.8241  0.6427
 1220TIP3   OH225150   2.633   1.536   1.409  0.1444  0.1102 -0.4620
 1220TIP3    H125151   2.664   1.495   1.490  1.0611 -0.3688 -1.0372
 1220TIP3    H225152   2.671   1.482   1.340  0.6564  1.4296 -1.2364
 1221TIP3   OH225153   4.297   1.997   0.635  0.7700 -0.1083  0.1125
 1221TIP3    H125154   4.221   2.034   0.679  0.4706 -0.8953  0.2743
 1221TIP3    H225155   4.270   1.990   0.543  0.1753 -1.5506  0.3791
 1222TIP3   OH225156   4.058   3.957   4.256  0.3485 -0.1479 -0.2307
 1222TIP3    H125157   4.016   4.015   4.192  0.6695  1.1205  0.6756
 1222TIP3    H225158   4.047   4.002   4.340  2.7025 -0.1732  0.1752
 1223TIP3   OH225159   5.819   2.446  14.032 -0.1342 -0.4445 -0.7536
 1223TIP3    H125160   5.853   2.457  14.120 -0.7391  1.1220 -0.7004
 1223TIP3    H225161   5.742   2.390  14.043 -1.0002  0.8476 -0.0973
 1224TIP3   OH225162   4.352   2.886   4.811 -0.3874 -0.2469 -0.1344
 1224TIP3    H125163   4.284   2.951   4.796  0.3743  0.2666 -1.5334
 1224TIP3    H225164   4.432   2.938   4.823  0.1491 -0.9033 -0.8044
 1225TIP3   OH225165   0.476   5.796   0.079 -0.0813 -0.1355  0.1496
 1225TIP3    H125166   0.550   5.829   0.129 -0.2838  0.0576  0.3220
 1225TIP3    H225167   0.445   5.720   0.128  0.8008 -1.0015 -0.5951
 1226TIP3   OH225168   3.760   6.230  12.172  0.3618  1.0041  0.1222
 1226TIP3    H125169   3.768   6.159  12.235 -0.1414 -0.2804 -1.1988
 1226TIP3    H225170   3.826   6.294  12.198  0.1290  0.5346  1.9502
 1227TIP3   OH225171   5.024   3.138  13.337  0.4579  0.0943 -0.4587
 1227TIP3    H125172   5.079   3.134  13.415  1.1914 -0.8929 -1.0158
 1227TIP3    H225173   4.937   3.112  13.368  0.6211  0.2149  0.1231
 1228TIP3   OH225174   4.574   5.506   4.399 -0.1325 -0.5057 -0.2452
 1228TIP3    H125175   4.602   5.586   4.354  1.6083 -0.9131  0.0334
 1228TIP3    H225176   4.522   5.536   4.473  1.2531  0.4231  0.3772
 1229TIP3   OH225177   5.256   1.829  16.497  0.2315 -0.3486 -0.6285
 1229TIP3    H125178   5.223   1.851  16.584  1.6476 -1.0911  0.1266
 1229TIP3    H225179   5.247   1.734  16.490  0.6259 -0.3591 -1.0817
 1230TIP3   OH225180   0.902   5.309  12.380  0.0802 -0.0252 -0.0627
 1230TIP3    H125181   0.834   5.348  12.436  0.0310 -1.3869  0.8681
 1230TIP3    H225182   0.854   5.274  12.305 -0.4086 -1.6827  0.9656
 1231TIP3   OH225183   6.776   5.679   3.246  0.5938  0.2701 -0.1580
 1231TIP3    H125184   6.817   5.596   3.222  0.8815  0.7704 -1.4722
 1231TIP3    H225185   6.846   5.744   3.236  0.1146  0.8043 -0.1056
 1232TIP3   OH225186   0.708   5.682   4.900 -0.7691 -0.5121  0.1574
 1232TIP3    H125187   0.613   5.680   4.892 -0.6885 -0.6491 -0.9485
 1232TIP3    H225188   0.732   5.593   4.927 -0.9782 -0.3963  0.7182
 1233TIP3   OH225189   1.189   3.997  15.356 -0.2389 -0.4234  0.1856
 1233TIP3    H125190   1.154   4.083  15.377 -0.9573 -0.6075 -0.2214
 1233TIP3    H225191   1.113   3.945  15.331  0.2532 -1.0066 -0.1406
 1234TIP3   OH225192   1.092   6.768  12.130  0.3135  0.1232  0.5714
 1234TIP3    H125193   1.117   6.861  12.122  1.1473 -0.1024  0.5007
 1234TIP3    H225194   1.086   6.738  12.039 -1.7043  0.5436  0.5202
 1235TIP3   OH225195   5.763   2.790  15.593  0.8805 -0.8905  0.0140
 1235TIP3    H125196   5.748   2.739  15.514 -0.6464 -1.3091  0.5191
 1235TIP3    H225197   5.679   2.834  15.608  1.8833  1.0828  0.0894
 1236TIP3   OH225198   1.025   5.743  13.499 -0.2889  0.2879 -0.0679
 1236TIP3    H125199   1.008   5.649  13.493 -1.1173  0.3192  1.3166
 1236TIP3    H225200   1.099   5.750  13.560 -0.5006  0.5417  0.1634
 1237TIP3   OH225201   5.998   4.623  14.048  0.6299 -0.2132  0.1012
 1237TIP3    H125202   5.911   4.595  14.075  0.3006 -0.1816 -0.9139
 1237TIP3    H225203   6.057   4.572  14.104 -0.0090 -1.3235 -0.2098
 1238TIP3   OH225204   4.681   6.773   0.969  0.0645 -0.0336 -0.4242
 1238TIP3    H125205   4.631   6.828   0.909  0.0066  1.7460  1.1736
 1238TIP3    H225206   4.772   6.794   0.950  0.0774 -0.1719 -0.5159
 1239TIP3   OH225207   1.289   6.222  11.645  0.8215 -0.6662 -0.4022
 1239TIP3    H125208   1.335   6.211  11.729 -0.7587 -1.0651  0.4513
 1239TIP3    H225209   1.322   6.150  11.590 -0.2276 -2.2086  0.8858
 1240TIP3   OH225210   3.607   3.678  14.189  0.4365 -0.1002  0.2207
 1240TIP3    H125211   3.611   3.582  14.184  2.0775  0.0119 -2.9464
 1240TIP3    H225212   3.584   3.706  14.101 -2.1866  2.4500  1.5613
 1241TIP3   OH225213   2.036   4.506   1.540 -0.1710 -0.1319  0.1450
 1241TIP3    H125214   2.075   4.467   1.619 -0.0440 -1.4469 -0.5370
 1241TIP3    H225215   2.111   4.539   1.490 -0.1655 -0.1511  0.1407
 1242TIP3   OH225216   3.333   5.326  12.583  0.1141  0.3129  0.3021
 1242TIP3    H125217   3.304   5.249  12.535 -3.6104  1.6844 -0.0053
 1242TIP3    H225218   3.297   5.315  12.671 -1.2861  2.0005  0.0087
 1243TIP3   OH225219   2.860   3.606  16.097  0.0573  1.1253  0.3304
 1243TIP3    H125220   2.873   3.515  16.124  0.4270  1.7771  2.5359
 1243TIP3    H225221   2.768   3.611  16.072 -0.8876  0.8381  3.3971
 1244TIP3   OH225222   1.361   4.810  17.206 -0.3123 -0.2504  0.0481
 1244TIP3    H125223   1.364   4.906  17.199 -1.0270 -0.2976 -1.1183
 1244TIP3    H225224   1.450   4.782  17.185 -0.3147  0.1088 -0.4506
 1245TIP3   OH225225   5.587   1.569   5.994 -0.5754  0.3143 -0.5965
 1245TIP3    H125226   5.567   1.574   5.900 -0.9369  0.2502 -0.5242
 1245TIP3    H225227   5.586   1.475   6.013  0.6521  0.2499 -0.7711
 1246TIP3   OH225228   4.821   1.448   3.459 -0.5669  0.4980  0.0984
 1246TIP3    H125229   4.854   1.448   3.549 -1.6669  1.4465  0.5272
 1246TIP3    H225230   4.726   1.440   3.468 -0.6499  0.1341 -0.9985
 1247TIP3   OH225231   0.480   5.407   5.236  0.3681 -0.0943  0.2107
 1247TIP3    H125232   0.558   5.411   5.182  0.2742  0.0665  0.0898
 1247TIP3    H225233   0.456   5.314   5.236  1.3337 -0.3704  1.3450
 1248TIP3   OH225234   6.574   3.218  12.986  0.3247 -0.0089  0.3451
 1248TIP3    H125235   6.497   3.164  12.971 -0.0129  0.4414  0.4435
 1248TIP3    H225236   6.624   3.212  12.905  0.3205 -0.5110  0.3763
 1249TIP3   OH225237   3.979   2.975   0.272  0.0429  0.4038  0.0466
 1249TIP3    H125238   4.039   2.939   0.208  0.5358  0.5316  0.4297
 1249TIP3    H225239   3.893   2.974   0.229  0.4345  0.8714 -0.7524
 1250TIP3   OH225240   2.331   2.976   1.546 -0.5685 -0.1369 -0.1677
 1250TIP3    H125241   2.242   2.965   1.579  0.2165 -1.8300  1.6805
 1250TIP3    H225242   2.385   2.979   1.626  0.8899  2.9100 -1.1541
 1251TIP3   OH225243   4.965   2.957   1.784 -0.2754 -0.3312  0.0662
 1251TIP3    H125244   4.997   2.993   1.701  0.0570 -0.1076  0.2872
 1251TIP3    H225245   4.916   2.879   1.759 -0.3405 -0.1574 -0.3568
 1252TIP3   OH225246   2.515   5.565   6.376  0.0092 -0.2466  0.2449
 1252TIP3    H125247   2.449   5.627   6.345 -2.6773 -2.1664  1.7006
 1252TIP3    H225248   2.556   5.533   6.296  0.6664  2.4445 -0.5962
 1253TIP3   OH225249   0.044   6.138  12.956  0.4706 -0.0173 -0.1200
 1253TIP3    H125250   0.008   6.151  13.044  0.4634  1.0088 -0.2564
 1253TIP3    H225251   0.139   6.140  12.969  0.5028  1.8384 -0.3169
 1254TIP3   OH225252   4.529   0.422  14.926  0.1908 -0.0121  0.5274
 1254TIP3    H125253   4.492   0.445  14.841 -1.3721 -1.6435  0.7147
 1254TIP3    H225254   4.607   0.477  14.934  0.6816 -0.1976 -2.1774
 1255TIP3   OH225255   5.007   4.207   3.014 -0.4633  0.1447 -0.1741
 1255TIP3    H125256   4.927   4.164   2.985 -0.3560 -0.5826  0.5416
 1255TIP3    H225257   4.978   4.276   3.073 -0.5244 -2.2717  2.8435
 1256TIP3   OH225258   0.287   5.112   5.781  0.0505 -0.1240 -0.7240
 1256TIP3    H125259   0.262   5.046   5.716  2.1065  0.5496 -2.3001
 1256TIP3    H225260   0.382   5.118   5.775  0.2093  0.8532  1.5376
 1257TIP3   OH225261   5.531   4.961   1.815  0.1750 -0.2752 -0.0351
 1257TIP3    H125262   5.491   4.890   1.764 -1.9039  1.4819 -0.9791
 1257TIP3    H225263   5.473   4.972   1.890 -0.5334  1.5212 -0.7957
 1258TIP3   OH225264   3.182   4.469   6.433  0.2919  0.0376 -0.7355
 1258TIP3    H125265   3.223   4.435   6.353 -0.7307 -1.7550 -0.5471
 1258TIP3    H225266   3.256   4.494   6.489  1.0626 -0.2622 -1.5947
 1259TIP3   OH225267   0.122   1.340   1.926 -0.2747  0.0511 -0.0838
 1259TIP3    H125268   0.205   1.365   1.886 -0.8111  2.6800  0.2980
 1259TIP3    H225269   0.140   1.339   2.020 -0.0290 -2.1457 -0.1089
 1260TIP3   OH225270   3.948   1.675   2.187  0.0180 -0.5640 -0.7001
 1260TIP3    H125271   4.030   1.656   2.142  0.3160 -2.6253  0.5977
 1260TIP3    H225272   3.974   1.726   2.264 -0.3473  1.7143 -1.9797
 1261TIP3   OH225273   4.063   0.673  11.546 -0.5856  0.1693  0.1696
 1261TIP3    H125274   3.980   0.636  11.514 -0.7882 -0.0345  0.9006
 1261TIP3    H225275   4.082   0.744  11.486  0.2563 -1.6114 -1.8007
 1262TIP3   OH225276   5.415   4.795  15.295 -0.4301 -0.1062 -0.3323
 1262TIP3    H125277   5.480   4.730  15.320  1.8164  2.1843  0.2486
 1262TIP3    H225278   5.406   4.785  15.200 -0.7587 -1.7347 -0.1518
 1263TIP3   OH225279   6.091   1.180  15.511  0.2299  0.2472 -1.0715
 1263TIP3    H125280   6.083   1.194  15.605  1.0546 -0.9337 -0.8021
 1263TIP3    H225281   6.004   1.153  15.483  0.4549 -1.4501 -0.2520
 1264TIP3   OH225282   5.762   1.962  10.985  0.1942  0.2403 -0.2008
 1264TIP3    H125283   5.846   1.917  10.988  1.0840  1.8481  0.1499
 1264TIP3    H225284   5.716   1.921  10.912  0.3994 -2.1084  0.9254
 1265TIP3   OH225285   3.826   0.731   5.521 -0.3699  0.1295  0.5467
 1265TIP3    H125286   3.891   0.677   5.566 -1.0748  0.0638  1.5065
 1265TIP3    H225287   3.780   0.670   5.463  0.2447  0.1290  0.0491
 1266TIP3   OH225288   3.950   4.061  15.568 -0.4062  0.0353 -0.2122
 1266TIP3    H125289   3.994   4.090  15.648 -0.4059 -0.2727 -0.0989
 1266TIP3    H225290   3.946   3.966  15.576  0.7902 -0.1275 -1.1838
 1267TIP3   OH225291   3.009   4.264  11.345 -0.2959  0.3652 -0.0762
 1267TIP3    H125292   3.012   4.217  11.428 -0.5187  1.2781  0.4588
 1267TIP3    H225293   3.035   4.199  11.280 -0.3870 -0.4369  0.6698
 1268TIP3   OH225294   4.114   0.738   5.333 -0.4602  0.2085  0.2695
 1268TIP3    H125295   4.058   0.679   5.384 -0.2736 -1.0615 -0.9269
 1268TIP3    H225296   4.054   0.781   5.272 -0.5446  1.0494  0.9229
 1269TIP3   OH225297   2.839   6.266  15.720 -0.0300  0.3235  0.0083
 1269TIP3    H125298   2.909   6.220  15.674  1.1947  1.4628  0.6757
 1269TIP3    H225299   2.802   6.201  15.779  0.3584 -0.3458 -0.4807
 1270TIP3   OH225300   3.931   3.941  14.307  0.3284  0.4062 -0.1233
 1270TIP3    H125301   3.928   3.922  14.213 -0.5603 -0.4580  0.0605
 1270TIP3    H225302   3.855   3.997  14.322  0.2041  0.1648  0.1507
 1271TIP3   OH225303   5.893   1.504  13.323 -0.1563 -0.4203 -0.5016
 1271TIP3    H125304   5.903   1.580  13.266 -0.1578 -1.9174 -2.5910
 1271TIP3    H225305   5.820   1.455  13.286 -1.4070 -0.5402  1.9210
 1272TIP3   OH225306   6.165   6.669  11.870  0.1285 -0.3646 -0.4807
 1272TIP3    H125307   6.147   6.609  11.943  2.0399  1.0760  1.3028
 1272TIP3    H225308   6.083   6.716  11.857 -0.1667 -0.3952  1.0518
 1273TIP3   OH225309   4.009   5.664  17.198  0.2410 -0.2120  0.2996
 1273TIP3    H125310   4.069   5.606  17.245  0.6542  0.0969  0.1618
 1273TIP3    H225311   3.931   5.667  17.253  1.0046  0.7453  1.3661
 1274TIP3   OH225312   0.271   6.588  10.906  0.0462  0.8198 -0.1916
 1274TIP3    H125313   0.352   6.550  10.874 -0.1002 -1.2483  1.6684
 1274TIP3    H225314   0.298   6.654  10.969  0.2869  0.8619 -0.3411
 1275TIP3   OH225315   1.003   6.294   0.477  0.8522  0.2571  0.5358
 1275TIP3    H125316   0.957   6.300   0.394 -1.4762 -2.1548  1.4675
 1275TIP3    H225317   0.943   6.334   0.541  2.3811  1.6486  1.1640
 1276TIP3   OH225318   3.652   0.713  13.023  0.0386  0.6582 -0.2463
 1276TIP3    H125319   3.735   0.747  12.992  0.1982  0.7312  0.2457
 1276TIP3    H225320   3.674   0.630  13.067 -0.4857 -0.7504 -2.4720
 1277TIP3   OH225321   5.811   1.867  11.724 -0.0422  0.0178 -0.3564
 1277TIP3    H125322   5.728   1.821  11.711  0.0437 -1.2692  2.6344
 1277TIP3    H225323   5.875   1.815  11.677 -0.4517 -1.0597  0.2433
 1278TIP3   OH225324   3.237   4.648  16.639 -0.1525  0.1271 -0.1271
 1278TIP3    H125325   3.165   4.658  16.576 -0.8093  3.9392  0.9714
 1278TIP3    H225326   3.315   4.671  16.588 -0.0884 -0.9184 -0.5290
 1279TIP3   OH225327   1.088   3.771   4.071  0.5422 -0.3661 -0.1737
 1279TIP3    H125328   1.103   3.862   4.045 -1.0006 -0.2667 -0.8443
 1279TIP3    H225329   1.077   3.724   3.988  0.2428 -0.9443  0.1850
 1280TIP3   OH225330   0.137   2.000  15.726  0.3299 -0.1718 -0.2192
 1280TIP3    H125331   0.110   2.084  15.764  1.4112 -0.2896  0.9148
 1280TIP3    H225332   0.233   2.005  15.726  0.4127 -1.4823  0.0733
 1281TIP3   OH225333   6.216   4.876   5.637 -0.1173 -0.6837 -0.2186
 1281TIP3    H125334   6.243   4.788   5.664 -1.9534 -0.9808  0.8115
 1281TIP3    H225335   6.189   4.919   5.719  2.1951  1.4250 -0.4537
 1282TIP3   OH225336   5.248   5.057  11.225  0.1427  0.4703  0.0414
 1282TIP3    H125337   5.197   5.136  11.241 -1.6786 -0.3423 -1.3508
 1282TIP3    H225338   5.313   5.083  11.159 -1.0381  0.6446 -1.1041
 1283TIP3   OH225339   0.446   3.894   1.126 -0.1119 -0.1699  0.0498
 1283TIP3    H125340   0.535   3.920   1.103  0.1848 -1.2474 -0.0251
 1283TIP3    H225341   0.395   3.912   1.046 -0.2047  1.4625  0.4293
 1284TIP3   OH225342   2.806   6.543  10.866 -0.0307 -0.5483 -0.2456
 1284TIP3    H125343   2.781   6.627  10.829  0.0479 -0.2783  0.3083
 1284TIP3    H225344   2.883   6.516  10.816 -1.1478 -1.1917 -1.6953
 1285TIP3   OH225345   4.537   4.366   4.449  0.4527 -0.2129  0.1123
 1285TIP3    H125346   4.485   4.434   4.492  0.9033  1.8225 -2.3213
 1285TIP3    H225347   4.477   4.292   4.441 -1.2101  1.1064 -0.2067
 1286TIP3   OH225348   4.892   2.740   2.300 -0.1682  0.3771  1.1800
 1286TIP3    H125349   4.914   2.652   2.332 -1.2261 -0.3773 -0.0620
 1286TIP3    H225350   4.849   2.782   2.374 -2.8766 -1.4388  0.7660
 1287TIP3   OH225351   5.372   0.957  15.347  0.3473  0.5092 -0.2808
 1287TIP3    H125352   5.343   0.876  15.304  1.0875 -0.7138  1.4027
 1287TIP3    H225353   5.293   0.992  15.388 -0.0474  0.8520 -1.3095
 1288TIP3   OH225354   4.576   6.315   0.070  0.0947  0.3130  0.2901
 1288TIP3    H125355   4.569   6.411   0.063  2.6690  0.7032  1.8233
 1288TIP3    H225356   4.586   6.286  -0.021 -1.0518  1.4320 -0.2372
 1289TIP3   OH225357   4.857   2.509   1.374 -0.2028  0.1005 -0.5202
 1289TIP3    H125358   4.767   2.491   1.402 -0.1405  0.4729 -0.0728
 1289TIP3    H225359   4.862   2.604   1.368  0.0213  0.0585 -1.0249
 1290TIP3   OH225360   3.588   4.949   5.216 -0.4684 -0.3832 -0.1817
 1290TIP3    H125361   3.527   4.923   5.147 -1.7579  0.3297  0.6506
 1290TIP3    H225362   3.536   5.003   5.275  0.7911 -0.3718  0.9696
 1291TIP3   OH225363   4.778   6.146  10.810 -0.1141  0.4915 -0.2188
 1291TIP3    H125364   4.762   6.193  10.892 -1.0381  4.6682 -2.4914
 1291TIP3    H225365   4.703   6.087  10.802  0.7201 -1.0692  2.4927
 1292TIP3   OH225366   0.412   5.703   3.322 -0.2328  0.2445 -0.0856
 1292TIP3    H125367   0.427   5.750   3.405 -1.8790  0.7373 -0.0287
 1292TIP3    H225368   0.500   5.686   3.288  0.4844  2.7286  0.2764
 1293TIP3   OH225369   6.005   5.185  11.825 -0.3657 -0.1918 -0.7125
 1293TIP3    H125370   6.043   5.232  11.899  0.3257  0.7017 -1.6013
 1293TIP3    H225371   5.930   5.138  11.862  0.5173 -0.5090  0.7111
 1294TIP3   OH225372   3.568   4.983  12.753 -0.4115  0.0907 -0.1805
 1294TIP3    H125373   3.615   5.067  12.753 -0.8245  0.3249 -0.3331
 1294TIP3    H225374   3.485   5.002  12.795 -0.2634 -0.3901  0.3380
 1295TIP3   OH225375   1.200   3.500   0.322  0.3130 -0.3826 -0.4642
 1295TIP3    H125376   1.192   3.593   0.299 -0.4070  0.2901  2.1114
 1295TIP3    H225377   1.224   3.501   0.415  0.0657 -2.7797 -0.3239
 1296TIP3   OH225378   2.565   4.488   4.049 -0.7177 -0.1407 -0.2264
 1296TIP3    H125379   2.500   4.515   3.984 -2.6181 -2.8525  0.3642
 1296TIP3    H225380   2.521   4.499   4.133  0.7405  0.7900  0.4579
 1297TIP3   OH225381   6.130   1.636   0.305  0.4729  0.4901  0.1546
 1297TIP3    H125382   6.083   1.713   0.274  0.5776  0.1771 -0.7959
 1297TIP3    H225383   6.222   1.664   0.307  0.6506  0.0723 -1.2482
 1298TIP3   OH225384   6.112   1.573   2.810  0.6071 -0.2737 -0.1392
 1298TIP3    H125385   6.141   1.620   2.732 -1.4082  0.1569 -0.6750
 1298TIP3    H225386   6.176   1.597   2.877  2.8103 -1.2106 -1.7663
 1299TIP3   OH225387   2.620   3.838   0.878  0.2420 -0.0776  0.6453
 1299TIP3    H125388   2.581   3.763   0.834  1.0223 -0.6179  0.8553
 1299TIP3    H225389   2.608   3.911   0.817 -0.6276 -0.3380  0.4935
 1300TIP3   OH225390   0.831   0.434  16.417 -0.0372  0.1824 -0.2757
 1300TIP3    H125391   0.891   0.473  16.481  0.3713 -1.5744  0.4685
 1300TIP3    H225392   0.881   0.434  16.335  1.7485 -2.6854  0.6446
 1301TIP3   OH225393   6.235   0.989  14.047 -0.2940  0.3142  1.0153
 1301TIP3    H125394   6.246   0.996  14.142  0.8724 -0.7141  0.9842
 1301TIP3    H225395   6.318   0.952  14.016 -0.6356  0.6785 -0.4172
 1302TIP3   OH225396   4.553   1.776  13.020 -0.1646 -0.0117  0.3361
 1302TIP3    H125397   4.587   1.746  12.936  1.0358  2.5330 -0.1631
 1302TIP3    H225398   4.617   1.745  13.084  1.0858  1.3866 -0.1749
 1303TIP3   OH225399   3.179   1.615   4.540  0.1233  0.5331 -0.6276
 1303TIP3    H125400   3.231   1.601   4.619 -2.7772 -0.0183  1.3401
 1303TIP3    H225401   3.148   1.527   4.517  1.1924  0.6237 -2.6998
 1304TIP3   OH225402   0.969   4.085   0.794  0.0146 -0.3754 -0.0259
 1304TIP3    H125403   0.923   4.004   0.817 -0.6024 -0.0256 -0.0059
 1304TIP3    H225404   0.979   4.131   0.877 -1.0102  0.2650 -0.2308
 1305TIP3   OH225405   5.332   5.005   0.231 -0.7712  0.4694 -0.2818
 1305TIP3    H125406   5.357   4.914   0.249 -1.9764  0.1571 -0.1308
 1305TIP3    H225407   5.254   5.019   0.285 -0.9640  1.3974 -0.7940
 1306TIP3   OH225408   2.149   2.271  14.422  0.8327 -0.1932 -0.6307
 1306TIP3    H125409   2.237   2.250  14.392  1.1924  0.8685 -0.3832
 1306TIP3    H225410   2.094   2.262  14.345  1.3899  0.4017 -1.1127
 1307TIP3   OH225411   2.910   1.025   1.151  0.0605  0.3697 -0.0477
 1307TIP3    H125412   2.842   0.960   1.166  0.3022  0.1060 -0.0826
 1307TIP3    H225413   2.876   1.081   1.082  0.2932 -0.3581 -0.7589
 1308TIP3   OH225414   2.984   6.653   4.728  0.4971  0.1963 -0.0623
 1308TIP3    H125415   2.952   6.699   4.806  0.0305 -2.7836  1.6746
 1308TIP3    H225416   3.062   6.701   4.702 -0.3029  2.3062  1.1723
 1309TIP3   OH225417   1.007   4.389  16.964  0.5214 -0.0336 -0.0845
 1309TIP3    H125418   0.985   4.330  16.892  0.4035 -1.2761  0.9240
 1309TIP3    H225419   1.093   4.361  16.993  0.2704 -0.0270  0.7058
 1310TIP3   OH225420   4.781   4.537  12.945 -0.4003  0.1338 -0.1903
 1310TIP3    H125421   4.871   4.565  12.930 -0.9338  0.7568 -2.7470
 1310TIP3    H225422   4.749   4.594  13.015  1.1637 -0.1058  0.7577
 1311TIP3   OH225423   0.775   5.288   2.530  0.2417 -0.3282 -0.1867
 1311TIP3    H125424   0.736   5.337   2.457  0.0284  1.2672  0.9403
 1311TIP3    H225425   0.818   5.214   2.488 -1.4463 -0.5095 -1.7614
 1312TIP3   OH225426   4.986   0.769  15.639  0.0681 -0.4599  0.5756
 1312TIP3    H125427   5.077   0.739  15.633 -0.0002 -0.6337  0.3815
 1312TIP3    H225428   4.934   0.689  15.640 -0.0597 -0.3695  1.1577
 1313TIP3   OH225429   1.753   6.096  13.149  0.3030  0.7995  0.0776
 1313TIP3    H125430   1.721   6.006  13.156  0.4233  0.8393  1.3463
 1313TIP3    H225431   1.719   6.127  13.066 -1.8019  0.3794  0.7402
 1314TIP3   OH225432   6.597   6.374  12.440  0.0465 -0.1968 -0.6978
 1314TIP3    H125433   6.534   6.334  12.380 -1.1546 -0.3717  0.6240
 1314TIP3    H225434   6.543   6.413  12.509  1.2766  1.9075 -0.8394
 1315TIP3   OH225435   0.643   3.429   4.340  0.2343  0.3374  0.1124
 1315TIP3    H125436   0.622   3.517   4.312 -0.5867  0.4397  0.9827
 1315TIP3    H225437   0.560   3.382   4.338  0.1372  0.3285  2.1646
 1316TIP3   OH225438   1.426   6.234  13.204 -0.1548  0.1764  0.2642
 1316TIP3    H125439   1.478   6.167  13.250 -0.7729 -1.0888 -0.8082
 1316TIP3    H225440   1.338   6.224  13.239 -0.1145  0.9106  0.5862
 1317TIP3   OH225441   3.247   3.454   5.286 -0.3871  0.4601  0.3234
 1317TIP3    H125442   3.197   3.515   5.231 -0.5889 -0.5761 -0.7001
 1317TIP3    H225443   3.337   3.485   5.281  0.1485 -1.1222 -2.9698
 1318TIP3   OH225444   4.439   1.211  13.636 -0.3560  0.4069 -0.2449
 1318TIP3    H125445   4.407   1.290  13.591  0.5850  0.1381 -1.4434
 1318TIP3    H225446   4.526   1.196  13.599 -0.2979 -0.8943  0.3636
 1319TIP3   OH225447   2.087   0.138  15.076 -0.5471 -0.1162  0.1176
 1319TIP3    H125448   2.015   0.200  15.067 -2.0123 -1.6615  0.7321
 1319TIP3    H225449   2.048   0.061  15.116  1.3781 -1.1659  0.1032
 1320TIP3   OH225450   3.528   4.820   2.332  0.1406 -0.8736  0.0675
 1320TIP3    H125451   3.579   4.830   2.412 -1.7352  0.1741  1.2007
 1320TIP3    H225452   3.589   4.781   2.269  1.3668 -2.8745  2.3173
 1321TIP3   OH225453   0.683   2.353   5.898 -0.7354  0.2173  0.6379
 1321TIP3    H125454   0.778   2.359   5.895 -0.7625  4.0678  1.6688
 1321TIP3    H225455   0.655   2.354   5.807  0.1759  0.3877  0.3547
 1322TIP3   OH225456   4.525   1.468  12.031 -0.0424 -0.0278  0.4960
 1322TIP3    H125457   4.543   1.544  11.976 -0.6158  0.7327  1.3376
 1322TIP3    H225458   4.584   1.479  12.107  0.0521 -0.5526  0.4998
 1323TIP3   OH225459   1.267   3.725   4.412  0.1793  0.4055  0.0890
 1323TIP3    H125460   1.310   3.655   4.461  1.0869  0.0133 -1.1998
 1323TIP3    H225461   1.229   3.681   4.336  1.9184  1.4162 -1.4801
 1324TIP3   OH225462   2.315   3.866  14.568  0.2935  0.2579 -0.1395
 1324TIP3    H125463   2.283   3.931  14.630 -1.4232  0.0613 -0.7805
 1324TIP3    H225464   2.332   3.788  14.622  1.1762  0.8235  0.4322
 1325TIP3   OH225465   2.476   6.200  11.399  0.2103 -0.0989 -0.6590
 1325TIP3    H125466   2.456   6.208  11.492  1.5021 -0.6970 -0.3112
 1325TIP3    H225467   2.564   6.236  11.390  0.2279 -0.3504 -1.5961
 1326TIP3   OH225468   5.180   1.758   6.490 -0.5870  0.3538  0.7468
 1326TIP3    H125469   5.245   1.711   6.541 -1.3295 -0.1979  1.2025
 1326TIP3    H225470   5.208   1.849   6.493  0.2970  0.0905  0.7217
 1327TIP3   OH225471   3.223   1.296   5.082 -0.4696  0.2193 -0.2628
 1327TIP3    H125472   3.197   1.289   4.990  1.2049 -0.8497 -0.6988
 1327TIP3    H225473   3.282   1.371   5.084 -2.7865  2.1429  0.5705
 1328TIP3   OH225474   3.594   2.704  12.795 -0.1702 -0.5044  0.5743
 1328TIP3    H125475   3.552   2.788  12.812 -1.2082 -0.9617  0.3640
 1328TIP3    H225476   3.521   2.643  12.783  0.5648 -1.5395  1.2394
 1329TIP3   OH225477   5.767   6.675   6.426  0.9284 -0.1661 -0.7724
 1329TIP3    H125478   5.826   6.675   6.350  0.2916  0.9088 -1.2804
 1329TIP3    H225479   5.719   6.593   6.418  0.2372  0.3420 -2.0490
 1330TIP3   OH225480   0.763   2.317  10.635 -0.6484 -0.3485 -0.6657
 1330TIP3    H125481   0.849   2.286  10.664 -0.3286 -0.5617 -1.7676
 1330TIP3    H225482   0.720   2.239  10.601 -0.5525  0.0650 -1.7839
 1331TIP3   OH225483   6.165   1.461  15.040 -0.0161  0.8654  0.1546
 1331TIP3    H125484   6.193   1.552  15.044  0.9001  0.5856  0.2371
 1331TIP3    H225485   6.223   1.415  15.100 -1.8083  0.5388  1.7615
 1332TIP3   OH225486   5.769   1.576  11.003  0.8852  0.5428 -0.2620
 1332TIP3    H125487   5.703   1.593  10.936 -0.2683 -1.5702  0.2480
 1332TIP3    H225488   5.852   1.597  10.961  0.0358  1.3360 -1.6121
 1333TIP3   OH225489   1.445   6.350   2.079  0.1796  0.3366  0.5068
 1333TIP3    H125490   1.423   6.288   2.010 -0.6514 -0.6750  1.6392
 1333TIP3    H225491   1.423   6.436   2.042  3.0083  0.2674 -1.7681
 1334TIP3   OH225492   2.808   4.544   0.819  0.0488  0.5001  0.2486
 1334TIP3    H125493   2.898   4.514   0.830  0.0967  0.3415 -0.4801
 1334TIP3    H225494   2.768   4.537   0.905  0.5906  0.0872  0.4656
 1335TIP3   OH225495   0.416   6.163   4.265 -0.1228 -0.3986  0.6665
 1335TIP3    H125496   0.416   6.253   4.232 -3.2017 -0.3350  0.5489
 1335TIP3    H225497   0.434   6.171   4.358  0.5656  0.2170  0.4927
 1336TIP3   OH225498   1.948   4.916   5.548  0.0323  0.7763  0.4962
 1336TIP3    H125499   1.890   4.918   5.472 -0.2251  1.6373  0.7037
 1336TIP3    H225500   2.005   4.841   5.533  0.9510  1.7710 -1.2491
 1337TIP3   OH225501   4.130   3.068   4.734  0.0252  0.4707 -0.3519
 1337TIP3    H125502   4.180   3.127   4.678 -0.6301  2.6769  1.2555
 1337TIP3    H225503   4.042   3.068   4.696  0.0584  0.4109 -0.4297
 1338TIP3   OH225504   2.549   6.204   4.638  0.2505 -0.3391  0.4116
 1338TIP3    H125505   2.484   6.182   4.572 -1.1370  1.4101  1.1050
 1338TIP3    H225506   2.550   6.300   4.638  1.1428 -0.3287  2.0407
 1339TIP3   OH225507   6.821   3.269   3.682 -0.2465  0.2340 -0.2726
 1339TIP3    H125508   6.913   3.253   3.702 -0.5044 -0.3107  0.5214
 1339TIP3    H225509   6.822   3.311   3.596  0.7649  0.6467 -0.0711
 1340TIP3   OH225510   3.401   6.287  17.152  0.5681  0.2631  0.4365
 1340TIP3    H125511   3.389   6.206  17.202  0.0394 -0.3278 -0.5973
 1340TIP3    H225512   3.334   6.346  17.185 -0.4127 -0.4563 -0.2130
 1341TIP3   OH225513   5.337   6.823  14.194 -0.0053 -0.3158 -0.3003
 1341TIP3    H125514   5.428   6.850  14.189  0.0008 -0.5327 -1.7530
 1341TIP3    H225515   5.340   6.731  14.220  0.0561  0.3414  2.2759
 1342TIP3   OH225516   6.188   2.284   4.833  0.1788 -0.1317 -0.5963
 1342TIP3    H125517   6.264   2.335   4.863 -0.0203 -0.8124  1.1603
 1342TIP3    H225518   6.159   2.237   4.910 -3.4110  1.7443 -0.5962
 1343TIP3   OH225519   3.708   0.095   5.333  0.4931 -0.5138 -0.0623
 1343TIP3    H125520   3.710   0.019   5.392  1.1215 -0.0963  0.4549
 1343TIP3    H225521   3.678   0.167   5.388  2.8877  0.3030  0.2537
 1344TIP3   OH225522   2.831   1.624  12.011 -0.5382  0.2572 -0.1182
 1344TIP3    H125523   2.773   1.661  11.944 -1.8981 -0.9178  0.3641
 1344TIP3    H225524   2.815   1.530  12.008  0.9315 -0.0416  0.4499
 1345TIP3   OH225525   0.538   2.115  16.240  0.1785 -0.4007  0.0719
 1345TIP3    H125526   0.456   2.116  16.289  0.3781 -0.9258  0.4252
 1345TIP3    H225527   0.606   2.121  16.307  0.4293  0.3217 -0.2347
 1346TIP3   OH225528   5.133   1.227  14.200 -0.1259 -0.1086  0.1167
 1346TIP3    H125529   5.193   1.163  14.161 -0.8079  0.3424 -1.8099
 1346TIP3    H225530   5.109   1.285  14.127 -3.4917 -0.7315  0.5397
 1347TIP3   OH225531   6.221   1.132   1.280 -0.4048 -0.3112 -0.7568
 1347TIP3    H125532   6.185   1.084   1.355  1.3789 -0.9637 -0.2723
 1347TIP3    H225533   6.150   1.134   1.216 -0.3599 -4.2616 -1.1265
 1348TIP3   OH225534   3.009   1.495  13.484 -0.0213 -0.4279 -0.1674
 1348TIP3    H125535   2.981   1.405  13.468  0.7419 -0.2317 -3.1441
 1348TIP3    H225536   2.927   1.544  13.495 -0.4418 -1.5875  2.9575
 1349TIP3   OH225537   3.271   2.942   5.321  0.3242 -0.3117  0.3935
 1349TIP3    H125538   3.309   3.030   5.321 -1.3567  0.4624 -0.4158
 1349TIP3    H225539   3.269   2.917   5.228 -2.2611  0.2496  0.2230
 1350TIP3   OH225540   1.939   4.517  13.290  0.0659  0.3444 -1.0959
 1350TIP3    H125541   1.897   4.441  13.329  0.7442  1.1225  1.3214
 1350TIP3    H225542   2.004   4.479  13.229  0.6932 -1.0603  0.3634
 1351TIP3   OH225543   4.125   3.264  13.032 -0.1492  0.3285  0.5656
 1351TIP3    H125544   4.067   3.191  13.053 -0.2122 -0.4370 -1.9058
 1351TIP3    H225545   4.209   3.223  13.015 -0.8042  0.2981 -3.5740
 1352TIP3   OH225546   1.116   2.379  15.496 -0.3614 -0.1465  0.2175
 1352TIP3    H125547   1.096   2.399  15.405 -0.6771 -0.6397  0.1719
 1352TIP3    H225548   1.169   2.300  15.493  1.1000  0.7929  0.3805
 1353TIP3   OH225549   2.262   2.326   4.202  0.0191 -0.9628  0.3850
 1353TIP3    H125550   2.179   2.282   4.223 -0.0729 -1.0318 -0.1049
 1353TIP3    H225551   2.330   2.263   4.225 -0.1056 -1.2885 -0.1150
 1354TIP3   OH225552   4.353   0.123  15.519  0.1525  0.1896  0.6510
 1354TIP3    H125553   4.325   0.135  15.609  1.1561 -2.4218  1.4184
 1354TIP3    H225554   4.392   0.036  15.518  3.0803  1.3569 -1.5755
 1355TIP3   OH225555   0.905   0.841   4.209  0.0160  0.1100 -0.0827
 1355TIP3    H125556   0.975   0.880   4.260  0.0902 -0.3420  0.1662
 1355TIP3    H225557   0.946   0.817   4.126  0.0181  0.3616 -0.1570
 1356TIP3   OH225558   3.393   2.481  11.686 -0.2530  0.0401 -0.1607
 1356TIP3    H125559   3.449   2.541  11.736  0.0207 -0.3774  0.0311
 1356TIP3    H225560   3.452   2.414  11.653 -0.6932 -0.6358  0.3956
 1357TIP3   OH225561   3.336   4.954  17.143 -0.3547 -0.3264  0.2707
 1357TIP3    H125562   3.334   5.043  17.109  2.1691  0.1627  1.1703
 1357TIP3    H225563   3.271   4.907  17.090 -1.1165  1.8112 -0.8232
 1358TIP3   OH225564   6.618   3.863   3.487  0.0564 -0.8125 -0.3407
 1358TIP3    H125565   6.556   3.835   3.420 -1.8383 -0.3756  1.1501
 1358TIP3    H225566   6.664   3.938   3.449  0.4967 -1.8140 -1.8756
 1359TIP3   OH225567   5.933   1.323  16.580  0.1500  0.1132 -0.2832
 1359TIP3    H125568   6.013   1.346  16.628  0.0878  0.4366 -0.3329
 1359TIP3    H225569   5.873   1.396  16.597 -0.2391 -0.2670 -0.0047
 1360TIP3   OH225570   5.587   6.544  14.263  0.1893 -0.7172 -0.3105
 1360TIP3    H125571   5.572   6.518  14.172  0.8119  0.2453 -0.6923
 1360TIP3    H225572   5.503   6.579  14.292  0.3638  0.2456 -0.9497
 1361TIP3   OH225573   2.601   3.093  15.641 -0.1516 -0.1388  0.3862
 1361TIP3    H125574   2.687   3.050  15.647 -0.0504  0.1814  1.4200
 1361TIP3    H225575   2.543   3.025  15.608 -0.0651 -1.2091  2.2904
 1362TIP3   OH225576   6.321   2.590  14.526 -0.2611 -0.1391  0.0979
 1362TIP3    H125577   6.264   2.517  14.499 -1.0020 -0.1116  1.5084
 1362TIP3    H225578   6.282   2.622  14.607  0.5478  1.3016 -0.0565
 1363TIP3   OH225579   6.524   4.587  16.063 -0.4387 -0.2022  0.2636
 1363TIP3    H125580   6.604   4.586  16.011 -0.1623 -0.4675  0.6888
 1363TIP3    H225581   6.533   4.513  16.124  0.7724  1.9507  2.9356
 1364TIP3   OH225582   1.144   6.138   3.686 -0.0206 -0.4096  0.2767
 1364TIP3    H125583   1.184   6.195   3.752 -2.0241  0.4016  0.8652
 1364TIP3    H225584   1.105   6.067   3.737  0.4776 -1.0882 -0.2682
 1365TIP3   OH225585   1.780   0.616  11.782 -0.6484  0.0473 -0.2697
 1365TIP3    H125586   1.764   0.702  11.820 -2.0898  0.1990 -1.1436
 1365TIP3    H225587   1.753   0.624  11.691 -0.8773 -1.3387 -0.3507
 1366TIP3   OH225588   4.451   1.130  16.973 -0.4808  0.0471  0.9228
 1366TIP3    H125589   4.391   1.202  16.990  0.2369  0.6202  1.1051
 1366TIP3    H225590   4.451   1.079  17.053  0.4295  0.9161  1.5003
 1367TIP3   OH225591   2.915   0.500  15.051 -0.0642  0.3204 -0.0016
 1367TIP3    H125592   2.885   0.428  14.995  1.4953  0.0720 -0.5706
 1367TIP3    H225593   2.990   0.464  15.098  0.2512  1.3307  0.2889
 1368TIP3   OH225594   5.238   2.369  11.898  0.2040  0.5456  0.3463
 1368TIP3    H125595   5.157   2.375  11.949  0.4028  2.6420  0.4883
 1368TIP3    H225596   5.308   2.373  11.964  0.5188 -2.3802  0.3401
 1369TIP3   OH225597   1.482   0.399   2.235 -0.1265 -0.0389 -0.0822
 1369TIP3    H125598   1.427   0.418   2.311 -2.9071 -0.7394 -1.7565
 1369TIP3    H225599   1.548   0.338   2.268 -2.1428 -1.5044  1.5240
 1370TIP3   OH225600   4.169   2.443  13.209  0.0104 -0.4695  0.2606
 1370TIP3    H125601   4.120   2.362  13.223  0.1750 -0.5488  0.3890
 1370TIP3    H225602   4.235   2.419  13.143  0.2264 -0.5112  0.4905
 1371TIP3   OH225603   2.210   3.295  11.812  0.0040 -0.0650 -0.2536
 1371TIP3    H125604   2.149   3.235  11.770  1.0971 -0.8214 -0.8048
 1371TIP3    H225605   2.191   3.288  11.906 -0.8308 -0.1797 -0.4271
 1372TIP3   OH225606   0.312   3.205   5.669 -0.7509 -0.2454 -0.2982
 1372TIP3    H125607   0.342   3.131   5.618 -0.9958 -1.2308  0.9347
 1372TIP3    H225608   0.250   3.251   5.612 -0.2489 -0.7241 -1.2369
 1373TIP3   OH225609   2.213   4.174  15.629 -0.6215  0.5698  0.1697
 1373TIP3    H125610   2.244   4.089  15.659 -2.1217 -0.1387 -0.1429
 1373TIP3    H225611   2.182   4.218  15.708 -0.5856  0.4876  0.2295
 1374TIP3   OH225612   4.370   5.982  15.922  0.4681  0.5175  0.3618
 1374TIP3    H125613   4.352   6.057  15.979  1.4649  1.6688 -0.7830
 1374TIP3    H225614   4.404   5.915  15.981 -1.5493  0.4747  1.6013
 1375TIP3   OH225615   4.484   1.685  13.934  0.7894  0.0641  0.0353
 1375TIP3    H125616   4.547   1.627  13.891  0.6477  0.0906 -0.2122
 1375TIP3    H225617   4.399   1.643  13.921  0.6735  0.3627 -0.2235
 1376TIP3   OH225618   0.436   5.129   1.713 -0.1126  0.5318  0.3054
 1376TIP3    H125619   0.406   5.180   1.638 -3.7605 -0.9653  0.5620
 1376TIP3    H225620   0.506   5.074   1.678 -0.1608  1.5068 -1.4173
 1377TIP3   OH225621   1.957   4.843   2.111  0.0840  0.8801  0.1284
 1377TIP3    H125622   2.033   4.790   2.133  0.0246  0.8080  0.1643
 1377TIP3    H225623   1.896   4.781   2.069  0.0356  0.9308  0.1228
 1378TIP3   OH225624   0.136   3.883   0.054 -0.0413  0.0458  0.7578
 1378TIP3    H125625   0.096   3.968   0.039 -2.7436 -1.5666 -2.4962
 1378TIP3    H225626   0.219   3.887   0.006  1.2435  1.5819  2.9073
 1379TIP3   OH225627   1.726   3.703   4.831  0.1743  0.0215 -0.6216
 1379TIP3    H125628   1.750   3.718   4.923  0.8174  0.5464 -0.8654
 1379TIP3    H225629   1.769   3.621   4.808 -0.5045 -0.4364 -0.2755
 1380TIP3   OH225630   4.314   0.998  15.626  0.0928  0.0086  0.4256
 1380TIP3    H125631   4.337   0.913  15.589 -0.9718  0.6398 -1.8702
 1380TIP3    H225632   4.398   1.038  15.649  0.7628 -0.7829 -0.5500
 1381TIP3   OH225633   1.305   6.494  10.226 -0.7188  0.1662 -0.2721
 1381TIP3    H125634   1.237   6.433  10.197  0.3214 -0.0769 -2.4414
 1381TIP3    H225635   1.385   6.461  10.185  0.1474  2.1183 -0.2586
 1382TIP3   OH225636   2.845   0.630   0.640 -0.3130 -0.5724 -0.0840
 1382TIP3    H125637   2.755   0.646   0.611 -0.6956 -1.1565  0.7658
 1382TIP3    H225638   2.843   0.643   0.734  1.2919  2.9930 -0.4034
 1383TIP3   OH225639   2.452   6.108   4.882  0.3560 -0.3909 -0.2889
 1383TIP3    H125640   2.474   6.110   4.789 -2.9103 -2.9338 -1.2608
 1383TIP3    H225641   2.370   6.157   4.889  1.2713  1.0139  1.5874
 1384TIP3   OH225642   1.490   6.792  12.139  0.2993 -0.2866  0.5543
 1384TIP3    H125643   1.515   6.850  12.211 -1.4352  2.1672 -0.6912
 1384TIP3    H225644   1.506   6.704  12.173 -0.3452  0.7546  3.9052
 1385TIP3   OH225645   0.198   0.227   1.370 -0.1980 -0.5669  0.1919
 1385TIP3    H125646   0.142   0.282   1.315 -2.3941 -2.1012  0.7248
 1385TIP3    H225647   0.153   0.225   1.455  1.8081 -0.2150  1.3262
 1386TIP3   OH225648   2.572   2.835   1.178  0.5848 -0.1596  0.4844
 1386TIP3    H125649   2.663   2.824   1.152  0.2333 -0.4660 -0.7197
 1386TIP3    H225650   2.526   2.853   1.095 -0.1904  1.7088  1.2779
 1387TIP3   OH225651   4.117   1.660  16.486 -0.6350  0.1315  0.3378
 1387TIP3    H125652   4.045   1.628  16.541 -2.1851 -0.1935 -1.7621
 1387TIP3    H225653   4.159   1.581  16.453  0.4313  0.3243  1.1669
 1388TIP3   OH225654   2.752   1.886   4.462 -0.3004  0.1004 -0.4144
 1388TIP3    H125655   2.760   1.812   4.522  0.1932  0.5111  0.0364
 1388TIP3    H225656   2.660   1.888   4.437 -0.5076 -0.0712  0.3344
 1389TIP3   OH225657   5.783   4.108  11.223  0.1272  0.1640 -0.1129
 1389TIP3    H125658   5.815   4.057  11.298 -1.0470 -1.1629 -0.4729
 1389TIP3    H225659   5.801   4.052  11.147 -0.3158  0.7051 -0.6212
 1390TIP3   OH225660   5.152   0.185   1.261  0.1495 -0.1387 -0.1025
 1390TIP3    H125661   5.179   0.262   1.210  0.8754 -0.7663 -0.6823
 1390TIP3    H225662   5.210   0.115   1.232 -0.8828 -1.0671 -0.0157
 1391TIP3   OH225663   2.479   2.725  11.967 -0.4353 -0.0816 -0.0273
 1391TIP3    H125664   2.420   2.673  12.023  0.3587  1.0008  1.9261
 1391TIP3    H225665   2.505   2.798  12.023  0.3444  1.1237 -1.9104
 1392TIP3   OH225666   3.792   2.988   2.337  0.9555 -0.1906  0.1846
 1392TIP3    H125667   3.721   3.042   2.373  1.8603  0.4128  1.1134
 1392TIP3    H225668   3.872   3.037   2.358  1.7947 -1.7844  0.8747
 1393TIP3   OH225669   1.194   0.443  12.279  0.1253  0.0700  0.3000
 1393TIP3    H125670   1.275   0.409  12.316 -0.7352 -1.0616  1.2465
 1393TIP3    H225671   1.198   0.538  12.295  1.1860  0.0050  0.4556
 1394TIP3   OH225672   0.312   1.509   0.902 -0.5639  0.1548  0.4229
 1394TIP3    H125673   0.283   1.438   0.960  1.4302 -1.8083 -0.8076
 1394TIP3    H225674   0.404   1.522   0.925 -0.4098  1.0511 -0.6311
 1395TIP3   OH225675   4.502   2.661  13.034 -0.0578 -0.0285 -0.0358
 1395TIP3    H125676   4.427   2.692  13.085  0.5499 -0.1794  0.9738
 1395TIP3    H225677   4.578   2.676  13.091  0.3752 -2.5294  0.1425
 1396TIP3   OH225678   0.613   3.485   2.752  0.2297  0.4215 -0.0788
 1396TIP3    H125679   0.558   3.442   2.687  0.5629  1.5518 -1.1539
 1396TIP3    H225680   0.673   3.417   2.782 -0.5831 -0.3674 -0.2186
 1397TIP3   OH225681   6.014   0.271  17.040 -0.1007 -0.6649 -0.3090
 1397TIP3    H125682   6.060   0.215  17.101 -0.9627 -0.0834  0.9288
 1397TIP3    H225683   6.038   0.360  17.066  0.0041 -0.4143 -1.2225
 1398TIP3   OH225684   1.375   0.106   1.717 -0.3248  0.0330 -0.2567
 1398TIP3    H125685   1.313   0.178   1.728  0.4527  0.7458 -0.3940
 1398TIP3    H225686   1.386   0.071   1.805 -1.0937 -0.2582 -0.2671
 1399TIP3   OH225687   4.517   4.833   0.469  0.1412  0.1878  0.2001
 1399TIP3    H125688   4.562   4.914   0.443  0.2906  0.0615  0.0661
 1399TIP3    H225689   4.440   4.863   0.518  0.2152  0.4107  0.1808
 1400TIP3   OH225690   0.796   2.862   6.622  0.3725 -0.1360 -0.1519
 1400TIP3    H125691   0.726   2.848   6.559  0.7571  0.6559 -0.7783
 1400TIP3    H225692   0.829   2.774   6.642 -0.3381 -0.4532 -0.3768
 1401TIP3   OH225693   2.402   5.370  12.906 -0.4259  0.3788  0.4341
 1401TIP3    H125694   2.483   5.420  12.896  0.1305  0.1067  2.9521
 1401TIP3    H225695   2.430   5.282  12.929 -1.4289  0.2486  1.2514
 1402TIP3   OH225696   5.608   4.710  10.398 -0.3040  0.0517  0.2372
 1402TIP3    H125697   5.566   4.785  10.355 -1.2836  0.4076  1.7106
 1402TIP3    H225698   5.649   4.748  10.476 -0.3253 -0.8538  0.6946
 1403TIP3   OH225699   6.207   1.446   2.226  0.2583  0.4409 -0.0915
 1403TIP3    H125700   6.299   1.450   2.252  0.2784  0.3852 -0.1512
 1403TIP3    H225701   6.192   1.527   2.178  0.6929 -0.2146 -1.3983
 1404TIP3   OH225702   3.939   6.091   1.551 -0.0271 -0.1045  0.0648
 1404TIP3    H125703   3.900   6.004   1.562  2.1603 -1.4070 -1.7082
 1404TIP3    H225704   3.927   6.133   1.636 -1.2956 -2.0557  0.9374
 1405TIP3   OH225705   3.610   3.149   0.254 -0.0794 -0.1503 -0.2226
 1405TIP3    H125706   3.646   3.178   0.338  0.7443  0.2348 -0.6913
 1405TIP3    H225707   3.680   3.096   0.215 -0.7340 -0.9361 -0.3471
 1406TIP3   OH225708   1.683   6.176  16.940 -0.0551 -0.0501  0.4025
 1406TIP3    H125709   1.641   6.261  16.933 -0.5786 -0.3995 -1.4462
 1406TIP3    H225710   1.776   6.196  16.954 -0.1140  0.8499 -0.3726
 1407TIP3   OH225711   0.127   2.218   0.980 -0.4094  0.2150  0.2530
 1407TIP3    H125712   0.220   2.207   0.958  0.1925  0.4095  2.5043
 1407TIP3    H225713   0.088   2.253   0.900  1.1533 -1.2125 -1.2213
 1408TIP3   OH225714   1.257   6.337  16.871 -0.3603  0.1311 -0.3618
 1408TIP3    H125715   1.183   6.303  16.822 -0.2194 -0.3245 -0.2666
 1408TIP3    H225716   1.227   6.423  16.903 -2.4666 -1.6885  3.1914
 1409TIP3   OH225717   0.843   5.898   0.915  0.2703  0.1122  0.4547
 1409TIP3    H125718   0.862   5.974   0.860 -1.2670  1.3007  1.4650
 1409TIP3    H225719   0.749   5.884   0.905  0.1224 -0.2217  2.0133
 1410TIP3   OH225720   0.250   3.553  10.964  0.5455  0.2632  0.6430
 1410TIP3    H125721   0.183   3.620  10.977 -0.6509 -0.8885  0.6282
 1410TIP3    H225722   0.299   3.583  10.888  1.1727  1.9862  1.6677
 1411TIP3   OH225723   1.618   0.532   4.755  0.0138  0.1927  0.5338
 1411TIP3    H125724   1.616   0.569   4.843  2.6750  0.2502  0.6584
 1411TIP3    H225725   1.573   0.597   4.701  2.2684  2.4544  1.1784
 1412TIP3   OH225726   2.262   3.095   3.630 -0.1495 -0.4158 -0.3430
 1412TIP3    H125727   2.347   3.065   3.661  1.5239  2.5609 -1.5773
 1412TIP3    H225728   2.282   3.175   3.581 -3.8122  1.1699  0.4572
 1413TIP3   OH225729   3.240   6.545  12.444  0.2001  0.3369  0.7805
 1413TIP3    H125730   3.233   6.451  12.428 -2.7564 -0.1191  3.6709
 1413TIP3    H225731   3.176   6.584  12.385  0.8728  0.4770  0.1335
 1414TIP3   OH225732   1.266   3.646   1.137  0.1032  0.0231 -0.1341
 1414TIP3    H125733   1.238   3.573   1.082  1.6206  0.2025 -1.2093
 1414TIP3    H225734   1.263   3.722   1.080  0.1120  0.5132  0.5030
 1415TIP3   OH225735   2.688   5.314  14.918  0.0045  0.3231 -0.2217
 1415TIP3    H125736   2.735   5.262  14.852 -0.7069  0.6180 -0.9735
 1415TIP3    H225737   2.737   5.397  14.922  2.1209 -0.9109  2.1511
 1416TIP3   OH225738   1.395   6.299   3.044  0.7917 -0.0780  0.2412
 1416TIP3    H125739   1.456   6.228   3.064  0.2123 -1.2793 -1.8961
 1416TIP3    H225740   1.446   6.359   2.990  0.3417 -0.7463 -0.9822
 1417TIP3   OH225741   3.302   0.434  12.447 -0.0762 -0.8388 -0.5456
 1417TIP3    H125742   3.394   0.422  12.468 -0.0984 -0.1281  0.0071
 1417TIP3    H225743   3.302   0.483  12.364  0.0275 -1.7765 -1.1072
 1418TIP3   OH225744   2.629   1.462  12.246  0.3392  0.2156  0.3109
 1418TIP3    H125745   2.711   1.483  12.290 -0.7279 -0.0517  2.5291
 1418TIP3    H225746   2.611   1.371  12.270 -0.2851  0.0588 -0.6934
 1419TIP3   OH225747   3.738   4.370  16.576  0.5796  0.2890 -0.1801
 1419TIP3    H125748   3.685   4.327  16.642  0.7422 -0.2491 -0.3962
 1419TIP3    H225749   3.704   4.338  16.493  0.7875  0.4777 -0.3406
 1420TIP3   OH225750   4.909   2.755   3.422  0.1117 -0.2165 -0.5059
 1420TIP3    H125751   4.860   2.834   3.445  0.1713 -0.0382 -0.9829
 1420TIP3    H225752   5.001   2.779   3.435  0.0818 -0.5883  0.5031
 1421TIP3   OH225753   1.406   2.252  15.831  0.6221  0.4480 -0.3122
 1421TIP3    H125754   1.391   2.158  15.820 -2.9504  0.7008  1.0405
 1421TIP3    H225755   1.387   2.288  15.744  1.7188  0.0031 -0.7621
 1422TIP3   OH225756   4.554   0.777  16.547 -0.4734  0.2816  0.4472
 1422TIP3    H125757   4.548   0.684  16.569  0.3435  0.3556  1.0043
 1422TIP3    H225758   4.477   0.815  16.589 -1.5441 -0.3301 -0.8833
 1423TIP3   OH225759   3.433   5.702  11.387 -0.5077  0.5607  0.4849
 1423TIP3    H125760   3.409   5.775  11.444 -1.9376 -0.0126  0.6591
 1423TIP3    H225761   3.352   5.677  11.343 -0.0173 -0.7958  0.2804
 1424TIP3   OH225762   1.226   2.784   4.326 -0.3468  0.4118  0.3966
 1424TIP3    H125763   1.219   2.697   4.367  1.3656 -0.2996 -0.7046
 1424TIP3    H225764   1.260   2.766   4.239  1.3194  2.2803  0.6039
 1425TIP3   OH225765   0.598   4.474  12.611 -0.4255 -0.2389 -0.0603
 1425TIP3    H125766   0.507   4.475  12.582 -0.7134  2.2087  0.6932
 1425TIP3    H225767   0.604   4.545  12.675  1.5901 -1.5521  1.3551
 1426TIP3   OH225768   5.473   1.108   3.981 -0.2469  0.1252 -0.4941
 1426TIP3    H125769   5.396   1.070   3.938 -0.1889  0.1747 -0.6405
 1426TIP3    H225770   5.468   1.201   3.961 -2.1002  0.7985  2.4108
 1427TIP3   OH225771   4.242   3.608  15.984  0.3252  0.4237 -0.8849
 1427TIP3    H125772   4.234   3.606  15.889 -0.0550  0.3664 -0.8520
 1427TIP3    H225773   4.324   3.655  16.000 -1.0885  3.1288 -1.1468
 1428TIP3   OH225774   3.131   1.153  17.104  0.0409  0.1378  0.3276
 1428TIP3    H125775   3.069   1.105  17.050  0.1142 -0.6690  0.9496
 1428TIP3    H225776   3.147   1.234  17.055 -1.7656  0.5341  0.3427
 1429TIP3   OH225777   5.591   2.624   5.831  0.0482 -0.2031 -0.6623
 1429TIP3    H125778   5.594   2.537   5.791 -2.7811 -0.7104  0.0273
 1429TIP3    H225779   5.517   2.621   5.891  1.5285  1.8895  1.4372
 1430TIP3   OH225780   0.829   5.740   1.132 -0.2197  0.4627 -0.0239
 1430TIP3    H125781   0.897   5.673   1.131  0.0946  0.7775  0.0138
 1430TIP3    H225782   0.863   5.809   1.074 -0.4626  0.6628  0.0711
 1431TIP3   OH225783   2.628   2.315   1.539  0.6559  0.1732 -0.0874
 1431TIP3    H125784   2.534   2.296   1.548  0.6082  0.9270  1.2758
 1431TIP3    H225785   2.640   2.398   1.585  1.6752  1.0792 -1.8870
 1432TIP3   OH225786   5.218   3.174   1.787 -0.4568  0.0244  0.5948
 1432TIP3    H125787   5.248   3.162   1.697  0.2126 -1.5328  0.9973
 1432TIP3    H225788   5.156   3.246   1.782  0.2523  0.5726 -0.9592
 1433TIP3   OH225789   4.650   5.037   5.288  0.0313  0.2078  0.2982
 1433TIP3    H125790   4.646   5.127   5.256 -0.7877  0.0835  0.0096
 1433TIP3    H225791   4.740   5.010   5.273 -0.1466  0.3900 -1.2705
 1434TIP3   OH225792   4.572   5.334   4.175  0.5855  0.6260  0.5250
 1434TIP3    H125793   4.587   5.394   4.102  0.9353  1.3902  1.2075
 1434TIP3    H225794   4.615   5.376   4.249  1.5338 -0.8769  0.8499
 1435TIP3   OH225795   1.559   0.238  16.565 -0.0495 -0.0577  0.2851
 1435TIP3    H125796   1.563   0.328  16.599  1.7064 -0.8219  2.4162
 1435TIP3    H225797   1.504   0.243  16.488  1.3567  3.1806 -0.6703
 1436TIP3   OH225798   0.481   1.899  16.049  0.5934 -0.4928  0.1904
 1436TIP3    H125799   0.488   1.992  16.071 -0.1925  0.1733 -2.0869
 1436TIP3    H225800   0.423   1.863  16.116  0.3823  0.8171  0.7434
 1437TIP3   OH225801   6.121   3.059  11.804 -0.1868  0.2041 -0.2453
 1437TIP3    H125802   6.100   2.973  11.767  0.9769 -0.0017 -0.4480
 1437TIP3    H225803   6.149   3.111  11.729 -1.8801  1.1084 -0.2926
 1438TIP3   OH225804   0.415   4.540  15.143  0.1897  0.0178  0.4038
 1438TIP3    H125805   0.470   4.533  15.065 -1.1383 -0.2679 -0.5415
 1438TIP3    H225806   0.445   4.470  15.200  0.0457 -0.8852 -0.5953
 1439TIP3   OH225807   1.773   4.874  16.498  0.0476  0.0560  0.0420
 1439TIP3    H125808   1.737   4.961  16.479 -1.4615 -0.5414  0.0385
 1439TIP3    H225809   1.787   4.834  16.412 -0.7986 -0.2951  0.0593
 1440TIP3   OH225810   6.726   4.317  15.766  0.3036 -0.4679  0.2286
 1440TIP3    H125811   6.754   4.372  15.693  0.3050 -0.3020  0.3536
 1440TIP3    H225812   6.771   4.233  15.752  1.5531  0.0593  0.8933
 1441TIP3   OH225813   3.020   2.015  13.071  0.4836  0.0274  0.5056
 1441TIP3    H125814   3.006   2.038  13.162 -0.1607 -1.5836  0.8495
 1441TIP3    H225815   2.937   2.038  13.027  1.1193  1.6657  0.1181
 1442TIP3   OH225816   6.263   2.986   6.243 -0.4212  0.3096  0.4457
 1442TIP3    H125817   6.298   3.070   6.215 -0.2912  0.1805  0.2197
 1442TIP3    H225818   6.184   3.008   6.293 -0.0689  0.5930  0.8853
 1443TIP3   OH225819   1.750   1.455   5.174  0.1569  0.1981  0.5092
 1443TIP3    H125820   1.678   1.392   5.181  0.6923 -0.3460  1.4361
 1443TIP3    H225821   1.787   1.441   5.087 -1.9072  1.6933 -0.7098
 1444TIP3   OH225822   6.196   0.968  13.344  0.6979  0.1880 -0.6976
 1444TIP3    H125823   6.121   0.950  13.287  0.2504 -0.7614  0.1710
 1444TIP3    H225824   6.171   1.047  13.392  1.2886  1.3093 -2.1244
 1445TIP3   OH225825   3.273   0.996  14.348 -0.2730 -0.0999 -0.8874
 1445TIP3    H125826   3.238   1.071  14.299  0.2123  0.7099 -0.0341
 1445TIP3    H225827   3.296   1.032  14.434 -0.7919 -1.4193 -0.1718
 1446TIP3   OH225828   1.214   2.716  15.717  0.1656 -0.1003  0.1170
 1446TIP3    H125829   1.141   2.732  15.657 -0.1769 -0.2778  0.4820
 1446TIP3    H225830   1.248   2.804  15.736  0.0343 -0.0152 -0.0370
 1447TIP3   OH225831   2.062   5.757  16.132  0.0569  0.3722 -0.1770
 1447TIP3    H125832   2.036   5.667  16.110 -1.6715  0.6448  0.6354
 1447TIP3    H225833   2.135   5.775  16.073 -2.9062  0.3200 -4.3036
 1448TIP3   OH225834   5.319   3.652   0.165 -0.3992  0.3372  0.7366
 1448TIP3    H125835   5.291   3.565   0.193 -1.1221 -0.2182 -1.5315
 1448TIP3    H225836   5.334   3.644   0.071  1.4971  2.1912  0.8151
 1449TIP3   OH225837   6.337   2.215  17.226  0.5528  0.2801  0.2232
 1449TIP3    H125838   6.335   2.122  17.248 -0.2716 -0.1519 -1.4737
 1449TIP3    H225839   6.394   2.254  17.292 -0.3868 -1.1450  1.9599
 1450TIP3   OH225840   5.609   0.252  16.700  0.1280 -0.5071 -0.0049
 1450TIP3    H125841   5.574   0.171  16.736  0.2067  0.0899  1.4728
 1450TIP3    H225842   5.701   0.254  16.728 -0.0973  0.4867  0.7396
 1451TIP3   OH225843   4.503   6.402   4.495 -0.0497  0.0204  0.2831
 1451TIP3    H125844   4.498   6.489   4.457 -1.2089 -0.5297 -0.8930
 1451TIP3    H225845   4.596   6.381   4.495  0.1954  1.0677  0.1436
 1452TIP3   OH225846   4.128   4.410  13.878 -0.3929  0.7060 -0.1175
 1452TIP3    H125847   4.102   4.489  13.924  0.3285  0.3956  0.8530
 1452TIP3    H225848   4.078   4.340  13.920 -1.5253  0.6919 -1.4003
 1453TIP3   OH225849   4.693   5.654   5.352 -0.1455 -0.6580 -0.6891
 1453TIP3    H125850   4.684   5.711   5.428  1.3608 -2.7842  1.2337
 1453TIP3    H225851   4.604   5.647   5.317 -1.1273 -0.4693  1.5733
 1454TIP3   OH225852   2.700   6.641  12.008 -0.1354 -0.0117 -0.1714
 1454TIP3    H125853   2.667   6.637  12.098  0.1903 -0.2089 -0.0601
 1454TIP3    H225854   2.645   6.707  11.966  0.7312  1.2538  0.6103
 1455TIP3   OH225855   6.550   2.053   1.972 -0.6681 -0.4265  0.7063
 1455TIP3    H125856   6.549   1.959   1.954 -1.8854 -0.4026  0.6039
 1455TIP3    H225857   6.634   2.083   1.936  0.1082 -1.5926  1.4383
 1456TIP3   OH225858   0.332   5.828   2.776  0.6797 -0.2994 -0.1285
 1456TIP3    H125859   0.377   5.898   2.824  0.6536 -1.5170  1.7598
 1456TIP3    H225860   0.307   5.765   2.843 -1.7138 -0.8520 -1.4235
 1457TIP3   OH225861   1.310   4.897  11.136 -0.1208  0.1662 -0.6145
 1457TIP3    H125862   1.267   4.830  11.083 -0.1092  0.7562 -1.3788
 1457TIP3    H225863   1.385   4.926  11.083  1.1280 -0.6872  0.5912
 1458TIP3   OH225864   4.341   5.933  11.090 -0.0725 -0.0312 -0.0286
 1458TIP3    H125865   4.427   5.949  11.131 -0.2591  0.6272  0.1160
 1458TIP3    H225866   4.287   6.007  11.119 -1.2452 -1.3826  1.3968
 1459TIP3   OH225867   0.918   1.926  13.821 -0.0011  0.3852 -0.4747
 1459TIP3    H125868   0.933   1.998  13.882  0.4404 -0.4952  0.4885
 1459TIP3    H225869   0.856   1.961  13.757 -2.3130  0.6500  1.7654
 1460TIP3   OH225870   0.326   3.583   0.187  0.2028  0.5207  0.4456
 1460TIP3    H125871   0.356   3.674   0.189 -0.6222  0.7871  1.4354
 1460TIP3    H225872   0.232   3.589   0.204 -0.0041 -0.4669 -0.2650
 1461TIP3   OH225873   4.174   3.373  16.104  0.0075 -0.2176  0.0959
 1461TIP3    H125874   4.200   3.463  16.084 -2.5658  0.2770 -1.3481
 1461TIP3    H225875   4.096   3.357  16.051 -1.3395 -2.3278  2.4905
 1462TIP3   OH225876   0.917   2.479   2.413  0.2432  0.2692  0.2454
 1462TIP3    H125877   0.955   2.476   2.325 -3.1633  0.1967 -1.3683
 1462TIP3    H225878   0.870   2.396   2.421  2.1085 -0.6422  3.0575
 1463TIP3   OH225879   2.720   0.619   6.279  0.3149  0.4230  0.2639
 1463TIP3    H125880   2.726   0.703   6.234  1.3842 -0.6742 -1.7776
 1463TIP3    H225881   2.788   0.565   6.238 -0.4330 -1.4872  1.4196
 1464TIP3   OH225882   2.736   2.835   5.775  0.4979 -0.3405  0.7696
 1464TIP3    H125883   2.640   2.830   5.773  0.4144  0.7739  1.2272
 1464TIP3    H225884   2.758   2.901   5.710  1.2959 -3.5696 -2.5856
 1465TIP3   OH225885   4.768   0.471  13.026 -0.3280  0.0229  0.0605
 1465TIP3    H125886   4.790   0.402  13.088 -0.5440 -1.1831 -1.1501
 1465TIP3    H225887   4.722   0.537  13.078  0.3467 -0.4903  1.3469
 1466TIP3   OH225888   6.061   3.487   5.147 -0.4537  0.2822 -0.5530
 1466TIP3    H125889   6.146   3.504   5.189  0.0466  0.7850 -1.7140
 1466TIP3    H225890   6.081   3.423   5.079 -0.8396  1.0229 -1.3776
 1467TIP3   OH225891   6.550   5.487  13.669 -1.2152  0.8460 -0.1610
 1467TIP3    H125892   6.509   5.506  13.754  0.4641  0.7913  0.7149
 1467TIP3    H225893   6.588   5.400  13.680 -1.1272  0.7676 -1.0371
 1468TIP3   OH225894   5.462   1.372   4.826  0.3180 -0.6593 -0.2423
 1468TIP3    H125895   5.548   1.333   4.842  0.2399 -0.3611  1.0206
 1468TIP3    H225896   5.481   1.463   4.803  0.3244 -0.3260  0.9911
 1469TIP3   OH225897   4.783   2.734   3.671  0.8012  0.7209  0.0470
 1469TIP3    H125898   4.841   2.697   3.604 -0.8249  0.9679 -1.5587
 1469TIP3    H225899   4.773   2.664   3.735 -0.1614 -0.7540 -1.6243
 1470TIP3   OH225900   4.506   5.740  10.445 -0.0743  0.0445  0.1641
 1470TIP3    H125901   4.548   5.796  10.510  0.5863 -0.0576 -0.1652
 1470TIP3    H225902   4.521   5.651  10.477  2.2164 -0.1481 -1.2136
 1471TIP3   OH225903   1.302   4.377  10.695  0.2169  0.0021 -0.1062
 1471TIP3    H125904   1.369   4.396  10.629  1.3421 -2.6234  0.1615
 1471TIP3    H225905   1.333   4.423  10.774  0.5504  0.5316 -0.5354
 1472TIP3   OH225906   5.676   6.817  11.136  0.8380  0.2754 -0.0376
 1472TIP3    H125907   5.629   6.740  11.166  0.3850  0.7653  0.5364
 1472TIP3    H225908   5.730   6.786  11.063 -1.8273  0.0583 -2.0851
 1473TIP3   OH225909   0.275   0.932  14.361 -0.2997 -0.2781  0.2673
 1473TIP3    H125910   0.312   1.012  14.323  0.3613 -0.2564  0.9405
 1473TIP3    H225911   0.180   0.946  14.357 -0.3978 -0.9467 -2.8452
 1474TIP3   OH225912   1.206   3.537  15.202  0.0618 -0.2598  0.0326
 1474TIP3    H125913   1.179   3.445  15.194  1.7382 -1.1824  3.1047
 1474TIP3    H225914   1.133   3.578  15.249 -0.3166 -0.2220 -0.5790
 1475TIP3   OH225915   0.109   5.985   5.762  0.5036 -0.1620  0.3615
 1475TIP3    H125916   0.079   6.061   5.812  0.1395 -0.9320  1.3439
 1475TIP3    H225917   0.029   5.939   5.739  0.7532 -0.5332  0.2350
 1476TIP3   OH225918   4.411   4.117   1.656  0.0882 -0.0915  0.2016
 1476TIP3    H125919   4.484   4.159   1.701 -0.4438  0.0885  0.9093
 1476TIP3    H225920   4.349   4.188   1.637 -0.5778 -0.4556  0.9411
 1477TIP3   OH225921   4.107   6.183  14.791  0.0384  0.3590  0.1314
 1477TIP3    H125922   4.128   6.218  14.878  1.4618 -0.1342  0.0216
 1477TIP3    H225923   4.027   6.131  14.804  0.5625 -0.1978  1.2918
 1478TIP3   OH225924   0.628   4.360  16.986 -0.1073  0.5795 -0.0949
 1478TIP3    H125925   0.576   4.349  16.906  0.1165  0.0766 -0.1798
 1478TIP3    H225926   0.580   4.425  17.037 -0.7924  0.1750 -0.1978
 1479TIP3   OH225927   0.853   5.805  16.118  0.0685 -0.2366  0.0584
 1479TIP3    H125928   0.860   5.782  16.211  1.6659 -0.7281 -0.1493
 1479TIP3    H225929   0.818   5.726  16.077 -1.9781  0.4497  0.4045
 1480TIP3   OH225930   5.111   0.062   4.479  0.8235  0.2744  0.6984
 1480TIP3    H125931   5.174   0.092   4.413  0.9016 -0.1832  0.5612
 1480TIP3    H225932   5.130  -0.032   4.489 -0.1313  0.0352  0.3352
 1481TIP3   OH225933   3.014   6.172  16.380  0.0195  0.2454 -0.1360
 1481TIP3    H125934   2.976   6.183  16.468  0.8763  0.3792  0.2237
 1481TIP3    H225935   3.045   6.260  16.357 -1.2019  0.4623 -1.0582
 1482TIP3   OH225936   6.443   4.720  12.582  0.1632 -0.0926  0.4489
 1482TIP3    H125937   6.383   4.682  12.518 -0.1760  2.8385 -1.1836
 1482TIP3    H225938   6.387   4.762  12.646  0.5290 -1.7545  1.9409
 1483TIP3   OH225939   0.645   4.830   3.818 -0.5143 -0.1456 -0.1025
 1483TIP3    H125940   0.739   4.847   3.828 -0.2957 -0.9885 -0.6236
 1483TIP3    H225941   0.603   4.910   3.850  0.3145 -0.3189  1.5175
 1484TIP3   OH225942   1.128   6.386  13.041  0.3433 -0.1909  0.1708
 1484TIP3    H125943   1.179   6.382  13.123 -0.7152  0.2102  0.8631
 1484TIP3    H225944   1.191   6.415  12.976  1.1686 -0.3433  0.8745
 1485TIP3   OH225945   2.441   0.128  14.189 -0.1230  0.0821 -0.0083
 1485TIP3    H125946   2.521   0.077  14.204  0.4421  0.6521 -1.0063
 1485TIP3    H225947   2.391   0.118  14.270  0.4303 -1.2283  0.1976
 1486TIP3   OH225948   1.510   4.025  12.222  0.2290  0.3790 -0.1031
 1486TIP3    H125949   1.551   3.951  12.178  0.3745  0.8574 -0.7867
 1486TIP3    H225950   1.495   4.089  12.152 -2.8406 -0.2615 -0.1526
 1487TIP3   OH225951   0.189   0.830  13.657 -0.3979 -0.9854  0.0684
 1487TIP3    H125952   0.167   0.922  13.637 -1.3815 -0.8240  1.7116
 1487TIP3    H225953   0.214   0.831  13.749 -0.5069 -2.3924  0.1280
 1488TIP3   OH225954   2.523   5.939   1.750 -0.0071  0.0693  0.5378
 1488TIP3    H125955   2.567   5.895   1.677 -0.8837 -0.6835  0.4474
 1488TIP3    H225956   2.564   5.902   1.828 -0.8831 -1.1036  0.4685
 1489TIP3   OH225957   5.486   3.421  15.037 -0.6196  0.0361 -0.3997
 1489TIP3    H125958   5.531   3.481  15.097 -0.2642 -2.7800  2.4323
 1489TIP3    H225959   5.406   3.468  15.011 -1.3209  1.1352  3.1665
 1490TIP3   OH225960   4.231   0.778  10.736  0.2672  0.7022 -0.1133
 1490TIP3    H125961   4.272   0.754  10.819 -1.0205  0.9452  0.6165
 1490TIP3    H225962   4.305   0.804  10.680  1.5640 -2.7253 -0.2719
 1491TIP3   OH225963   1.134   6.034   4.587 -0.7135 -0.3435 -0.4134
 1491TIP3    H125964   1.160   5.991   4.669  0.2041 -0.7830 -0.9199
 1491TIP3    H225965   1.080   5.968   4.542 -0.3674 -0.4828 -0.6215
 1492TIP3   OH225966   6.622   3.633   2.384  0.0050  0.0292  0.3097
 1492TIP3    H125967   6.581   3.631   2.297  0.4637 -0.7514  0.1043
 1492TIP3    H225968   6.565   3.690   2.436 -1.0539 -0.6142 -0.1160
 1493TIP3   OH225969   0.132   5.426  13.195 -0.1685  0.1144 -0.8930
 1493TIP3    H125970   0.186   5.348  13.182  0.3141  0.4762 -1.0698
 1493TIP3    H225971   0.187   5.486  13.244 -2.3855 -1.7443  4.6461
 1494TIP3   OH225972   2.815   1.223  10.451 -0.0142 -0.0699  0.4392
 1494TIP3    H125973   2.803   1.275  10.371  0.7267  0.8691  0.9130
 1494TIP3    H225974   2.904   1.187  10.443 -0.8537 -2.1323 -0.3397
 1495TIP3   OH225975   0.326   1.784  13.315 -0.4713 -0.2206 -0.4753
 1495TIP3    H125976   0.382   1.751  13.245  0.6881  2.2496 -0.7947
 1495TIP3    H225977   0.387   1.804  13.386 -0.9621  2.0711 -0.6510
 1496TIP3   OH225978   3.289   2.085   0.586 -0.5887 -0.1621 -0.6843
 1496TIP3    H125979   3.330   2.020   0.644 -1.3605 -1.4476 -1.5261
 1496TIP3    H225980   3.344   2.162   0.594  0.7654 -1.1422 -0.1678
 1497TIP3   OH225981   1.369   3.001  12.722  0.5278 -0.5813  0.3018
 1497TIP3    H125982   1.284   3.041  12.742  1.1560  0.3263  1.2595
 1497TIP3    H225983   1.432   3.072  12.733  1.2313 -0.6195 -2.6272
 1498TIP3   OH225984   5.188   6.492  13.973  0.1733  0.5524 -0.8937
 1498TIP3    H125985   5.218   6.583  13.970 -0.7853  0.9059 -0.2780
 1498TIP3    H225986   5.256   6.443  13.927 -0.2620  1.8391 -3.0424
 1499TIP3   OH225987   0.314   5.603  13.303  0.6756 -0.3095  0.3138
 1499TIP3    H125988   0.402   5.579  13.335 -0.1462 -2.2071  1.3240
 1499TIP3    H225989   0.272   5.642  13.379  0.7903  1.0842 -0.3198
 1500TIP3   OH225990   2.833   4.197  15.419 -1.3102  0.2465 -0.2260
 1500TIP3    H125991   2.857   4.112  15.382 -0.3778  0.9841 -1.3495
 1500TIP3    H225992   2.859   4.191  15.511 -1.3571 -0.7197 -0.2652
 1501TIP3   OH225993   6.442   1.475   2.361 -0.3338  0.1671 -0.4706
 1501TIP3    H125994   6.519   1.495   2.308 -0.4665 -0.1496 -0.7902
 1501TIP3    H225995   6.448   1.534   2.436  0.1603  0.2202 -0.5506
 1502TIP3   OH225996   1.884   1.919   3.930 -0.1299  0.4174  0.0188
 1502TIP3    H125997   1.833   1.844   3.901 -1.6543  0.3612  2.5786
 1502TIP3    H225998   1.820   1.982   3.961  1.2631  1.1557  1.5508
 1503TIP3   OH225999   4.384   6.568  16.165 -0.2777  0.6224  0.3000
 1503TIP3    H126000   4.366   6.495  16.225  0.9937  1.2212  1.4754
 1503TIP3    H226001   4.324   6.637  16.192  0.0344  0.7623  0.6385
 1504TIP3   OH226002   2.763   2.071  12.967  0.7114 -0.5657 -0.0029
 1504TIP3    H126003   2.709   2.148  12.951 -1.6348 -2.0741  0.0627
 1504TIP3    H226004   2.727   2.004  12.909 -0.0030 -2.7054  2.6544
 1505TIP3   OH226005   0.520   1.245   2.671 -0.0690 -0.5776 -0.4556
 1505TIP3    H126006   0.549   1.307   2.604 -0.7622  0.0158 -0.2113
 1505TIP3    H226007   0.581   1.259   2.744  0.6568 -1.1908 -0.9218
 1506TIP3   OH226008   6.602   2.927   3.191  0.3526 -0.4195 -0.0164
 1506TIP3    H126009   6.651   3.004   3.164 -0.5447 -0.8178 -3.2992
 1506TIP3    H226010   6.513   2.958   3.204  0.5234 -0.4749  1.4531
 1507TIP3   OH226011   2.119   5.476   0.152 -0.7153  0.3389 -0.1950
 1507TIP3    H126012   2.180   5.543   0.183  0.7381 -1.3850  0.8568
 1507TIP3    H226013   2.065   5.456   0.229 -1.2776  0.4363 -0.5593
 1508TIP3   OH226014   6.048   1.638   0.977 -0.0598 -0.3438  0.4875
 1508TIP3    H126015   6.067   1.727   1.006  1.3686 -0.4264 -0.1034
 1508TIP3    H226016   6.092   1.582   1.041  0.6207 -0.5664 -0.1451
 1509TIP3   OH226017   2.253   2.945   4.867  0.1318 -0.3970  0.1239
 1509TIP3    H126018   2.303   3.024   4.886  2.0520 -1.5887  0.3151
 1509TIP3    H226019   2.319   2.882   4.837 -1.3621 -1.8657 -0.2076
 1510TIP3   OH226020   2.457   4.509   1.261 -0.2477 -0.2962 -0.0574
 1510TIP3    H126021   2.522   4.561   1.214  2.3458  0.2741  3.7284
 1510TIP3    H226022   2.467   4.420   1.227 -0.9377  0.5644 -2.7984
 1511TIP3   OH226023   3.953   6.233  13.568  0.2886  0.0791  0.0619
 1511TIP3    H126024   3.974   6.326  13.562 -1.8289  0.6610  0.7013
 1511TIP3    H226025   3.965   6.212  13.661 -0.9966  0.2108  0.2728
 1512TIP3   OH226026   0.807   6.233  16.932 -0.2445 -0.2907 -0.1605
 1512TIP3    H126027   0.863   6.210  17.007  0.4427 -1.1559 -0.9116
 1512TIP3    H226028   0.736   6.169  16.935 -1.5424  1.1493  1.1139
 1513TIP3   OH226029   1.636   6.322  16.049  0.0955 -0.3230 -0.7713
 1513TIP3    H126030   1.588   6.242  16.069 -0.0474 -0.2152 -0.6850
 1513TIP3    H226031   1.648   6.320  15.955  1.5927 -1.3050 -0.5865
 1514TIP3   OH226032   0.245   3.340   3.699  0.0407  0.6210  0.5578
 1514TIP3    H126033   0.340   3.351   3.690  0.1660 -0.8395 -0.2013
 1514TIP3    H226034   0.223   3.388   3.779  1.4592  0.7213  0.9161
 1515TIP3   OH226035   1.262   5.568  11.490  0.5518  0.4379  0.0919
 1515TIP3    H126036   1.302   5.555  11.405  0.5266 -0.3628  0.1930
 1515TIP3    H226037   1.226   5.482  11.513  1.4645  0.3555  1.3603
 1516TIP3   OH226038   2.749   2.368  11.028  0.1011  0.2955 -0.7183
 1516TIP3    H126039   2.660   2.379  10.993 -0.3045  0.6004  0.3635
 1516TIP3    H226040   2.736   2.358  11.123  1.4139  4.2795  0.0784
 1517TIP3   OH226041   0.763   1.475  17.001  0.4408  0.1997  0.4991
 1517TIP3    H126042   0.843   1.427  16.982  1.3964  1.9125 -0.0277
 1517TIP3    H226043   0.701   1.447  16.934  1.1029  0.0276 -0.0436
 1518TIP3   OH226044   5.945   5.746   0.147 -0.2141 -0.6043  0.7673
 1518TIP3    H126045   5.874   5.690   0.116 -0.0432 -0.5726  0.3033
 1518TIP3    H226046   5.909   5.835   0.143  0.3923 -0.3862 -1.1679
 1519TIP3   OH226047   2.910   4.240   1.308 -0.2256 -0.2976  0.4472
 1519TIP3    H126048   2.965   4.306   1.350 -1.7661  1.6582 -0.4929
 1519TIP3    H226049   2.847   4.214   1.375  0.0488 -0.4553  0.6493
 1520TIP3   OH226050   2.621   1.792  11.775 -0.0203 -0.1942 -0.7409
 1520TIP3    H126051   2.547   1.789  11.714  0.5642 -1.9100 -1.4264
 1520TIP3    H226052   2.696   1.762  11.723  1.1493  1.3637 -0.0193
 1521TIP3   OH226053   2.198   6.123   0.472  0.3395  0.0271  0.0602
 1521TIP3    H126054   2.119   6.143   0.422  0.5126  0.1902 -0.1501
 1521TIP3    H226055   2.206   6.196   0.534  0.5814  0.2530 -0.2328
 1522TIP3   OH226056   3.600   6.278   1.045 -0.5911  0.9315 -0.9434
 1522TIP3    H126057   3.612   6.358   0.994  2.3585  1.0882 -0.1731
 1522TIP3    H226058   3.657   6.214   1.004  1.8916  1.0547  1.9627
 1523TIP3   OH226059   3.500   3.225  15.653 -0.6403 -0.3495  0.5868
 1523TIP3    H126060   3.454   3.204  15.571  0.2861 -1.9201  0.4409
 1523TIP3    H226061   3.490   3.320  15.662  0.6317  0.1401 -2.2077
 1524TIP3   OH226062   2.115   4.911   5.135  0.0448 -0.8282 -0.7772
 1524TIP3    H126063   2.068   4.845   5.085 -2.9429 -0.6175  1.5226
 1524TIP3    H226064   2.160   4.861   5.203 -0.0982 -0.6948 -0.5860
 1525TIP3   OH226065   6.157   2.422   2.137 -0.0598 -0.3555 -0.5010
 1525TIP3    H126066   6.210   2.394   2.212 -0.6592 -1.0699 -0.3324
 1525TIP3    H226067   6.216   2.414   2.063  0.4039 -0.0828 -0.1647
 1526TIP3   OH226068   2.907   0.660  12.143 -0.6154 -0.1223  0.5878
 1526TIP3    H126069   2.917   0.742  12.095 -0.9176 -0.6360 -0.3616
 1526TIP3    H226070   2.821   0.667  12.185  0.1404  0.8298  2.0724
 1527TIP3   OH226071   5.945   6.147  10.803 -0.3673 -0.2109  0.2370
 1527TIP3    H126072   5.851   6.131  10.811 -0.7667 -0.3559 -3.2365
 1527TIP3    H226073   5.982   6.061  10.788  0.1538 -0.0000  0.3064
 1528TIP3   OH226074   3.645   4.349  13.456 -0.1524  0.2571  0.5029
 1528TIP3    H126075   3.662   4.432  13.500  0.3464  0.2419  0.3487
 1528TIP3    H226076   3.633   4.372  13.364  2.1976 -0.0463  0.0602
 1529TIP3   OH226077   5.736   3.740   3.629  0.6015  1.0493  0.3070
 1529TIP3    H126078   5.685   3.733   3.548 -1.1071  1.5578  1.2924
 1529TIP3    H226079   5.703   3.820   3.671 -0.5813 -0.6169  2.8035
 1530TIP3   OH226080   5.802   3.012   3.690 -0.0774 -0.5882 -0.3499
 1530TIP3    H126081   5.724   3.063   3.710 -0.4850 -0.7388 -1.5154
 1530TIP3    H226082   5.872   3.077   3.683  0.7876 -0.6864  4.3440
 1531TIP3   OH226083   0.845   0.862   0.275 -0.5084  0.4700  0.1408
 1531TIP3    H126084   0.866   0.955   0.268  1.5109 -0.0402 -2.1257
 1531TIP3    H226085   0.753   0.856   0.247 -0.7528  1.7726  0.5967
 1532TIP3   OH226086   5.217   6.160  13.551 -0.2529  0.1499  0.3145
 1532TIP3    H126087   5.275   6.113  13.491 -2.5184  0.2827 -2.1906
 1532TIP3    H226088   5.259   6.245  13.564  0.3711  0.0770 -1.0480
 1533TIP3   OH226089   4.018   5.047   3.989  0.5346  0.0982 -0.4016
 1533TIP3    H126090   3.981   5.101   4.057  1.9549 -0.9992  1.3500
 1533TIP3    H226091   4.070   4.981   4.036 -0.5554 -2.3842 -2.4048
 1534TIP3   OH226092   5.647   1.212   2.506  0.2729  0.3974  0.5606
 1534TIP3    H126093   5.653   1.277   2.576  0.1262  0.9101  0.1007
 1534TIP3    H226094   5.568   1.162   2.527  0.4205  0.3230  0.9497
 1535TIP3   OH226095   0.559   4.527  13.982  0.5142  0.3096 -0.0172
 1535TIP3    H126096   0.635   4.540  14.039 -1.5997  0.8378  2.8912
 1535TIP3    H226097   0.558   4.605  13.925  1.3284  1.0094  0.8884
 1536TIP3   OH226098   5.674   1.833   3.372 -0.3974 -0.0344  0.0326
 1536TIP3    H126099   5.737   1.765   3.351  0.9094  1.0051  0.4680
 1536TIP3    H226100   5.654   1.874   3.288  0.7922  0.6988  0.0896
 1537TIP3   OH226101   4.556   4.184   2.032  0.5628  0.0446  0.1781
 1537TIP3    H126102   4.587   4.165   1.944 -0.7544 -0.2676 -0.2363
 1537TIP3    H226103   4.543   4.279   2.033  2.3274  0.3137  0.6463
 1538TIP3   OH226104   4.872   3.904   0.404 -0.2617 -0.0034 -0.0884
 1538TIP3    H126105   4.958   3.876   0.374 -0.1146 -0.1859  0.4920
 1538TIP3    H226106   4.811   3.861   0.343  0.0731  0.6355 -0.8862
 1539TIP3   OH226107   4.313   5.128   5.964 -0.4769 -0.5308 -0.1624
 1539TIP3    H126108   4.313   5.124   5.868  2.4730 -1.6332 -0.2327
 1539TIP3    H226109   4.237   5.076   5.990 -0.4622 -1.5221 -1.9303
 1540TIP3   OH226110   0.356   4.208  11.261  0.0792  0.1959 -0.0753
 1540TIP3    H126111   0.381   4.117  11.279  0.1528 -0.1930 -1.8672
 1540TIP3    H226112   0.438   4.256  11.258  0.3267 -0.2358 -1.6814
 1541TIP3   OH226113   6.480   0.361  11.560 -0.1112 -0.2572 -0.1024
 1541TIP3    H126114   6.497   0.435  11.501 -0.1411 -0.4174 -0.3132
 1541TIP3    H226115   6.388   0.339  11.544 -0.7649  1.0761  1.5539
 1542TIP3   OH226116   6.127   0.749   2.881  0.3392 -0.5379  1.0760
 1542TIP3    H126117   6.184   0.781   2.811  0.9445 -1.7949  0.9558
 1542TIP3    H226118   6.130   0.817   2.948  0.7080  0.1364  0.3863
 1543TIP3   OH226119   0.246   3.832  12.545  0.4110  0.5494 -0.1119
 1543TIP3    H126120   0.308   3.837  12.473  0.2075  1.0011 -0.2576
 1543TIP3    H226121   0.164   3.803  12.505 -0.2703  2.7950 -0.4298
 1544TIP3   OH226122   5.201   5.029   1.191 -0.2375 -0.1271  0.7072
 1544TIP3    H126123   5.294   5.035   1.213 -0.4755  0.1229  1.6712
 1544TIP3    H226124   5.160   4.990   1.268 -1.2683  1.8756  1.2494
 1545TIP3   OH226125   6.178   6.631   3.822  0.1963  0.2984 -0.0315
 1545TIP3    H126126   6.126   6.576   3.880 -0.2746  1.7387  0.9545
 1545TIP3    H226127   6.254   6.577   3.799 -2.0349 -2.1996 -2.2139
 1546TIP3   OH226128   3.291   2.934  12.213 -0.2022  0.9097  0.1050
 1546TIP3    H126129   3.242   3.007  12.175  0.5411  2.2884  1.6756
 1546TIP3    H226130   3.357   2.976  12.269 -0.1308 -0.9665  1.5158
 1547TIP3   OH226131   0.735   2.534   3.630  0.2357 -0.3448  0.0188
 1547TIP3    H126132   0.812   2.483   3.609  0.7668 -0.4770  2.0929
 1547TIP3    H226133   0.765   2.625   3.630  0.0181 -0.2676 -0.6518
 1548TIP3   OH226134   0.566   3.303  14.586  0.1596  0.7279  0.1460
 1548TIP3    H126135   0.536   3.370  14.525  2.2381  1.0535 -0.6173
 1548TIP3    H226136   0.654   3.331  14.611  0.7199 -1.2167  0.5369
 1549TIP3   OH226137   5.985   1.870   3.318 -0.2411 -0.1884  0.2643
 1549TIP3    H126138   5.972   1.777   3.335 -0.8741 -0.3473 -1.0097
 1549TIP3    H226139   6.078   1.877   3.294 -0.2750 -0.5514  0.0233
 1550TIP3   OH226140   5.260   2.722  14.716 -0.0114  0.1055 -0.7778
 1550TIP3    H126141   5.325   2.756  14.777 -0.0453 -2.8926  1.1690
 1550TIP3    H226142   5.304   2.721  14.631  1.8732 -0.1630  0.1626
 1551TIP3   OH226143   2.315   3.310  11.527  0.1303  0.1955  0.2439
 1551TIP3    H126144   2.375   3.254  11.576  0.2202  1.2160  1.3516
 1551TIP3    H226145   2.285   3.374  11.591 -1.0466  0.5694 -0.6507
 1552TIP3   OH226146   1.559   2.143  14.348 -0.7184  0.1571 -0.5576
 1552TIP3    H126147   1.634   2.155  14.289 -0.2543  0.9129  0.1546
 1552TIP3    H226148   1.585   2.188  14.428 -0.7606 -2.0248  0.7439
 1553TIP3   OH226149   3.271   5.886   4.912 -0.4390 -0.2417 -0.2575
 1553TIP3    H126150   3.239   5.825   4.846 -5.7859 -0.1209  1.7539
 1553TIP3    H226151   3.262   5.972   4.872 -1.0225 -0.3165 -0.2887
 1554TIP3   OH226152   1.948   3.477  16.610  0.0393  0.3333 -0.5925
 1554TIP3    H126153   1.860   3.515  16.600  0.4251  2.0705  1.8314
 1554TIP3    H226154   2.007   3.552  16.609  1.5396 -0.8051 -2.0409
 1555TIP3   OH226155   6.455   3.228   5.235 -0.3575 -0.6674 -0.1977
 1555TIP3    H126156   6.506   3.270   5.165 -1.6330  0.5648 -0.4207
 1555TIP3    H226157   6.467   3.134   5.219  0.4143 -0.4090 -1.2993
 1556TIP3   OH226158   2.516   3.724   0.444  0.3275 -0.1495  0.1913
 1556TIP3    H126159   2.528   3.818   0.429  1.2082 -0.2316  0.2960
 1556TIP3    H226160   2.425   3.707   0.421 -0.5395  1.1500  2.3178
 1557TIP3   OH226161   0.063   3.704  12.308  0.3589 -0.3576 -0.2729
 1557TIP3    H126162   0.077   3.768  12.238 -0.2675 -1.4997 -1.4947
 1557TIP3    H226163   0.084   3.620  12.267  2.1641 -0.8810  1.5846
 1558TIP3   OH226164   3.169   2.271   3.767 -0.0660 -0.5563 -0.6741
 1558TIP3    H126165   3.165   2.179   3.742 -0.5818 -0.6140 -0.3919
 1558TIP3    H226166   3.079   2.302   3.762 -0.1196 -0.4386  0.5787
 1559TIP3   OH226167   0.056   1.213  12.451 -0.4427  0.4653 -0.6368
 1559TIP3    H126168   0.091   1.124  12.456 -1.3137  0.1668  2.5299
 1559TIP3    H226169  -0.036   1.201  12.429 -0.8025  0.4572  0.7909
 1560TIP3   OH226170   0.419   4.919  12.370  0.1913  0.2081  0.6070
 1560TIP3    H126171   0.430   5.014  12.366 -0.7368  0.2754 -1.0969
 1560TIP3    H226172   0.497   4.884  12.328 -0.7055  0.3472 -1.2898
 1561TIP3   OH226173   6.626   1.617   0.531 -0.5004 -0.9325 -0.2517
 1561TIP3    H126174   6.683   1.665   0.592 -0.5933 -0.1492 -0.7565
 1561TIP3    H226175   6.686   1.563   0.479 -0.0052  0.9082 -1.7128
 1562TIP3   OH226176   3.477   1.335   3.728 -0.2556 -0.5745 -0.1031
 1562TIP3    H126177   3.494   1.294   3.812  2.1045  1.0554  0.3032
 1562TIP3    H226178   3.445   1.264   3.673  0.0078 -2.0944  1.6113
 1563TIP3   OH226179   1.439   5.772  11.332 -0.7038  0.2474 -0.1281
 1563TIP3    H126180   1.382   5.738  11.264 -0.0668 -0.8315 -0.1380
 1563TIP3    H226181   1.518   5.718  11.327  0.2287  1.5319  0.0490
 1564TIP3   OH226182   1.738   3.689   4.317  0.0552 -0.0510 -0.0855
 1564TIP3    H126183   1.741   3.783   4.296 -0.8677  0.2933  1.1829
 1564TIP3    H226184   1.674   3.683   4.388 -1.2132 -1.8657 -1.3008
 1565TIP3   OH226185   3.998   1.511   1.330  0.0055 -0.2561  0.6846
 1565TIP3    H126186   4.039   1.442   1.277 -0.2026  0.3627 -0.3149
 1565TIP3    H226187   3.951   1.464   1.398  1.9717 -1.0285  1.6096
 1566TIP3   OH226188   5.453   3.642   6.262 -0.3615  0.1890  0.4606
 1566TIP3    H126189   5.517   3.619   6.330  0.4120  1.2628  0.1151
 1566TIP3    H226190   5.496   3.709   6.210 -2.2852  1.9831  1.0383
 1567TIP3   OH226191   3.945   4.965  16.213  0.1538 -0.1255  0.2273
 1567TIP3    H126192   4.012   5.015  16.258 -0.4616  0.9810 -0.0478
 1567TIP3    H226193   3.913   5.024  16.145 -1.5588 -0.3638  0.7791
 1568TIP3   OH226194   1.244   1.065  15.765 -0.2912 -0.1345 -0.2363
 1568TIP3    H126195   1.258   1.022  15.849  0.4117 -0.2661 -0.4219
 1568TIP3    H226196   1.228   1.157  15.788 -0.2586 -0.1992  0.0487
 1569TIP3   OH226197   6.362   4.464   5.069 -0.8550  0.2915 -0.3537
 1569TIP3    H126198   6.416   4.520   5.125 -0.4711  1.6200 -1.9797
 1569TIP3    H226199   6.419   4.392   5.045 -0.0039  1.2918 -1.4438
 1570TIP3   OH226200   0.659   6.628  12.662  0.0630  0.0665 -0.5847
 1570TIP3    H126201   0.579   6.579  12.642  0.0361  0.7249 -2.2712
 1570TIP3    H226202   0.653   6.707  12.609  2.0103 -0.0365 -1.0472
 1571TIP3   OH226203   6.800   2.414  11.386  0.1098  0.0144  0.2955
 1571TIP3    H126204   6.714   2.435  11.423  0.0056 -0.0633  0.0972
 1571TIP3    H226205   6.853   2.491  11.404 -1.0528  1.7538 -3.0201
 1572TIP3   OH226206   4.588   0.087   0.763 -0.3544 -0.1512  0.4187
 1572TIP3    H126207   4.495   0.062   0.768 -0.7010  1.2252  2.4949
 1572TIP3    H226208   4.588   0.180   0.786  1.7055 -0.6172  2.7564
 1573TIP3   OH226209   5.703   3.509   1.583  0.3424  0.4010  0.6461
 1573TIP3    H126210   5.691   3.533   1.675  0.2068 -0.9405  1.0024
 1573TIP3    H226211   5.673   3.418   1.578  0.7869  0.3047 -0.6324
 1574TIP3   OH226212   1.399   3.066  13.553  1.0462  0.2986  0.5168
 1574TIP3    H126213   1.403   2.973  13.576  0.3426  0.4090  1.1043
 1574TIP3    H226214   1.373   3.110  13.633 -0.1587  0.8398 -0.1506
 1575TIP3   OH226215   2.913   6.734   5.372 -0.0801 -0.1292 -0.1910
 1575TIP3    H126216   2.852   6.696   5.435 -0.0429  2.6347  1.7113
 1575TIP3    H226217   2.891   6.693   5.289 -3.8479 -0.0523  0.5865
 1576TIP3   OH226218   4.640   4.735  10.318 -0.1659 -0.1392 -0.2119
 1576TIP3    H126219   4.544   4.743  10.317 -0.1619  0.3751 -2.5992
 1576TIP3    H226220   4.671   4.825  10.319  0.3855 -0.2897  2.0927
 1577TIP3   OH226221   4.543   2.824   4.589  0.1597 -0.6127 -0.5970
 1577TIP3    H126222   4.589   2.790   4.665 -1.1102  0.7271  0.8455
 1577TIP3    H226223   4.513   2.746   4.542  2.6007 -1.4931 -0.8428
 1578TIP3   OH226224   0.641   2.270   4.165 -0.2005 -0.2674  0.1679
 1578TIP3    H126225   0.607   2.189   4.127 -0.0946 -0.2347  0.0036
 1578TIP3    H226226   0.635   2.257   4.259 -0.7538 -0.2299  0.1412
 1579TIP3   OH226227   4.177   2.599  13.801 -1.1466  0.0776  0.5362
 1579TIP3    H126228   4.210   2.528  13.746 -0.5964  0.2291  0.6602
 1579TIP3    H226229   4.125   2.653  13.741  0.8031  1.1699 -0.2957
 1580TIP3   OH226230   2.997   0.325   4.590 -0.0392 -0.3213  0.0158
 1580TIP3    H126231   3.021   0.374   4.668  0.1270  0.2209 -0.3713
 1580TIP3    H226232   3.080   0.314   4.542 -0.3572  0.5441 -0.7570
 1581TIP3   OH226233   0.362   2.299  12.543  0.2947 -0.0042  0.4036
 1581TIP3    H126234   0.268   2.318  12.536 -0.0642 -0.5844  2.7888
 1581TIP3    H226235   0.402   2.384  12.560  0.2393  0.2618 -0.7207
 1582TIP3   OH226236   6.497   1.266   0.272 -0.0725  0.0010 -0.1116
 1582TIP3    H126237   6.455   1.331   0.216 -0.7998 -0.9118 -0.6631
 1582TIP3    H226238   6.429   1.242   0.336 -0.2654 -1.1241 -0.7021
 1583TIP3   OH226239   3.502   3.043   5.593  0.4350  0.2869  0.3115
 1583TIP3    H126240   3.571   3.087   5.644 -0.1122  2.1821 -0.5026
 1583TIP3    H226241   3.531   3.051   5.503 -0.3437  0.1446  0.0457
 1584TIP3   OH226242   2.887   5.717   4.613 -0.5207 -0.0274  0.0028
 1584TIP3    H126243   2.824   5.674   4.671 -0.4274 -0.0324  0.1005
 1584TIP3    H226244   2.837   5.736   4.533 -0.3926 -0.9134 -0.3002
 1585TIP3   OH226245   2.297   4.430  16.070 -0.9593  0.1214 -0.2272
 1585TIP3    H126246   2.344   4.417  15.987 -1.4189  0.0726 -0.4806
 1585TIP3    H226247   2.287   4.525  16.077  3.0024  0.6384  1.9564
 1586TIP3   OH226248   2.210   1.042  17.181  0.3295 -0.3171  0.2566
 1586TIP3    H126249   2.114   1.045  17.186  0.1917 -1.9735 -0.7461
 1586TIP3    H226250   2.234   1.122  17.134 -0.7439 -0.8943 -1.3494
 1587TIP3   OH226251   2.817   5.303  12.733  0.1932 -0.2274 -0.7046
 1587TIP3    H126252   2.777   5.308  12.646 -0.2664 -0.0213 -0.4861
 1587TIP3    H226253   2.787   5.219  12.768 -1.6187  0.7406  0.2012
 1588TIP3   OH226254   4.441   3.980   5.271  0.4832 -0.3875  0.1116
 1588TIP3    H126255   4.393   3.941   5.198  1.3010  0.3609 -0.8634
 1588TIP3    H226256   4.438   4.074   5.254  1.0269 -0.2312  0.8259
 1589TIP3   OH226257   0.172   4.241  11.448  0.0747 -0.1770 -0.0124
 1589TIP3    H126258   0.146   4.315  11.393  0.5272 -0.6138 -0.8179
 1589TIP3    H226259   0.253   4.208  11.409  0.3376 -0.5812  0.8344
 1590TIP3   OH226260   5.484   6.768   3.395  0.2715  0.3200 -0.4496
 1590TIP3    H126261   5.470   6.681   3.358  0.1991  0.1701 -0.0737
 1590TIP3    H226262   5.399   6.793   3.432  0.5493  0.1033  0.3690
 1591TIP3   OH226263   5.267   0.802  15.137  0.0093 -0.4593  0.1222
 1591TIP3    H126264   5.278   0.883  15.088  2.6335 -1.1523 -0.6257
 1591TIP3    H226265   5.192   0.759  15.096  1.3083 -0.4051 -2.5482
 1592TIP3   OH226266   6.442   2.803   4.110  0.1718 -0.0633  0.5659
 1592TIP3    H126267   6.439   2.863   4.036 -1.9623  0.9168  1.3467
 1592TIP3    H226268   6.535   2.786   4.124  0.8196  2.3857 -0.2594
 1593TIP3   OH226269   1.424   6.156   5.781  1.0985 -0.2971  0.0107
 1593TIP3    H126270   1.400   6.129   5.870  1.5419 -0.2344  0.1530
 1593TIP3    H226271   1.514   6.187   5.789  1.5402 -1.3235 -0.6635
 1594TIP3   OH226272   4.719   0.963   5.778  0.1371 -0.2318 -0.3476
 1594TIP3    H126273   4.652   0.901   5.806 -1.1321  1.2802  0.1301
 1594TIP3    H226274   4.796   0.941   5.831  0.4087 -2.6102 -1.5802
 1595TIP3   OH226275   3.606   6.322   3.643  0.2206  0.5285 -0.1172
 1595TIP3    H126276   3.575   6.409   3.669  0.6101  1.1816 -1.7461
 1595TIP3    H226277   3.621   6.277   3.726 -0.7534  1.7301  0.7540
 1596TIP3   OH226278   4.111   4.977   3.459 -0.4234 -0.0050 -0.4641
 1596TIP3    H126279   4.071   4.890   3.459 -2.6376  0.8204  2.7858
 1596TIP3    H226280   4.071   5.021   3.384 -1.4417 -0.9438 -0.4993
 1597TIP3   OH226281   1.390   1.641   1.981  0.5585  0.2958  0.1317
 1597TIP3    H126282   1.391   1.715   2.041  0.2237  0.0784  0.4108
 1597TIP3    H226283   1.360   1.567   2.034  1.4075 -0.1574 -0.0046
 1598TIP3   OH226284   4.356   3.506  16.375  0.0404 -0.1669 -0.5262
 1598TIP3    H126285   4.370   3.584  16.428 -2.9961 -0.7222  1.3607
 1598TIP3    H226286   4.416   3.441  16.411 -0.8613 -0.0622  1.3008
 1599TIP3   OH226287   3.828   0.701  13.568 -0.1307  0.3403 -0.0636
 1599TIP3    H126288   3.779   0.782  13.583 -0.4202  0.2058 -0.2544
 1599TIP3    H226289   3.918   0.722  13.591  0.1390  1.2395 -1.7907
 1600TIP3   OH226290   5.917   1.686   5.825 -0.0581 -0.0568 -0.6073
 1600TIP3    H126291   5.883   1.614   5.771 -0.5357 -0.9302  0.8143
 1600TIP3    H226292   5.858   1.690   5.900  1.1342  0.4955  0.3321
 1601TIP3   OH226293   1.987   5.151   3.558 -0.0456 -0.2483  0.0623
 1601TIP3    H126294   2.028   5.067   3.538 -0.5780 -0.3065 -0.8550
 1601TIP3    H226295   2.020   5.174   3.644  2.0755 -0.1781 -0.7225
 1602TIP3   OH226296   2.648   0.266   3.473 -0.2852 -0.1561 -0.1662
 1602TIP3    H126297   2.663   0.178   3.438  0.1081 -0.6559  1.1750
 1602TIP3    H226298   2.715   0.275   3.540 -1.1988  0.6350  0.6569
 1603TIP3   OH226299   4.865   5.952  12.884  0.5700 -0.1785  0.2200
 1603TIP3    H126300   4.848   6.019  12.818  0.0744  0.2806  0.7994
 1603TIP3    H226301   4.831   5.871  12.846 -2.4385  0.5919  1.0777
 1604TIP3   OH226302   5.983   5.300   0.532  0.0096 -0.2015  0.1214
 1604TIP3    H126303   6.057   5.242   0.551 -1.4545 -1.7707  1.2847
 1604TIP3    H226304   5.905   5.249   0.554 -1.4104  1.8216  0.1031
 1605TIP3   OH226305   0.172   0.159  14.807 -0.1143  0.1519  0.0179
 1605TIP3    H126306   0.145   0.178  14.897 -2.7365  1.0700 -0.8691
 1605TIP3    H226307   0.192   0.066  14.808 -1.9677 -0.2913  1.1820
 1606TIP3   OH226308   4.510   6.126  14.698 -0.1534 -0.2994  0.0130
 1606TIP3    H126309   4.487   6.217  14.678 -0.7771 -0.5747 -0.5553
 1606TIP3    H226310   4.603   6.120  14.675 -0.4684 -0.1953 -1.3984
 1607TIP3   OH226311   3.701   1.039   3.606 -0.3987 -0.4667 -0.2202
 1607TIP3    H126312   3.634   0.972   3.616 -1.8798  1.2254  2.1498
 1607TIP3    H226313   3.757   1.029   3.683  1.1281 -0.7390 -1.2984
 1608TIP3   OH226314   4.497   4.248  16.509 -0.1133  0.2297 -0.1930
 1608TIP3    H126315   4.577   4.216  16.550  0.1832  0.6037 -0.4800
 1608TIP3    H226316   4.472   4.324  16.560 -1.6670 -1.2797  1.4580
 1609TIP3   OH226317   4.935   2.478   2.440 -0.0546 -0.0307  0.1343
 1609TIP3    H126318   5.017   2.456   2.396 -0.2019 -1.0183  0.3139
 1609TIP3    H226319   4.950   2.455   2.531  0.0430  1.4317  0.4969
 1610TIP3   OH226320   3.398   2.389   4.208  0.0004  0.1136  0.2816
 1610TIP3    H126321   3.332   2.334   4.167  0.9720  1.4064 -3.4241
 1610TIP3    H226322   3.479   2.338   4.201  0.5456  1.1322 -1.4135
 1611TIP3   OH226323   0.745   4.279   5.451 -0.0343 -0.4335 -0.5339
 1611TIP3    H126324   0.805   4.205   5.454 -0.1875 -0.5350  0.5413
 1611TIP3    H226325   0.661   4.242   5.479 -0.0791  0.1619  0.1536
 1612TIP3   OH226326   1.078   1.955  16.000 -0.3283  0.2189 -0.6437
 1612TIP3    H126327   1.097   2.035  15.950  0.1125  0.6814  0.2540
 1612TIP3    H226328   1.145   1.953  16.068 -1.5401  0.1537  0.5859
 1613TIP3   OH226329   6.733   2.341  13.298  0.3065 -0.3385  0.0406
 1613TIP3    H126330   6.721   2.434  13.279  0.5636 -0.4349 -0.6351
 1613TIP3    H226331   6.711   2.332  13.391  1.5522  0.6401  0.4555
 1614TIP3   OH226332   1.284   6.723  15.289 -0.1192 -0.3917 -0.5841
 1614TIP3    H126333   1.319   6.711  15.377  0.2767  1.2287 -0.4779
 1614TIP3    H226334   1.338   6.792  15.251 -1.6351  0.4583 -1.3103
 1615TIP3   OH226335   3.960   4.364  12.118 -0.3859 -0.4822 -0.5443
 1615TIP3    H126336   4.029   4.359  12.051 -0.0090 -0.5799 -0.1506
 1615TIP3    H226337   3.977   4.446  12.164 -1.2564  0.0910 -1.2217
 1616TIP3   OH226338   0.617   2.111  14.125  0.4713  0.5112  0.0870
 1616TIP3    H126339   0.554   2.146  14.062  2.9058  1.5681 -1.9327
 1616TIP3    H226340   0.607   2.166  14.203 -3.0266 -1.2079  1.0609
 1617TIP3   OH226341   5.614   5.355   5.457 -0.0024 -0.0313 -0.5131
 1617TIP3    H126342   5.660   5.394   5.532 -2.1241  1.0879  0.2695
 1617TIP3    H226343   5.650   5.266   5.452  1.1689  0.3066  0.9724
 1618TIP3   OH226344   6.284   3.515   2.841  0.1907 -0.6022  0.8465
 1618TIP3    H126345   6.295   3.442   2.780 -0.7770 -0.7613  0.8492
 1618TIP3    H226346   6.199   3.554   2.818  0.7904  0.6733  0.6965
 1619TIP3   OH226347   4.029   1.429   0.571 -0.0643 -0.3759 -0.2986
 1619TIP3    H126348   4.025   1.432   0.476 -0.3870 -1.6818 -0.3342
 1619TIP3    H226349   4.032   1.521   0.598 -0.3453  0.0055 -1.5454
 1620TIP3   OH226350   4.332   4.675  14.226  0.4653  0.2320 -0.0068
 1620TIP3    H126351   4.337   4.731  14.149  0.2479 -0.0246 -0.2129
 1620TIP3    H226352   4.399   4.607  14.210 -0.5494 -0.6466 -0.6598
 1621TIP3   OH226353   4.380   5.966   0.626 -0.1715 -0.1325 -0.0419
 1621TIP3    H126354   4.460   5.916   0.605 -0.3760 -1.1681  1.4317
 1621TIP3    H226355   4.345   5.993   0.541  1.1109 -0.6909 -0.7774
 1622TIP3   OH226356   5.568   3.571   1.091 -0.3369 -0.6562 -0.3941
 1622TIP3    H126357   5.590   3.487   1.051  3.3578 -0.1693  0.2167
 1622TIP3    H226358   5.481   3.557   1.129  0.5824 -4.6900  0.8064
 1623TIP3   OH226359   3.627   1.900  14.350  0.8279  0.4081 -0.2805
 1623TIP3    H126360   3.590   1.832  14.406 -0.7885  0.4918 -1.1648
 1623TIP3    H226361   3.721   1.884  14.350  0.3811 -3.0999 -2.0134
 1624TIP3   OH226362   0.428   6.014   2.979  0.3237 -0.1140  0.2580
 1624TIP3    H126363   0.478   6.089   2.945  1.6389 -0.4150  1.4168
 1624TIP3    H226364   0.368   6.053   3.043  0.0221  0.0947 -0.1454
 1625TIP3   OH226365   2.417   5.370   3.969 -0.0814 -0.7844  0.0351
 1625TIP3    H126366   2.472   5.445   3.943 -1.1403  0.0067 -0.0002
 1625TIP3    H226367   2.368   5.403   4.044 -2.6730 -0.4251 -1.6925
 1626TIP3   OH226368   5.271   5.270  16.145  0.1776  0.3006 -0.4136
 1626TIP3    H126369   5.336   5.200  16.146  0.9972  1.0274 -1.1449
 1626TIP3    H226370   5.259   5.293  16.237  1.7323  0.8263 -0.3066
 1627TIP3   OH226371   3.744   2.429   2.791 -0.3804 -0.0006  0.1007
 1627TIP3    H126372   3.779   2.452   2.705 -0.6629  2.5855  0.5950
 1627TIP3    H226373   3.650   2.421   2.777 -0.1793 -2.3706 -0.3135
 1628TIP3   OH226374   0.625   0.167  15.354 -0.2306  0.0613 -0.5011
 1628TIP3    H126375   0.647   0.085  15.310 -1.3857 -0.6729  0.2245
 1628TIP3    H226376   0.708   0.213  15.362  0.4325 -1.0027 -0.9881
 1629TIP3   OH226377   2.214   2.309  10.783 -0.1416  0.0190 -0.0892
 1629TIP3    H126378   2.250   2.393  10.756  0.3294  0.6413  2.2632
 1629TIP3    H226379   2.122   2.326  10.802 -0.3753 -0.3200 -0.8842
 1630TIP3   OH226380   5.374   5.077   2.609 -0.0243 -0.0291 -0.6356
 1630TIP3    H126381   5.348   4.985   2.610  0.4788 -0.2225 -2.0597
 1630TIP3    H226382   5.468   5.076   2.625 -0.2637  0.3897  0.9578
 1631TIP3   OH226383   6.493   0.985   2.915 -0.6508 -0.0427 -0.0531
 1631TIP3    H126384   6.398   0.999   2.916 -0.5401  0.6652  0.8009
 1631TIP3    H226385   6.530   1.073   2.908 -0.0490 -0.3158 -0.3242
 1632TIP3   OH226386   2.227   5.232  15.491  0.2514  0.1620  0.4146
 1632TIP3    H126387   2.304   5.277  15.528  0.2757  0.1211  0.4129
 1632TIP3    H226388   2.260   5.188  15.413  0.4003 -0.5047  0.8471
 1633TIP3   OH226389   1.925   3.833  14.503 -0.2141 -0.3543 -0.4763
 1633TIP3    H126390   1.908   3.889  14.579 -1.0026 -0.6245 -0.4415
 1633TIP3    H226391   1.866   3.866  14.435 -1.5126 -1.7850 -0.1214
 1634TIP3   OH226392   1.587   1.952  13.639  0.0345  0.1617  0.4410
 1634TIP3    H126393   1.590   1.870  13.590  1.0347  0.7542 -0.5264
 1634TIP3    H226394   1.505   1.993  13.613 -0.4666 -0.5063  0.9205
 1635TIP3   OH226395   2.899   5.008   1.349  0.0005  0.8718 -0.3775
 1635TIP3    H126396   2.927   5.022   1.259  0.9878  0.7979 -0.0967
 1635TIP3    H226397   2.978   4.976   1.394 -1.2887 -2.7662 -0.3244
 1636TIP3   OH226398   6.307   5.380   3.509 -0.3020  0.2635 -0.0530
 1636TIP3    H126399   6.384   5.379   3.453 -0.9391  1.0155 -0.9916
 1636TIP3    H226400   6.282   5.288   3.518  0.3313  0.0693 -0.2656
 1637TIP3   OH226401   3.863   0.635   1.116  0.0691  0.6170  0.2338
 1637TIP3    H126402   3.954   0.654   1.142 -0.8231  2.7235  2.1130
 1637TIP3    H226403   3.826   0.720   1.094 -1.4097 -0.2606 -0.8076
 1638TIP3   OH226404   3.780   6.676   3.157  1.0067  0.0394 -0.2577
 1638TIP3    H126405   3.829   6.595   3.163  1.5702  0.3368 -0.7568
 1638TIP3    H226406   3.693   6.654   3.190  1.4061 -0.5396  0.4336
 1639TIP3   OH226407   1.136   2.558   6.167  0.1629 -0.4313 -0.5619
 1639TIP3    H126408   1.207   2.613   6.200  0.6804 -1.5654  0.3054
 1639TIP3    H226409   1.162   2.469   6.190 -1.6571 -0.8620  0.0168
 1640TIP3   OH226410   4.794   2.012   5.061  0.0252 -0.1734  0.1811
 1640TIP3    H126411   4.847   2.018   4.982  0.5858  1.3275  0.6379
 1640TIP3    H226412   4.784   2.103   5.091  1.1366 -0.7763  2.6796
 1641TIP3   OH226413   2.576   1.996  16.031 -0.2381 -0.1196 -0.2046
 1641TIP3    H126414   2.557   1.977  16.123  0.8399 -1.5731 -0.2432
 1641TIP3    H226415   2.658   2.045  16.033 -0.5432  0.4005 -0.3654
 1642TIP3   OH226416   3.856   5.183   3.023  0.6014 -0.9213  0.6061
 1642TIP3    H126417   3.766   5.153   3.009  0.7860 -1.2457  0.0916
 1642TIP3    H226418   3.846   5.270   3.061  0.0682 -0.9961  0.6515
 1643TIP3   OH226419   6.042   2.554   1.388  0.0968 -0.3843  0.0683
 1643TIP3    H126420   6.021   2.484   1.450 -1.4442 -0.4251 -0.4595
 1643TIP3    H226421   6.075   2.625   1.442  1.7930 -1.5230  0.6092
 1644TIP3   OH226422   5.481   1.328  13.362  0.0011  0.4309  0.1578
 1644TIP3    H126423   5.400   1.306  13.407 -0.8816 -2.2429 -2.3949
 1644TIP3    H226424   5.530   1.245  13.359  1.9363  1.5147 -0.0959
 1645TIP3   OH226425   4.714   6.280   5.705  0.3646 -0.0204  0.4275
 1645TIP3    H126426   4.629   6.235   5.703  0.5779 -0.4208 -0.6249
 1645TIP3    H226427   4.710   6.336   5.782 -1.4099  1.0285 -0.3702
 1646TIP3   OH226428   3.255   2.052  13.468  0.0945  0.4792 -0.0110
 1646TIP3    H126429   3.304   2.132  13.450 -1.8732  1.5073 -1.0056
 1646TIP3    H226430   3.254   2.005  13.385 -0.6336  0.4902 -0.0123
 1647TIP3   OH226431   0.097   0.816   4.942  0.0537 -0.5158 -0.3096
 1647TIP3    H126432   0.172   0.845   4.891  0.2506  0.3505  0.4445
 1647TIP3    H226433   0.121   0.834   5.033  0.3535 -3.4158  0.2922
 1648TIP3   OH226434   2.601   0.489  17.027 -0.6484 -0.4210 -0.1294
 1648TIP3    H126435   2.611   0.413  16.968 -0.2512 -0.6057  0.1669
 1648TIP3    H226436   2.579   0.451  17.112 -1.3934 -0.1425 -0.1985
 1649TIP3   OH226437   1.644   4.706  16.170 -0.3498 -0.2714 -0.3224
 1649TIP3    H126438   1.612   4.616  16.176  0.2190 -0.4808 -0.3332
 1649TIP3    H226439   1.733   4.702  16.207 -0.7508  0.5145  0.8017
 1650TIP3   OH226440   4.353   2.898  14.729  0.0415 -0.5295 -0.4027
 1650TIP3    H126441   4.381   2.852  14.650  0.2371 -2.9711  0.9728
 1650TIP3    H226442   4.435   2.921  14.774 -0.0572  1.2296 -1.0709
 1651TIP3   OH226443   3.524   5.568  12.178  0.3870  0.3142 -0.5502
 1651TIP3    H126444   3.494   5.618  12.253  0.1611  1.1740 -1.2025
 1651TIP3    H226445   3.567   5.491  12.216 -0.3370  0.3798  0.4367
 1652TIP3   OH226446   5.714   3.083   0.974 -0.1490  0.7118 -0.5641
 1652TIP3    H126447   5.788   3.142   0.967  0.2532  0.1285 -1.3958
 1652TIP3    H226448   5.691   3.063   0.883 -0.9787  0.4603 -0.3055
 1653TIP3   OH226449   2.303   2.536  15.616  0.1003 -0.0058 -0.2669
 1653TIP3    H126450   2.244   2.461  15.624 -0.2218  0.2460 -0.2911
 1653TIP3    H226451   2.256   2.598  15.560 -0.1107  0.6909  0.6557
 1654TIP3   OH226452   3.994   5.289  13.437 -0.0560 -0.6334 -0.2174
 1654TIP3    H126453   4.016   5.320  13.349 -0.2973 -2.6219 -1.0295
 1654TIP3    H226454   3.902   5.262  13.431  0.2227 -1.7763  0.3114
 1655TIP3   OH226455   4.823   5.691  12.486 -0.7699 -0.5170 -0.1153
 1655TIP3    H126456   4.909   5.696  12.527 -0.6474  1.3234 -0.5350
 1655TIP3    H226457   4.840   5.705  12.393 -1.3479 -1.9698 -0.4691
 1656TIP3   OH226458   3.540   6.726   2.865 -0.6427 -0.1070  0.1023
 1656TIP3    H126459   3.527   6.821   2.862  1.1993  0.1898  0.5024
 1656TIP3    H226460   3.591   6.711   2.944 -1.7105 -1.5686  0.5688
 1657TIP3   OH226461   0.117   0.205   3.274 -0.0080  0.2175 -0.1163
 1657TIP3    H126462   0.165   0.193   3.356 -0.6247 -2.3527 -0.0663
 1657TIP3    H226463   0.183   0.240   3.213  1.6198 -1.8959  0.3406
 1658TIP3   OH226464   5.876   5.854   4.325 -0.3076  0.1712 -0.3092
 1658TIP3    H126465   5.832   5.866   4.409  1.5856  0.9855  0.6126
 1658TIP3    H226466   5.805   5.833   4.264 -1.6352 -1.3713  1.6362
 1659TIP3   OH226467   5.455   2.777   0.777 -0.3560 -0.0149 -0.3192
 1659TIP3    H126468   5.522   2.715   0.751  0.6959  1.0643 -0.2484
 1659TIP3    H226469   5.430   2.749   0.865  0.5918  0.0559 -0.0176
 1660TIP3   OH226470   1.104   0.999  10.731 -0.0339  0.2044  0.3647
 1660TIP3    H126471   1.056   0.945  10.668  0.1393 -0.3471  0.6950
 1660TIP3    H226472   1.062   1.085  10.727 -0.0929  0.1423 -0.4168
 1661TIP3   OH226473   5.615   4.884  11.048 -0.7547  0.2747  0.4159
 1661TIP3    H126474   5.638   4.943  10.975 -0.1211  0.0715  0.4397
 1661TIP3    H226475   5.659   4.923  11.124 -0.3649 -0.2028  0.4385
 1662TIP3   OH226476   4.752   0.631  16.407  0.1812 -0.2037 -0.4001
 1662TIP3    H126477   4.811   0.613  16.480 -0.7487 -0.7518  0.2381
 1662TIP3    H226478   4.714   0.716  16.428 -1.3489 -1.0990  0.6573
 1663TIP3   OH226479   5.363   3.928  13.488  0.2896 -0.3108 -0.3500
 1663TIP3    H126480   5.405   4.008  13.458  0.3856 -0.5251 -0.8089
 1663TIP3    H226481   5.318   3.952  13.568  1.0444 -0.0044 -0.0069
 1664TIP3   OH226482   4.744   1.905  14.561 -0.7850 -0.0874 -0.4305
 1664TIP3    H126483   4.734   1.823  14.513  0.4074 -0.4410 -0.1268
 1664TIP3    H226484   4.685   1.966  14.517 -0.8871 -0.8210 -1.3552
 1665TIP3   OH226485   2.757   6.150  11.680  0.0018 -0.0570 -0.0649
 1665TIP3    H126486   2.813   6.155  11.602 -1.2224  0.9335 -0.9086
 1665TIP3    H226487   2.712   6.235  11.683 -1.6561 -0.9185  0.4286
 1666TIP3   OH226488   5.067   4.111  11.276 -0.5626 -0.1542 -0.0217
 1666TIP3    H126489   5.144   4.069  11.316  1.3935  0.5024 -2.8330
 1666TIP3    H226490   5.075   4.203  11.301  0.1026  0.0726 -1.0089
 1667TIP3   OH226491   4.313   5.801   1.458 -0.2623 -0.1001  0.1631
 1667TIP3    H126492   4.328   5.738   1.388 -0.3821 -0.6145  0.5964
 1667TIP3    H226493   4.281   5.880   1.413  1.0418  0.0835 -0.5087
 1668TIP3   OH226494   3.883   6.770   2.023  0.4834 -0.2066  0.1356
 1668TIP3    H126495   3.891   6.749   2.116  0.3915  0.3895  0.2859
 1668TIP3    H226496   3.946   6.842   2.010 -0.8945  1.0469  0.1817
 1669TIP3   OH226497   1.561   0.193   3.349  0.6839 -0.0544 -0.2770
 1669TIP3    H126498   1.481   0.178   3.399  0.7596 -2.2669 -0.7151
 1669TIP3    H226499   1.586   0.284   3.369 -0.5523 -0.1251  1.8150
 1670TIP3   OH226500   6.554   3.922   0.031 -0.2060  0.4039  0.4546
 1670TIP3    H126501   6.602   3.925  -0.052  1.6909  1.0281  1.5065
 1670TIP3    H226502   6.576   4.005   0.074 -1.1750  0.1007  1.5847
 1671TIP3   OH226503   6.549   4.478  13.495  0.1294  0.0938 -0.5442
 1671TIP3    H126504   6.629   4.522  13.467  1.0534 -1.4578 -0.4937
 1671TIP3    H226505   6.522   4.524  13.574  1.0136  0.5915 -0.5159
 1672TIP3   OH226506   6.175   3.164  12.953  0.0445  0.5711  0.2688
 1672TIP3    H126507   6.144   3.254  12.943 -1.7485 -0.0056  0.1477
 1672TIP3    H226508   6.119   3.128  13.022 -0.1123 -0.7896 -0.5408
 1673TIP3   OH226509   4.833   6.534   2.923  0.0585 -0.1650 -0.1448
 1673TIP3    H126510   4.844   6.441   2.942 -1.6482  0.0527  2.4296
 1673TIP3    H226511   4.900   6.554   2.858  1.6356 -2.7750  0.5598
 1674TIP3   OH226512   3.544   3.414   1.826 -0.0551 -0.3403  0.2222
 1674TIP3    H126513   3.601   3.354   1.874 -2.1297 -0.7876  2.3210
 1674TIP3    H226514   3.456   3.377   1.835 -1.1728  2.0268 -0.0112
 1675TIP3   OH226515   1.757   5.846  15.220 -0.1552  0.2695 -0.0030
 1675TIP3    H126516   1.748   5.881  15.131  0.2143 -0.3840 -0.3098
 1675TIP3    H226517   1.823   5.901  15.261 -0.3953  0.6347 -0.1003
 1676TIP3   OH226518   5.169   3.116   6.061  0.5341 -0.3784 -0.0836
 1676TIP3    H126519   5.077   3.120   6.086  0.3855  1.9205 -0.7540
 1676TIP3    H226520   5.177   3.034   6.012 -0.4369 -2.0824  2.4406
 1677TIP3   OH226521   2.189   3.464   1.791  0.2167 -0.1670  0.0872
 1677TIP3    H126522   2.199   3.481   1.697 -2.3169  1.1058 -0.0395
 1677TIP3    H226523   2.117   3.402   1.797  0.3023 -0.1766  1.2201
 1678TIP3   OH226524   4.180   3.293   2.567 -0.0862 -0.5404 -0.1125
 1678TIP3    H126525   4.269   3.259   2.556 -0.3204 -0.8804 -0.9931
 1678TIP3    H226526   4.154   3.263   2.654  0.4380 -0.9455 -0.0909
 1679TIP3   OH226527   3.672   6.725  13.252 -0.4821  0.4181 -0.4378
 1679TIP3    H126528   3.608   6.776  13.300 -0.5507  1.6927 -1.8191
 1679TIP3    H226529   3.620   6.661  13.203 -0.4924 -0.1476  0.2966
 1680TIP3   OH226530   5.470   6.604  16.702  1.1712  0.0749  0.4336
 1680TIP3    H126531   5.497   6.691  16.733  0.9525  0.1709  0.3547
 1680TIP3    H226532   5.544   6.574  16.649  0.3115  1.1967 -1.4883
 1681TIP3   OH226533   0.537   1.789  14.310 -0.7575 -0.5907 -0.5910
 1681TIP3    H126534   0.478   1.864  14.300  1.3361  1.5870  1.9757
 1681TIP3    H226535   0.502   1.740  14.385 -1.0448 -1.1473 -1.0759
 1682TIP3   OH226536   0.836   2.794   3.731 -0.2181  0.1529 -0.0407
 1682TIP3    H126537   0.906   2.817   3.669  0.1602  0.3013  0.4391
 1682TIP3    H226538   0.880   2.786   3.815 -0.9382  1.2753  0.4719
 1683TIP3   OH226539   1.189   0.852   4.259 -0.6351  0.3182  0.3018
 1683TIP3    H126540   1.196   0.812   4.172  1.2121  0.1187  0.5073
 1683TIP3    H226541   1.272   0.833   4.301 -1.2341  1.0184  1.8784
 1684TIP3   OH226542   2.502   6.122   1.489  0.6799 -0.3272 -0.4861
 1684TIP3    H126543   2.545   6.183   1.550 -2.5997  0.0181  1.7930
 1684TIP3    H226544   2.481   6.176   1.413  0.8517  0.5333  0.0522
 1685TIP3   OH226545   6.239   2.948  14.806  0.4862  0.1795  0.2566
 1685TIP3    H126546   6.221   3.018  14.869  1.5039 -0.0497  0.8412
 1685TIP3    H226547   6.282   2.880  14.859 -2.4037 -1.8616  0.1838
 1686TIP3   OH226548   3.163   6.723   3.712 -0.3739  0.4863 -0.3830
 1686TIP3    H126549   3.170   6.749   3.620 -0.1126  0.5190 -0.3555
 1686TIP3    H226550   3.224   6.781   3.757  0.7200 -0.5958 -0.4064
 1687TIP3   OH226551   6.639   6.520  16.118  0.2857 -0.0920  0.4131
 1687TIP3    H126552   6.620   6.550  16.029 -1.5443 -1.4230  0.3107
 1687TIP3    H226553   6.715   6.462  16.107 -2.0496 -3.1443 -0.9501
 1688TIP3   OH226554   5.644   3.200  16.834 -0.9927 -0.0360  0.0484
 1688TIP3    H126555   5.607   3.121  16.874 -2.2095  0.0350 -0.8783
 1688TIP3    H226556   5.727   3.171  16.796 -1.1545 -0.7367  0.2125
 1689TIP3   OH226557   3.206   1.395  12.989 -0.0217 -0.1433  0.3131
 1689TIP3    H126558   3.207   1.337  13.065  0.0994 -0.7766 -0.1612
 1689TIP3    H226559   3.121   1.378  12.947 -0.3525  0.6568  0.6425
 1690TIP3   OH226560   1.383   0.739   3.292 -0.1942  0.6881 -0.0289
 1690TIP3    H126561   1.374   0.796   3.368 -0.2095  0.1605  0.3737
 1690TIP3    H226562   1.294   0.706   3.277 -0.2270  0.9385 -0.3957
 1691TIP3   OH226563   4.531   0.184  16.817 -0.6806  0.1408 -0.2551
 1691TIP3    H126564   4.454   0.236  16.796 -0.5743 -0.1888 -1.5847
 1691TIP3    H226565   4.583   0.185  16.737 -0.2140 -1.2086 -0.0039
 1692TIP3   OH226566   0.119   5.723  12.846 -0.3036 -0.6907  0.2940
 1692TIP3    H126567   0.107   5.729  12.752  3.0249 -0.7417 -0.2450
 1692TIP3    H226568   0.199   5.772  12.864 -0.9953 -0.4162  3.1703
 1693TIP3   OH226569   2.415   2.993   3.933  0.6489  0.2183  0.1800
 1693TIP3    H126570   2.375   2.982   4.019  0.2833 -1.0343 -0.1267
 1693TIP3    H226571   2.469   3.072   3.941  0.6018  0.1327  1.5447
 1694TIP3   OH226572   5.925   2.301  12.343 -0.1801  0.1272 -0.0057
 1694TIP3    H126573   6.011   2.292  12.302 -0.8860 -0.8917 -1.3351
 1694TIP3    H226574   5.937   2.272  12.433  0.8988  0.1332 -0.1447
 1695TIP3   OH226575   0.994   5.712  15.137  0.4128 -0.5664 -1.0936
 1695TIP3    H126576   1.039   5.638  15.095 -1.1538 -1.4178 -1.3621
 1695TIP3    H226577   0.968   5.680  15.223  1.8958  0.5330 -0.1968
 1696TIP3   OH226578   2.558   6.287   2.335 -0.3484 -0.4679 -0.7472
 1696TIP3    H126579   2.519   6.200   2.339  1.2083 -1.3154 -2.5457
 1696TIP3    H226580   2.487   6.344   2.306 -1.5151 -0.9890  0.9183
 1697TIP3   OH226581   2.796   2.123   1.411 -0.2113 -0.3638 -0.4466
 1697TIP3    H126582   2.827   2.068   1.482 -2.5410 -1.8884 -0.4974
 1697TIP3    H226583   2.711   2.157   1.441  0.1323  1.3968 -1.3248
 1698TIP3   OH226584   5.868   2.474   5.396  0.3973  0.0202 -0.0689
 1698TIP3    H126585   5.944   2.513   5.439  1.0551 -0.7882 -0.4579
 1698TIP3    H226586   5.906   2.407   5.338 -0.4291  1.1057 -1.9578
 1699TIP3   OH226587   5.900   4.456   4.100  0.5672 -1.0391 -0.3492
 1699TIP3    H126588   5.854   4.449   4.184  0.6250 -1.5139 -0.3567
 1699TIP3    H226589   5.946   4.540   4.105  0.4442 -0.9928  0.0305
 1700TIP3   OH226590   3.041   5.112   2.442 -0.1399  0.2678 -0.4556
 1700TIP3    H126591   2.964   5.058   2.425  0.4192 -1.6072  2.3145
 1700TIP3    H226592   3.021   5.157   2.524  0.2444  2.8017 -1.6610
 1701TIP3   OH226593   5.451   1.874   6.619  0.1996  0.0731  0.1275
 1701TIP3    H126594   5.515   1.938   6.588 -0.5926  1.1351  0.6106
 1701TIP3    H226595   5.474   1.793   6.574  1.4616  0.5971 -0.2114
 1702TIP3   OH226596   3.567   5.191  11.578 -0.1528  0.4830 -0.6056
 1702TIP3    H126597   3.582   5.235  11.662 -1.7466  0.2394 -0.1625
 1702TIP3    H226598   3.510   5.250  11.529 -1.0113 -0.3425 -0.6364
 1703TIP3   OH226599   0.246   2.568   5.586 -0.4620 -0.1885 -0.0357
 1703TIP3    H126600   0.266   2.653   5.626  0.6132 -0.0902 -0.7342
 1703TIP3    H226601   0.258   2.582   5.492  0.4302 -1.2757 -0.1076
 1704TIP3   OH226602   1.454   1.003   0.724 -0.0535 -0.0618 -0.3254
 1704TIP3    H126603   1.371   1.047   0.710 -0.4552 -0.8024 -0.3210
 1704TIP3    H226604   1.483   1.032   0.810 -1.6890 -1.9106  0.9333
 1705TIP3   OH226605   2.452   0.702  13.111  0.2758 -0.1284 -0.1822
 1705TIP3    H126606   2.474   0.735  13.198 -0.7362  2.8384 -0.9236
 1705TIP3    H226607   2.520   0.738  13.054  1.0216 -2.1640 -0.6660
 1706TIP3   OH226608   5.740   5.158  15.060 -0.1468  0.2932 -0.5655
 1706TIP3    H126609   5.745   5.251  15.038  0.7259  0.2104 -0.7311
 1706TIP3    H226610   5.797   5.147  15.136  0.5041 -0.2671 -1.1155
 1707TIP3   OH226611   4.110   4.744  15.295 -0.2574  0.4168  0.7837
 1707TIP3    H126612   4.124   4.651  15.274 -0.8631  0.4484  0.2226
 1707TIP3    H226613   4.199   4.780  15.301  0.0657 -0.5624  2.7815
 1708TIP3   OH226614   1.277   0.147  17.021  0.0139 -0.0184 -0.2123
 1708TIP3    H126615   1.317   0.069  17.061  0.4423 -0.1101 -0.8112
 1708TIP3    H226616   1.193   0.115  16.988  1.1785 -0.8705 -2.6093
 1709TIP3   OH226617   0.299   0.048  13.043  0.5771 -0.0589 -0.5499
 1709TIP3    H126618   0.323   0.134  13.009  0.3994 -0.0540 -0.6678
 1709TIP3    H226619   0.210   0.033  13.009 -0.0203  0.3954  0.7459
 1710TIP3   OH226620   1.288   2.389   5.590  0.8491 -0.1730  0.4923
 1710TIP3    H126621   1.265   2.460   5.650  2.2143  0.8759 -0.1704
 1710TIP3    H226622   1.270   2.309   5.639 -1.1387  0.5811  1.1135
 1711TIP3   OH226623   1.950   3.976  15.722 -0.0444 -0.1894  1.0390
 1711TIP3    H126624   1.994   4.049  15.678  1.6889 -2.0649 -0.5626
 1711TIP3    H226625   1.994   3.969  15.806  0.7490 -0.2490  0.6277
 1712TIP3   OH226626   3.597   4.506  14.266  0.6146  0.4872 -0.6398
 1712TIP3    H126627   3.519   4.539  14.222  0.6819 -0.3574 -1.4172
 1712TIP3    H226628   3.633   4.440  14.207  0.3558 -1.1734  0.9467
 1713TIP3   OH226629   6.031   1.541  16.226 -0.0824 -0.1731  0.6441
 1713TIP3    H126630   5.992   1.576  16.145 -0.7315 -0.2686  0.9123
 1713TIP3    H226631   6.015   1.609  16.291  1.3054  0.3422  0.4849
 1714TIP3   OH226632   5.577   2.235  13.770 -0.1100 -0.5094 -0.2579
 1714TIP3    H126633   5.632   2.262  13.697 -0.8416  0.8754 -0.3341
 1714TIP3    H226634   5.495   2.207  13.730 -1.0419  1.5995  0.0544
 1715TIP3   OH226635   4.172   2.914  17.095 -0.1190 -0.7821 -0.6924
 1715TIP3    H126636   4.133   2.834  17.059  1.8744 -1.3625 -1.7129
 1715TIP3    H226637   4.141   2.984  17.037 -1.1140 -0.9444 -0.3660
 1716TIP3   OH226638   3.290   4.811   2.699 -0.2822 -0.1647 -0.2356
 1716TIP3    H126639   3.286   4.725   2.659 -0.9848  0.6094 -1.9107
 1716TIP3    H226640   3.379   4.816   2.735  0.5262 -0.7759 -2.0437
 1717TIP3   OH226641   3.814   3.652  16.582 -0.0869 -0.3882 -0.5061
 1717TIP3    H126642   3.730   3.645  16.626 -0.4560 -0.5006 -1.2159
 1717TIP3    H226643   3.803   3.603  16.500  0.5495 -0.1078 -0.7694
 1718TIP3   OH226644   3.336   4.016  15.193 -0.4293 -0.2140  0.3393
 1718TIP3    H126645   3.321   4.082  15.261 -2.5895 -0.6246  0.3296
 1718TIP3    H226646   3.308   4.059  15.112  1.5941  0.0722 -0.2689
 1719TIP3   OH226647   4.458   6.481  11.265 -0.1406  0.4646  0.1176
 1719TIP3    H126648   4.449   6.532  11.346  0.0632  0.9602 -0.1697
 1719TIP3    H226649   4.544   6.440  11.272 -1.3311 -2.0027  1.5684
 1720TIP3   OH226650   2.754   2.600  11.390 -0.3878 -0.0593  0.0723
 1720TIP3    H126651   2.731   2.586  11.482 -0.9085 -0.9046 -0.1753
 1720TIP3    H226652   2.813   2.528  11.368 -1.5720 -0.8549 -0.6893
 1721TIP3   OH226653   5.758   0.517  13.573 -0.3027  0.9068  0.5086
 1721TIP3    H126654   5.721   0.595  13.532 -1.7321 -0.0831 -0.2054
 1721TIP3    H226655   5.747   0.448  13.507 -0.6024 -0.2529  1.7272
 1722TIP3   OH226656   5.110   6.555   0.475  0.0266 -0.0807  0.1750
 1722TIP3    H126657   5.201   6.542   0.449 -0.1772 -2.9676  0.6097
 1722TIP3    H226658   5.110   6.543   0.570 -0.9288 -1.1889  0.0541
 1723TIP3   OH226659   3.713   4.927   3.803 -0.2876  0.0992  0.4614
 1723TIP3    H126660   3.765   5.004   3.780  1.0187 -0.1814  2.2502
 1723TIP3    H226661   3.671   4.949   3.886 -1.6443 -0.3460 -0.0786
 1724TIP3   OH226662   5.253   1.001  13.826 -0.6698  1.1566  0.2261
 1724TIP3    H126663   5.194   1.075  13.810 -0.7841  0.8648 -0.7554
 1724TIP3    H226664   5.333   1.024  13.778 -0.3342  1.1157  0.7667
 1725TIP3   OH226665   2.979   0.136  11.364  0.0122 -0.6333  0.3584
 1725TIP3    H126666   2.926   0.213  11.343 -0.6930 -1.2274 -0.1079
 1725TIP3    H226667   2.949   0.069  11.302  0.4934 -1.3319  0.8652
 1726TIP3   OH226668   5.978   0.704  11.132 -0.0716 -0.1532 -0.2267
 1726TIP3    H126669   6.052   0.715  11.072  0.3436  1.0189  0.4625
 1726TIP3    H226670   5.912   0.766  11.099 -1.1701 -1.8165 -1.3829
 1727TIP3   OH226671   6.598   2.411   3.798 -0.1379  0.0970  0.0260
 1727TIP3    H126672   6.635   2.469   3.732 -0.0294  0.0188  0.0175
 1727TIP3    H226673   6.503   2.417   3.785 -0.0821 -1.2813 -1.3178
 1728TIP3   OH226674   4.007   6.438   0.848 -0.0884 -0.3713 -0.0627
 1728TIP3    H126675   3.979   6.527   0.825  0.4730 -0.5148 -1.3849
 1728TIP3    H226676   4.082   6.421   0.791  0.0259 -1.5744  0.4198
 1729TIP3   OH226677   4.079   4.379   0.943  0.4322 -0.0054 -0.1242
 1729TIP3    H126678   4.160   4.379   0.995  0.1786 -2.4709  0.4027
 1729TIP3    H226679   4.009   4.373   1.008  0.0789 -2.5041 -0.6455
 1730TIP3   OH226680   2.345   4.265   4.457  0.2368  0.4531 -0.1399
 1730TIP3    H126681   2.373   4.307   4.538 -1.3467  2.0236 -0.3300
 1730TIP3    H226682   2.250   4.257   4.465  0.2788 -1.4143 -0.9450
 1731TIP3   OH226683   0.086   3.628   1.944  0.1338  0.1718  0.1319
 1731TIP3    H126684   0.176   3.597   1.939 -0.0976 -0.9073  1.7366
 1731TIP3    H226685   0.091   3.709   1.995  0.0215 -0.9787  2.0581
 1732TIP3   OH226686   6.212   1.971   5.939 -0.1483  0.1838 -0.0800
 1732TIP3    H126687   6.150   1.941   6.006  1.1319 -2.7024 -0.0261
 1732TIP3    H226688   6.297   1.939   5.969  0.8457  0.9798 -1.8733
 1733TIP3   OH226689   0.943   1.680  12.366  0.1336  0.2597 -0.0766
 1733TIP3    H126690   0.964   1.719  12.452  0.3502 -0.2407  0.0990
 1733TIP3    H226691   0.920   1.590  12.386 -3.0810  0.9667 -0.1600
 1734TIP3   OH226692   5.330   1.221   0.325 -0.4723  0.0887  0.0683
 1734TIP3    H126693   5.235   1.223   0.340 -0.4514 -1.3877  0.5283
 1734TIP3    H226694   5.339   1.200   0.232 -0.6419 -1.9133  0.4508
 1735TIP3   OH226695   6.400   6.580   1.080  0.2256  0.1314 -0.1795
 1735TIP3    H126696   6.446   6.517   1.135  0.4920  0.0094 -0.5366
 1735TIP3    H226697   6.307   6.563   1.096  0.2976 -0.1703 -0.0738
 1736TIP3   OH226698   5.102   1.554  11.363 -0.4104 -0.2689  0.2632
 1736TIP3    H126699   5.036   1.588  11.424 -1.8608 -1.5437 -0.5231
 1736TIP3    H226700   5.076   1.592  11.278 -0.7270 -1.5274 -0.2182
 1737TIP3   OH226701   4.895   4.408   3.262 -0.0482  0.8643  0.1427
 1737TIP3    H126702   4.832   4.401   3.190  0.3232 -0.7030 -0.0732
 1737TIP3    H226703   4.933   4.495   3.252  0.4137  0.4762 -1.9454
 1738TIP3   OH226704   6.326   0.653   3.321 -0.4462  1.1046  0.0467
 1738TIP3    H126705   6.378   0.577   3.346 -0.7891  0.9125  0.1873
 1738TIP3    H226706   6.241   0.616   3.295 -0.3992  1.3854 -0.5065
 1739TIP3   OH226707   5.165   5.942   0.390  0.2641 -0.1457  0.0025
 1739TIP3    H126708   5.128   5.957   0.302 -0.0538 -0.6443  0.0514
 1739TIP3    H226709   5.147   5.850   0.408  1.2995 -0.3344  0.1405
 1740TIP3   OH226710   1.379   1.272  13.852 -0.1870 -0.3579  0.3493
 1740TIP3    H126711   1.294   1.238  13.877 -0.9041  1.0552 -0.0411
 1740TIP3    H226712   1.369   1.296  13.759  0.8008 -0.6548  0.1479
 1741TIP3   OH226713   5.210   4.682  11.656 -0.3137 -0.6946 -0.2243
 1741TIP3    H126714   5.174   4.721  11.577  0.6494  0.2100 -0.2509
 1741TIP3    H226715   5.298   4.655  11.632 -0.2134 -0.9276  0.3800
 1742TIP3   OH226716   5.302   3.252  16.059  0.5648 -0.7429 -0.8772
 1742TIP3    H126717   5.315   3.180  16.121 -0.4522 -1.2592 -1.2296
 1742TIP3    H226718   5.330   3.216  15.975 -0.9604 -1.1433 -1.2555
 1743TIP3   OH226719   5.768   2.991  13.645 -0.4068 -0.3982 -0.2460
 1743TIP3    H126720   5.786   2.898  13.630 -5.0785 -1.9257  1.7386
 1743TIP3    H226721   5.759   2.998  13.740  0.2500  2.2696 -0.3125
 1744TIP3   OH226722   4.788   1.099   2.260  0.6917  0.4925  0.1460
 1744TIP3    H126723   4.767   1.185   2.296 -0.2273 -0.1932  1.3274
 1744TIP3    H226724   4.789   1.041   2.336 -0.4769 -0.8633 -0.8142
 1745TIP3   OH226725   5.200   5.058  11.925 -0.4326  0.3129  0.2738
 1745TIP3    H126726   5.221   5.126  11.861  0.1232 -0.3528 -0.2757
 1745TIP3    H226727   5.204   5.102  12.010  3.5545  0.2481  0.2915
 1746TIP3   OH226728   1.442   6.396   3.653 -0.3863  0.0688  0.2000
 1746TIP3    H126729   1.500   6.464   3.619 -2.0778  0.5836 -1.8574
 1746TIP3    H226730   1.369   6.443   3.694 -1.5816 -0.4401 -1.2545
 1747TIP3   OH226731   1.529   1.584  14.736 -0.4310 -0.2092 -0.1737
 1747TIP3    H126732   1.538   1.675  14.708  0.8493 -0.8651 -2.1064
 1747TIP3    H226733   1.495   1.539  14.658 -0.4307 -1.5008  0.5533
 1748TIP3   OH226734   6.479   4.950  15.399  0.4578  0.0484 -0.7259
 1748TIP3    H126735   6.398   4.917  15.440  1.1102 -0.4473  0.1978
 1748TIP3    H226736   6.507   4.878  15.342  0.7018 -0.1413 -0.3769
 1749TIP3   OH226737   0.576   2.044  13.409 -0.4653 -0.5726  0.5508
 1749TIP3    H126738   0.533   2.119  13.450 -0.5922 -0.6974  0.6514
 1749TIP3    H226739   0.521   1.969  13.433 -2.0788 -0.3338 -2.0787
 1750TIP3   OH226740   0.469   5.704  16.847 -0.8187 -0.2440  0.2627
 1750TIP3    H126741   0.455   5.722  16.940 -0.6017 -1.5876  0.5846
 1750TIP3    H226742   0.423   5.774  16.801 -0.7489  0.5530  1.3826
 1751TIP3   OH226743   4.339   0.617   2.341  0.4121  0.4657 -0.1113
 1751TIP3    H126744   4.250   0.585   2.358  0.5809 -1.1600 -1.8611
 1751TIP3    H226745   4.327   0.707   2.310 -0.4278  0.9281  1.4627
 1752TIP3   OH226746   1.777   2.296   1.560  0.3482 -0.5694  0.3671
 1752TIP3    H126747   1.862   2.254   1.573  0.9292  0.7136  0.8751
 1752TIP3    H226748   1.773   2.310   1.465  0.8581 -0.3198  0.3787
 1753TIP3   OH226749   6.630   4.055  15.390  0.6992 -0.0321  0.2028
 1753TIP3    H126750   6.644   4.145  15.417 -1.9345 -0.1771  2.4886
 1753TIP3    H226751   6.707   4.007  15.421  0.7141  0.9509  1.7641
 1754TIP3   OH226752   0.459   2.701  16.863 -0.0211  0.4990 -0.4414
 1754TIP3    H126753   0.382   2.644  16.861  0.0954  0.3455 -2.8349
 1754TIP3    H226754   0.522   2.659  16.806  0.1584  2.8591 -2.1268
 1755TIP3   OH226755   2.213   6.218  12.375  0.0275 -0.5931 -0.6724
 1755TIP3    H126756   2.292   6.163  12.381  2.3066  2.6380  1.9835
 1755TIP3    H226757   2.165   6.200  12.456 -1.2969 -1.3871 -1.5804
 1756TIP3   OH226758   2.397   4.238   1.165 -0.3394 -0.2642 -0.1673
 1756TIP3    H126759   2.372   4.149   1.187 -0.2232  0.2564  2.4517
 1756TIP3    H226760   2.358   4.254   1.079 -0.8743 -2.5926 -0.4231
 1757TIP3   OH226761   3.954   0.913   4.147 -0.1550  0.5721  0.6090
 1757TIP3    H126762   3.992   0.955   4.224 -0.2115  1.9203 -0.0535
 1757TIP3    H226763   3.914   0.986   4.098  0.5837 -0.1222 -1.0947
 1758TIP3   OH226764   6.380   5.104   3.504 -0.3619 -0.2932 -0.2569
 1758TIP3    H126765   6.414   5.158   3.576 -1.2016  0.1057 -0.1475
 1758TIP3    H226766   6.373   5.016   3.541 -0.4094 -0.1717  0.0253
 1759TIP3   OH226767   4.124   6.414   1.525 -0.1169 -0.2005  0.2797
 1759TIP3    H126768   4.073   6.487   1.490  2.1461  0.7909 -1.2241
 1759TIP3    H226769   4.193   6.401   1.460  1.5866 -1.3786  2.2155
 1760TIP3   OH226770   0.243   4.681   3.072  0.0778 -0.1222 -0.1976
 1760TIP3    H126771   0.249   4.608   3.133  0.2878  2.5008  3.1704
 1760TIP3    H226772   0.330   4.685   3.031  0.9536 -0.1716  1.5945
 1761TIP3   OH226773   2.622   3.582   6.204 -0.0033 -0.0445 -0.0350
 1761TIP3    H126774   2.660   3.555   6.288  1.5846  0.2345 -0.6217
 1761TIP3    H226775   2.623   3.503   6.151 -2.6688 -0.6728  0.7210
 1762TIP3   OH226776   3.893   1.302   1.164  0.7753  0.0806  0.0067
 1762TIP3    H126777   3.798   1.298   1.151  0.8562 -2.1932 -0.3101
 1762TIP3    H226778   3.929   1.313   1.076  0.7993  2.0460  0.2365
 1763TIP3   OH226779   6.762   1.566   6.277  0.5280  0.0050 -0.4388
 1763TIP3    H126780   6.850   1.536   6.296 -0.4730 -2.9205  0.0567
 1763TIP3    H226781   6.723   1.582   6.362  0.2126  0.1464 -0.6071
 1764TIP3   OH226782   6.364   2.131   3.984 -0.0193 -0.1757  0.1330
 1764TIP3    H126783   6.391   2.198   4.047  2.3273 -0.3990 -0.5273
 1764TIP3    H226784   6.427   2.060   3.996 -1.7468 -1.8051  0.0159
 1765TIP3   OH226785   6.320   5.645  11.038  0.4401  0.0204  0.3253
 1765TIP3    H126786   6.274   5.729  11.041 -0.1949 -0.3505  1.2928
 1765TIP3    H226787   6.368   5.647  10.955 -1.6077  0.2513 -0.9272
 1766TIP3   OH226788   1.504   1.546   4.065  0.1029 -0.8626 -0.0801
 1766TIP3    H126789   1.496   1.529   4.159  1.6461 -2.4608 -0.1982
 1766TIP3    H226790   1.496   1.642   4.057 -0.3721 -0.7333  1.6183
 1767TIP3   OH226791   6.162   5.276  14.308  0.3788 -0.0749  0.2020
 1767TIP3    H126792   6.172   5.184  14.284 -0.6072  0.4132 -2.4549
 1767TIP3    H226793   6.069   5.285  14.328  0.6619  0.1792  1.5244
 1768TIP3   OH226794   0.577   2.947   1.519 -0.0437  0.4999 -0.1649
 1768TIP3    H126795   0.622   2.974   1.599 -0.5775  1.8004 -0.2884
 1768TIP3    H226796   0.646   2.914   1.462  0.5714  1.2596  0.1416
 1769TIP3   OH226797   5.958   1.016   2.581 -0.1064 -0.5791  0.2747
 1769TIP3    H126798   6.046   1.047   2.558 -0.5883  0.5110 -0.1536
 1769TIP3    H226799   5.937   1.061   2.663 -1.0880  0.8302 -0.7090
 1770TIP3   OH226800   3.993   2.165  16.454  0.1449  0.0367  0.3687
 1770TIP3    H126801   4.007   2.085  16.403  0.5374  0.1001  0.3736
 1770TIP3    H226802   3.898   2.170  16.464 -0.0274  0.6586 -1.3722
 1771TIP3   OH226803   0.089   1.406   3.308 -0.1958  0.3133 -0.1738
 1771TIP3    H126804   0.073   1.496   3.279  0.4684  1.5084  2.7720
 1771TIP3    H226805   0.016   1.356   3.272 -1.7314  2.4478 -0.2453
 1772TIP3   OH226806   0.274   3.603  12.015  0.2448  0.0894  0.1587
 1772TIP3    H126807   0.248   3.687  12.055 -2.0703  0.5839 -2.1147
 1772TIP3    H226808   0.354   3.624  11.966 -1.2829  1.5435 -1.8767
 1773TIP3   OH226809   4.506   5.099   2.717 -0.2111  0.3440 -0.5014
 1773TIP3    H126810   4.482   5.132   2.630  1.8117  0.5012 -1.0547
 1773TIP3    H226811   4.509   5.004   2.706  1.1767  0.4116 -0.9793
 1774TIP3   OH226812   3.010   0.894  12.453  0.4480 -0.6828  0.5292
 1774TIP3    H126813   2.973   0.916  12.367  3.9326  0.6578 -0.8257
 1774TIP3    H226814   3.002   0.975  12.504  0.7889 -0.6190  0.4870
 1775TIP3   OH226815   5.951   3.557  16.919 -0.4925 -0.2872 -0.7015
 1775TIP3    H126816   6.018   3.491  16.907 -0.4686 -0.3094 -0.4591
 1775TIP3    H226817   5.990   3.638  16.887  0.0013 -0.1120  0.2971
 1776TIP3   OH226818   2.551   1.288   3.441  0.9392 -0.7752 -0.2519
 1776TIP3    H126819   2.459   1.263   3.448  0.9484 -0.5320  0.9126
 1776TIP3    H226820   2.597   1.206   3.422  1.0204 -1.8957  3.9254
 1777TIP3   OH226821   6.770   5.052  14.907  0.1865  0.1023  0.1053
 1777TIP3    H126822   6.848   5.029  14.957  0.2379  0.3216  0.1284
 1777TIP3    H226823   6.745   4.971  14.861  1.2752  0.4059 -1.0610
 1778TIP3   OH226824   6.470   0.419   3.440  0.2248 -0.1596  0.2361
 1778TIP3    H126825   6.464   0.394   3.533  0.2064 -2.1364 -0.2506
 1778TIP3    H226826   6.553   0.381   3.411  1.5012  2.5795 -0.0084
 1779TIP3   OH226827   2.039   1.527   1.334 -0.3898 -0.2242 -0.4114
 1779TIP3    H126828   2.030   1.559   1.424 -0.5848 -1.7517  0.1460
 1779TIP3    H226829   2.046   1.606   1.281  0.7108  0.7030  1.0468
 1780TIP3   OH226830   3.823   5.117   1.486 -0.5077 -0.1503 -0.2596
 1780TIP3    H126831   3.799   5.025   1.489  0.6388 -0.5552 -1.8860
 1780TIP3    H226832   3.808   5.142   1.395 -0.8996  1.3094  0.1828
 1781TIP3   OH226833   6.198   3.765   0.420  0.1495 -0.1274  0.0488
 1781TIP3    H126834   6.242   3.811   0.349  1.1839 -0.4955  0.4394
 1781TIP3    H226835   6.166   3.684   0.380  1.4500 -0.7252  0.1603
 1782TIP3   OH226836   5.977   4.175  14.961  0.0096  0.6588  0.0515
 1782TIP3    H126837   6.046   4.143  14.904 -0.5188  1.2814 -0.9664
 1782TIP3    H226838   5.921   4.099  14.977  0.0824  0.5088 -0.3848
 1783TIP3   OH226839   1.808   5.421   5.654  0.3206  0.1620  0.0441
 1783TIP3    H126840   1.775   5.354   5.714  2.0537  0.1328  1.0433
 1783TIP3    H226841   1.730   5.452   5.607 -0.6392 -2.0047  0.0725
 1784TIP3   OH226842   5.135   0.973  13.333  0.5293 -0.0860  0.3134
 1784TIP3    H126843   5.149   1.061  13.299  1.4204 -0.0802  0.6729
 1784TIP3    H226844   5.138   0.916  13.257 -0.2032  0.2034  0.0597
 1785TIP3   OH226845   5.479   4.154   2.867  0.0871 -0.0298  0.6225
 1785TIP3    H126846   5.408   4.214   2.847  0.6630  0.2362 -0.6718
 1785TIP3    H226847   5.445   4.101   2.940 -1.1586  0.5520  0.4913
 1786TIP3   OH226848   2.307   6.712   1.426  0.0986 -0.0447  0.2626
 1786TIP3    H126849   2.329   6.682   1.514 -0.4945  1.2000  0.8559
 1786TIP3    H226850   2.223   6.670   1.406  0.7781 -1.2305 -0.1901
 1787TIP3   OH226851   1.530   3.246   3.079 -0.1122  0.1659  0.1855
 1787TIP3    H126852   1.555   3.270   3.168 -0.2669 -0.8795  0.5187
 1787TIP3    H226853   1.454   3.301   3.060  0.6206  1.2364  0.2530
 1788TIP3   OH226854   4.011   1.095   1.702 -0.0607  0.3048  0.4855
 1788TIP3    H126855   4.060   1.101   1.620  0.3018  0.7213  0.7300
 1788TIP3    H226856   3.934   1.150   1.688 -2.2253 -2.8054 -1.0877
 1789TIP3   OH226857   4.267   2.087  16.328  0.4336 -0.2141  0.6019
 1789TIP3    H126858   4.228   2.001  16.308  0.6610 -0.0343 -0.6766
 1789TIP3    H226859   4.214   2.120  16.400 -0.3605 -0.9579  0.3851
 1790TIP3   OH226860   6.742   1.082   1.806 -0.3435  0.2215 -0.0500
 1790TIP3    H126861   6.790   1.144   1.861  0.3723 -0.5810  0.2670
 1790TIP3    H226862   6.708   1.017   1.867 -0.1784 -0.2678 -0.4678
 1791TIP3   OH226863   1.947   2.163   4.470 -0.0211 -0.3422 -0.3607
 1791TIP3    H126864   1.970   2.252   4.444  2.0808 -0.7029  0.0700
 1791TIP3    H226865   1.888   2.132   4.402  0.1219  0.9878 -1.1110
 1792TIP3   OH226866   0.477   3.696  14.703 -0.4728 -0.0697  0.2753
 1792TIP3    H126867   0.405   3.668  14.647 -1.3006 -0.0746  1.3010
 1792TIP3    H226868   0.524   3.762  14.651 -1.5682  0.3599 -0.2057
 1793TIP3   OH226869   0.950   1.325   4.837  0.6240  0.1949 -0.2349
 1793TIP3    H126870   0.954   1.246   4.783 -0.3793  0.3751 -0.5930
 1793TIP3    H226871   1.040   1.339   4.865  0.7054 -1.5001  0.4556
 1794TIP3   OH226872   3.401   4.177   5.032  0.3724 -0.1441  0.3948
 1794TIP3    H126873   3.484   4.169   4.985  1.7283  1.0422  2.4454
 1794TIP3    H226874   3.388   4.272   5.041  0.0744 -0.3194  2.1545
 1795TIP3   OH226875   6.293   6.382  15.722  0.1156  0.3073  0.3806
 1795TIP3    H126876   6.354   6.437  15.673 -0.6571 -0.3826 -1.4692
 1795TIP3    H226877   6.328   6.380  15.811  0.7947  2.7926  0.2395
 1796TIP3   OH226878   5.780   4.387   4.406 -0.1561 -0.3120  0.2321
 1796TIP3    H126879   5.736   4.331   4.470  0.4921 -1.7253 -0.5343
 1796TIP3    H226880   5.836   4.444   4.459  0.8501 -1.8849  0.9348
 1797TIP3   OH226881   2.687   3.659   2.885  0.2997 -0.1969  0.2477
 1797TIP3    H126882   2.636   3.585   2.853 -0.1945  0.5556 -0.7468
 1797TIP3    H226883   2.756   3.671   2.820 -0.7539  1.3902 -0.6487
 1798TIP3   OH226884   2.995   1.693   4.303 -0.1501  0.1803 -0.3677
 1798TIP3    H126885   2.944   1.650   4.372 -0.3216 -1.5691 -1.5315
 1798TIP3    H226886   2.933   1.754   4.263 -0.5977 -0.1398 -0.1716
 1799TIP3   OH226887   6.536   1.924  13.918 -0.4737  0.2359  0.0017
 1799TIP3    H126888   6.602   1.914  13.987 -0.4748  1.3584  0.1970
 1799TIP3    H226889   6.473   1.854  13.934  1.1545 -1.5009 -0.7867
 1800TIP3   OH226890   4.339   0.048  12.027 -0.3661  0.4444  0.2591
 1800TIP3    H126891   4.371  -0.042  12.032 -2.1142 -0.2108  0.6076
 1800TIP3    H226892   4.291   0.060  12.109 -0.9899  1.3460 -0.2273
 1801TIP3   OH226893   3.050   4.995   4.605  0.1790  0.7974  0.7887
 1801TIP3    H126894   3.044   5.070   4.547  0.6429  0.7169  0.6249
 1801TIP3    H226895   3.083   4.924   4.549  0.2109  0.6055  1.0470
 1802TIP3   OH226896   2.859   6.207   4.863  0.6822  0.0155 -0.0112
 1802TIP3    H126897   2.911   6.213   4.943 -0.2668  0.2433  0.6112
 1802TIP3    H226898   2.825   6.296   4.850  0.7621 -0.0423 -0.6202
 1803TIP3   OH226899   3.681   5.368   0.524  0.4627  0.5244  0.0951
 1803TIP3    H126900   3.604   5.421   0.545 -1.0132 -0.9052 -1.3557
 1803TIP3    H226901   3.685   5.368   0.428  2.9113  1.3617  0.1293
 1804TIP3   OH226902   4.076   5.603  10.400 -0.5867 -0.0930 -0.1774
 1804TIP3    H126903   4.015   5.675  10.386 -1.4232 -0.8324 -0.4370
 1804TIP3    H226904   4.023   5.524  10.392 -0.1592 -0.7217  2.3570
 1805TIP3   OH226905   1.664   2.223  14.709 -0.9317 -0.2863  0.0972
 1805TIP3    H126906   1.718   2.234  14.787 -1.7242  0.9730  0.5079
 1805TIP3    H226907   1.714   2.164  14.653 -0.2247 -1.0060  1.4382
 1806TIP3   OH226908   4.986   2.933  11.799 -0.3492 -0.7564  0.0668
 1806TIP3    H126909   4.921   2.972  11.858  0.2253 -0.2873  0.4012
 1806TIP3    H226910   5.039   3.007  11.769 -0.1504 -1.0954 -0.4328
 1807TIP3   OH226911   0.471   1.412  15.280 -0.3134 -0.0160 -0.5131
 1807TIP3    H126912   0.451   1.457  15.362 -0.2095 -1.0673  0.1051
 1807TIP3    H226913   0.519   1.476  15.228  1.0140  0.1698  0.8848
 1808TIP3   OH226914   0.160   3.323  16.407  0.0344  0.0865  0.1509
 1808TIP3    H126915   0.231   3.322  16.471  0.6126  0.7351 -0.4694
 1808TIP3    H226916   0.120   3.236  16.415 -0.4878  0.4600  2.0130
 1809TIP3   OH226917   0.034   2.007  13.567  0.6978  0.5118  0.2557
 1809TIP3    H126918  -0.010   2.032  13.648  1.0348  0.6239  0.4070
 1809TIP3    H226919  -0.028   2.029  13.498  0.2469  0.0529  0.5069
 1810TIP3   OH226920   2.089   2.457   1.795 -0.2480  0.0653  0.2657
 1810TIP3    H126921   2.067   2.431   1.705 -1.4740  0.6085  0.3852
 1810TIP3    H226922   2.026   2.527   1.816 -0.4773 -0.5541  1.7983
 1811TIP3   OH226923   1.045   1.330  11.051  0.1964  0.0273  0.0014
 1811TIP3    H126924   1.002   1.415  11.047 -1.0162 -0.5486  0.3962
 1811TIP3    H226925   1.123   1.341  10.997 -1.4796  0.5399 -2.5084
 1812TIP3   OH226926   5.479   5.027   4.117  0.4833  0.1979  0.0835
 1812TIP3    H126927   5.407   5.000   4.175 -0.5756 -0.7917 -1.6132
 1812TIP3    H226928   5.456   5.116   4.091 -0.9507 -0.5997 -1.5694
 1813TIP3   OH226929   1.691   5.660  13.553  0.3191 -0.1153 -0.1859
 1813TIP3    H126930   1.752   5.731  13.532  0.2269  0.1562  0.4430
 1813TIP3    H226931   1.608   5.703  13.572  0.5784 -0.2504  1.4603
 1814TIP3   OH226932   2.583   6.772   0.044 -0.4702 -0.0766 -0.1993
 1814TIP3    H126933   2.655   6.765   0.107 -0.6700  0.7655  0.1339
 1814TIP3    H226934   2.506   6.739   0.091 -0.5984  0.4534 -0.0289
 1815TIP3   OH226935   6.588   4.323   6.664 -0.6055 -0.0800  0.2423
 1815TIP3    H126936   6.505   4.321   6.617 -0.1558  0.9582 -0.6227
 1815TIP3    H226937   6.626   4.407   6.642 -0.5520  0.6516  2.7820
 1816TIP3   OH226938   6.288   5.767  12.262  0.1378  0.5160  0.1223
 1816TIP3    H126939   6.350   5.777  12.334  1.8707  0.3975 -1.2703
 1816TIP3    H226940   6.290   5.852  12.217  0.0398  0.2042 -0.4862
 1817TIP3   OH226941   2.969   6.624  12.895  0.3566  0.0389  0.3742
 1817TIP3    H126942   2.997   6.553  12.837 -1.3497 -0.4907  0.1514
 1817TIP3    H226943   2.883   6.597  12.927  0.7281  0.8876  2.2329
 1818TIP3   OH226944   5.853   0.605  11.960 -0.2584 -0.4724  0.6771
 1818TIP3    H126945   5.774   0.572  12.002  0.2577 -1.5363  0.8494
 1818TIP3    H226946   5.860   0.556  11.878 -0.1556  0.1207  0.3222
 1819TIP3   OH226947   2.289   5.150  17.123 -1.4526 -0.2637  0.9735
 1819TIP3    H126948   2.333   5.219  17.173 -0.8084 -0.2016  0.3226
 1819TIP3    H226949   2.282   5.185  17.035  0.9202 -1.8856  0.0502
 1820TIP3   OH226950   3.915   4.025  16.940 -0.1258 -0.1653 -0.4636
 1820TIP3    H126951   3.828   4.047  16.972  0.6630  0.1489  1.6851
 1820TIP3    H226952   3.971   4.029  17.018  1.6874 -1.0579 -1.6271
 1821TIP3   OH226953   1.423   1.638   0.362  0.7638  0.8734  0.0861
 1821TIP3    H126954   1.361   1.575   0.397  0.2498  1.1182 -0.3675
 1821TIP3    H226955   1.384   1.666   0.279  1.7157  0.6588 -0.4527
 1822TIP3   OH226956   3.823   5.520   6.434  0.0921 -0.2638  0.1631
 1822TIP3    H126957   3.907   5.487   6.402 -0.0493 -0.7384  0.2710
 1822TIP3    H226958   3.762   5.503   6.363  0.1323  0.2886 -0.0040
 1823TIP3   OH226959   5.883   6.439   4.983 -0.3214 -0.0905  0.3648
 1823TIP3    H126960   5.964   6.411   5.026  1.0963  1.6520 -1.0058
 1823TIP3    H226961   5.841   6.497   5.046 -0.4460 -0.9101  1.0425
 1824TIP3   OH226962   3.390   5.859   4.197 -0.0457  0.4167 -0.4085
 1824TIP3    H126963   3.431   5.779   4.164  0.0746  1.3567 -2.7135
 1824TIP3    H226964   3.449   5.888   4.267  0.7098 -0.7060 -0.5417
 1825TIP3   OH226965   2.252   2.957   5.846  0.2387 -0.5197  0.2309
 1825TIP3    H126966   2.285   2.938   5.933 -0.8600 -3.2168  0.1420
 1825TIP3    H226967   2.319   3.012   5.806  0.2342  1.7796  3.0999
 1826TIP3   OH226968   1.981   0.285  10.689  0.1904  0.0781  0.3426
 1826TIP3    H126969   2.050   0.274  10.754 -0.2872 -1.5643  0.6102
 1826TIP3    H226970   2.023   0.264  10.605  0.1720 -0.2729  0.4235
 1827TIP3   OH226971   1.084   5.556  11.097  0.8931 -0.4352  0.5564
 1827TIP3    H126972   1.016   5.623  11.089  0.8284 -0.2263  2.5161
 1827TIP3    H226973   1.166   5.604  11.079  0.8640  0.2591  2.0922
 1828TIP3   OH226974   6.009   1.414   1.234  0.2892 -0.5184 -0.3807
 1828TIP3    H126975   6.060   1.374   1.304  1.0822 -0.6851 -1.0445
 1828TIP3    H226976   6.063   1.487   1.204 -0.0608 -0.4354 -0.8123
 1829TIP3   OH226977   6.026   5.453  16.987  0.4599  0.4522 -0.3325
 1829TIP3    H126978   6.015   5.361  16.965 -0.7331  0.6736 -0.6862
 1829TIP3    H226979   6.071   5.451  17.072  1.1191 -0.4300 -0.6794
 1830TIP3   OH226980   4.849   1.056   0.792  0.6557  0.1277  0.5017
 1830TIP3    H126981   4.780   1.111   0.831 -0.8822 -1.5064  0.2447
 1830TIP3    H226982   4.837   1.067   0.697  2.0274  1.2932  0.4362
 1831TIP3   OH226983   2.805   6.103   4.613 -0.0655 -0.4234 -0.2281
 1831TIP3    H126984   2.719   6.114   4.574 -0.5705 -2.0046  0.3699
 1831TIP3    H226985   2.793   6.130   4.704 -0.2447 -1.6722  0.1431
 1832TIP3   OH226986   4.911   5.322  14.268  0.2960  0.2117  0.1622
 1832TIP3    H126987   4.950   5.237  14.249 -1.4614 -1.1656  2.1646
 1832TIP3    H226988   4.842   5.332  14.202  1.7292  1.0479 -1.2645
 1833TIP3   OH226989   0.726   3.256   5.149  0.2438  0.0800  0.0924
 1833TIP3    H126990   0.819   3.233   5.158  0.2746  0.2471  0.1998
 1833TIP3    H226991   0.679   3.175   5.166  0.3709 -0.0037  0.0424
 1834TIP3   OH226992   6.017   4.170  11.796  0.0617  0.7710 -0.7096
 1834TIP3    H126993   6.069   4.105  11.749  0.2444  0.3851  0.0010
 1834TIP3    H226994   6.068   4.189  11.875 -1.6724 -1.0395  0.9867
 1835TIP3   OH226995   3.697   2.104   3.791  0.0316  0.0522  0.0858
 1835TIP3    H126996   3.608   2.108   3.755 -0.4254  1.2350  1.2657
 1835TIP3    H226997   3.737   2.029   3.747 -1.5696 -0.5426 -0.4390
 1836TIP3   OH226998   6.050   0.544   3.343  0.3076 -0.0717  0.1516
 1836TIP3    H126999   6.038   0.613   3.278 -0.2874 -2.0669 -2.0205
 1836TIP3    H227000   6.022   0.583   3.426 -2.0894  1.6394 -1.3245
 1837TIP3   OH227001   0.150   0.280  17.125  0.3159  0.0570 -0.2031
 1837TIP3    H127002   0.244   0.270  17.139  0.1184  0.1118  1.2817
 1837TIP3    H227003   0.117   0.317  17.207 -0.9771  0.1903 -0.7588
 1838TIP3   OH227004   3.533   0.342   4.822 -0.3960  0.1864 -0.3019
 1838TIP3    H127005   3.555   0.379   4.736 -1.2661  0.9828 -0.1919
 1838TIP3    H227006   3.449   0.382   4.845 -0.3092 -0.2323  0.7980
 1839TIP3   OH227007   6.115   2.696   5.325 -0.1651 -0.7661  0.3153
 1839TIP3    H127008   6.030   2.731   5.354 -0.1813 -0.6093  0.0798
 1839TIP3    H227009   6.145   2.759   5.259  1.6664  1.0559  2.6919
 1840TIP3   OH227010   0.427   2.777   5.796  0.2567  0.0717 -0.0154
 1840TIP3    H127011   0.460   2.786   5.707  1.4587  1.0307  0.4952
 1840TIP3    H227012   0.364   2.848   5.807  0.4346  0.2214  0.0373
 1841TIP3   OH227013   2.047   0.954   3.265 -0.4277  0.4311  0.0296
 1841TIP3    H127014   1.971   0.900   3.288 -0.3696 -0.2330 -1.2452
 1841TIP3    H227015   2.120   0.892   3.260 -0.0822  0.8433 -0.0828
 1842TIP3   OH227016   2.015   1.669  11.401  0.5607  0.0796  0.6478
 1842TIP3    H127017   2.005   1.762  11.384 -1.6288 -0.2106 -0.0879
 1842TIP3    H227018   2.013   1.661  11.496 -0.8496  0.7058  0.7003
 1843TIP3   OH227019   0.619   1.086   1.345  0.4227 -0.3162 -0.0628
 1843TIP3    H127020   0.662   1.161   1.386 -0.3799  0.3094 -0.3440
 1843TIP3    H227021   0.680   1.014   1.356  0.5252  0.0070  1.6099
 1844TIP3   OH227022   3.502   3.988  16.746 -0.3474  0.3698 -0.1102
 1844TIP3    H127023   3.593   3.994  16.777 -1.2753  1.4297  2.7714
 1844TIP3    H227024   3.486   4.073  16.705 -0.3236  0.5673  0.2832
 1845TIP3   OH227025   1.952   2.171  16.290  0.0292  0.5644 -0.2051
 1845TIP3    H127026   1.950   2.266  16.284  0.4565  0.6787  1.1435
 1845TIP3    H227027   2.044   2.148  16.275 -0.3933  0.1603 -2.5954
 1846TIP3   OH227028   3.208   4.230  13.470  0.1410  0.5013 -0.0881
 1846TIP3    H127029   3.190   4.267  13.556  0.5864  0.6912 -0.0727
 1846TIP3    H227030   3.285   4.174  13.484 -0.8053 -0.8381  0.0001
 1847TIP3   OH227031   1.065   2.267   1.754 -0.0530 -0.3006  0.5075
 1847TIP3    H127032   0.998   2.329   1.726  1.3092  1.8256  1.6955
 1847TIP3    H227033   1.016   2.195   1.793 -1.6760  1.1778  1.3583
 1848TIP3   OH227034   5.219   4.422  12.960  0.2513 -0.6811  0.8412
 1848TIP3    H127035   5.129   4.418  12.930  0.1701 -0.2896  1.0249
 1848TIP3    H227036   5.243   4.331  12.980  0.0528 -0.8445  0.3505
 1849TIP3   OH227037   1.157   0.113   4.912  0.4702  0.1948 -0.3347
 1849TIP3    H127038   1.143   0.144   4.823 -2.1019  0.3177  0.0374
 1849TIP3    H227039   1.144   0.190   4.967 -1.2916 -0.5010  0.2985
 1850TIP3   OH227040   4.078   3.139  11.348  0.4428  0.0336 -0.4487
 1850TIP3    H127041   4.015   3.206  11.322  2.1414  1.1232 -2.0700
 1850TIP3    H227042   4.048   3.059  11.304 -1.0273 -0.0449  0.6551
 1851TIP3   OH227043   1.288   0.512  13.508  0.0296  0.7396  0.1870
 1851TIP3    H127044   1.262   0.566  13.434 -2.2061 -0.5849 -0.0680
 1851TIP3    H227045   1.212   0.457  13.527  2.0735 -2.2300  0.5184
 1852TIP3   OH227046   2.605   6.139   3.932  0.7134 -0.4934 -0.5662
 1852TIP3    H127047   2.620   6.217   3.879  1.3091  0.1140  0.4456
 1852TIP3    H227048   2.683   6.132   3.987  0.4185 -1.4853 -0.2466
 1853TIP3   OH227049   5.467   3.838   5.027  0.4092 -0.2735  0.1831
 1853TIP3    H127050   5.393   3.891   4.995 -1.3828 -1.7614  1.6275
 1853TIP3    H227051   5.478   3.866   5.118  0.6833 -1.0727  0.3963
 1854TIP3   OH227052   3.304   1.925  11.634  0.6060  0.4154 -0.2929
 1854TIP3    H127053   3.214   1.921  11.602  0.2960 -0.1590  0.6034
 1854TIP3    H227054   3.356   1.881  11.566 -0.0144 -0.6532 -0.1061
 1855TIP3   OH227055   3.909   4.492   2.359 -0.3472 -0.2117 -0.2218
 1855TIP3    H127056   3.830   4.442   2.340  0.6831 -1.0280 -2.7955
 1855TIP3    H227057   3.887   4.543   2.437 -2.7697 -1.7421  0.2042
 1856TIP3   OH227058   0.398   3.856  13.299  0.1683  0.1372 -0.2429
 1856TIP3    H127059   0.330   3.902  13.348 -2.0172 -1.7029 -1.3644
 1856TIP3    H227060   0.420   3.915  13.227  0.6791  1.2626  0.8093
 1857TIP3   OH227061   1.119   1.872   0.738 -0.0429 -0.7265 -0.1662
 1857TIP3    H127062   1.107   1.904   0.649  0.2296 -0.9883 -0.2965
 1857TIP3    H227063   1.151   1.948   0.787 -2.2773  0.0639  0.2274
 1858TIP3   OH227064   5.504   6.059   4.082 -0.2466 -0.3429 -0.4437
 1858TIP3    H127065   5.475   6.108   4.159  1.1533 -0.8998  0.4666
 1858TIP3    H227066   5.552   6.123   4.029  1.6402 -0.6759  0.7761
 1859TIP3   OH227067   2.629   5.541   5.200 -0.2730  0.1557  0.0131
 1859TIP3    H127068   2.584   5.623   5.219 -0.0584  0.6787 -1.6133
 1859TIP3    H227069   2.601   5.518   5.111  1.1004 -0.5741 -0.2534
 1860TIP3   OH227070   4.726   0.106  10.897 -0.1183  0.2237  0.4307
 1860TIP3    H127071   4.740   0.159  10.975 -0.1649  0.4761  0.2695
 1860TIP3    H227072   4.649   0.052  10.918 -0.3082  0.4989  0.4531
 1861TIP3   OH227073   0.038   5.684  11.200 -0.2698  0.0777  0.3478
 1861TIP3    H127074  -0.023   5.617  11.230  0.7504 -1.3493 -0.6283
 1861TIP3    H227075   0.111   5.680  11.262 -0.1749  0.2514  0.2478
 1862TIP3   OH227076   4.423   4.752   6.794  0.1163  0.1304 -0.2039
 1862TIP3    H127077   4.345   4.709   6.828 -0.4309  2.6734  2.2316
 1862TIP3    H227078   4.495   4.718   6.849 -0.1150  1.2269  0.8344
 1863TIP3   OH227079   2.217   6.052  16.799 -0.1315 -0.4261  0.1039
 1863TIP3    H127080   2.275   6.005  16.740  1.0662  1.5709 -0.4082
 1863TIP3    H227081   2.268   6.127  16.829 -2.2506  1.1745  0.0052
 1864TIP3   OH227082   6.687   0.332  15.522 -0.2676  0.7800  0.0128
 1864TIP3    H127083   6.617   0.300  15.465  0.9794 -0.4043 -0.9341
 1864TIP3    H227084   6.728   0.403  15.472  0.1374  0.4748 -0.0916
 1865TIP3   OH227085   2.273   4.694  16.890  0.1776 -0.4383 -0.7518
 1865TIP3    H127086   2.192   4.740  16.914  0.0238 -1.1487  0.1365
 1865TIP3    H227087   2.279   4.705  16.795  0.3376  1.7136 -0.5383
 1866TIP3   OH227088   0.782   3.034   0.749  0.2734  0.1597  0.0412
 1866TIP3    H127089   0.852   2.981   0.711 -0.9208 -2.7421  1.6356
 1866TIP3    H227090   0.821   3.071   0.828  0.9800  1.4085 -0.8547
 1867TIP3   OH227091   3.759   5.134   5.374  0.0060 -0.5323 -0.2892
 1867TIP3    H127092   3.731   5.126   5.283 -1.5290  0.0307  0.1052
 1867TIP3    H227093   3.685   5.174   5.419  0.7064 -0.8610  1.2361
 1868TIP3   OH227094   5.079   0.973   2.278 -0.0565 -0.0877  0.2980
 1868TIP3    H127095   5.087   1.050   2.221  1.7815 -0.3500  0.1232
 1868TIP3    H227096   4.989   0.942   2.265 -0.3202  1.0860 -0.8610
 1869TIP3   OH227097   3.452   2.407  17.167  0.3413  0.1289 -0.2018
 1869TIP3    H127098   3.429   2.424  17.259  1.2585  2.0231 -0.2713
 1869TIP3    H227099   3.415   2.481  17.119  0.1893 -0.6510 -1.3166
 1870TIP3   OH227100   2.931   4.767  12.032 -0.2544  0.4105 -0.3410
 1870TIP3    H127101   3.022   4.737  12.024 -0.5800 -0.7233  0.0294
 1870TIP3    H227102   2.918   4.823  11.956  1.0567  1.4341  0.1359
 1871TIP3   OH227103   2.650   0.360   0.895  0.1075  0.1531  0.6829
 1871TIP3    H127104   2.696   0.442   0.883 -0.0410  0.1347 -0.0751
 1871TIP3    H227105   2.719   0.296   0.913  0.2165  0.4493  1.3236
 1872TIP3   OH227106   1.794   4.683   1.976 -0.4344 -0.2018  0.1344
 1872TIP3    H127107   1.879   4.664   1.936 -1.1221 -3.8305  0.0843
 1872TIP3    H227108   1.749   4.736   1.910  1.1513  0.3044 -0.5977
 1873TIP3   OH227109   1.262   1.589   2.346 -0.0848 -0.7983 -0.1673
 1873TIP3    H127110   1.210   1.526   2.395 -0.8620 -0.3366 -0.3850
 1873TIP3    H227111   1.352   1.557   2.354 -0.3903 -1.5841  0.2443
 1874TIP3   OH227112   2.772   0.318  14.338 -0.1625 -0.8035 -1.0066
 1874TIP3    H127113   2.683   0.285  14.352 -1.3857  1.7924 -2.0308
 1874TIP3    H227114   2.809   0.328  14.426 -2.8741  2.9503 -0.0490
 1875TIP3   OH227115   1.673   0.192   0.486 -0.0092 -0.1659 -0.4351
 1875TIP3    H127116   1.694   0.176   0.578 -1.7457  2.1840  0.4683
 1875TIP3    H227117   1.693   0.109   0.443  0.9897 -1.3157  2.0147
 1876TIP3   OH227118   3.858   4.643  10.382 -0.5198 -1.0505 -0.1710
 1876TIP3    H127119   3.849   4.668  10.474  0.1250 -0.6356 -0.2176
 1876TIP3    H227120   3.855   4.547  10.383  1.6229 -1.1612  0.5501
 1877TIP3   OH227121   0.579   5.060   2.329 -0.3039 -0.1278 -0.5160
 1877TIP3    H127122   0.514   5.130   2.319 -0.6163 -0.1091  1.2712
 1877TIP3    H227123   0.656   5.103   2.366 -0.3852 -0.6555  0.2951
 1878TIP3   OH227124   6.582   4.709  11.451  0.1433 -0.3366  0.5224
 1878TIP3    H127125   6.519   4.705  11.523  1.1725  2.3758  1.7137
 1878TIP3    H227126   6.660   4.665  11.484 -0.1633 -1.2174  0.1075
 1879TIP3   OH227127   3.497   6.386  15.768  0.1803 -0.3537  0.0186
 1879TIP3    H127128   3.478   6.473  15.804 -0.9128 -1.0218  1.1753
 1879TIP3    H227129   3.510   6.331  15.846  0.3464 -1.3223 -0.6839
 1880TIP3   OH227130   5.919   2.516   3.606 -0.2189 -0.0628 -0.2934
 1880TIP3    H127131   5.894   2.609   3.602  1.9306  0.5146 -3.0917
 1880TIP3    H227132   5.840   2.469   3.579 -0.9363  1.0493 -0.1991
 1881TIP3   OH227133   6.672   0.779   3.404  0.0859  0.1970  0.2496
 1881TIP3    H127134   6.614   0.741   3.470  0.7768 -0.3423  0.5604
 1881TIP3    H227135   6.614   0.830   3.348 -0.9247 -1.4731 -0.2967
 1882TIP3   OH227136   2.772   1.138   5.271  0.0208 -0.4484  0.5458
 1882TIP3    H127137   2.708   1.160   5.203  0.9543  1.8161  0.2979
 1882TIP3    H227138   2.723   1.089   5.336 -2.0790  1.4390  0.5022
 1883TIP3   OH227139   4.371   2.530   2.657 -0.2651  0.5178 -0.5849
 1883TIP3    H127140   4.372   2.537   2.561  0.0347 -1.9164 -0.8302
 1883TIP3    H227141   4.277   2.528   2.679 -0.3434  1.7456 -0.7239
 1884TIP3   OH227142   1.304   3.290   4.724  0.5205  0.0152 -0.1582
 1884TIP3    H127143   1.305   3.244   4.640 -0.7618 -0.1645 -0.0985
 1884TIP3    H227144   1.270   3.377   4.703  0.0824 -0.0697  0.1785
 1885TIP3   OH227145   3.184   1.874  12.879  0.0909  0.3556 -0.1786
 1885TIP3    H127146   3.133   1.926  12.943 -2.1588 -0.5358 -1.1385
 1885TIP3    H227147   3.186   1.929  12.801  1.5634  0.8057  0.1347
 1886TIP3   OH227148   6.731   5.514  16.157 -0.1257  0.5077  0.1852
 1886TIP3    H127149   6.818   5.555  16.160 -0.6533  1.6799  0.2754
 1886TIP3    H227150   6.672   5.586  16.134 -1.0169 -0.3743 -0.3930
 1887TIP3   OH227151   4.727   1.939   2.374  0.6626  0.0506  0.2533
 1887TIP3    H127152   4.653   1.879   2.381  0.7891 -0.1688 -0.2447
 1887TIP3    H227153   4.688   2.022   2.350  0.5893 -0.0973 -0.1405
 1888TIP3   OH227154   1.036   6.517   2.532  0.4817  0.2637 -1.0481
 1888TIP3    H127155   1.114   6.492   2.483  1.0631  2.5679 -1.3828
 1888TIP3    H227156   0.991   6.580   2.476 -1.0530 -0.1915 -0.3812
 1889TIP3   OH227157   1.285   2.783  14.542  0.2813 -0.1160  0.2214
 1889TIP3    H127158   1.331   2.768  14.459  2.7508 -0.2568  1.5217
 1889TIP3    H227159   1.331   2.728  14.605 -1.6495 -0.1505  1.6882
 1890TIP3   OH227160   5.997   6.148  12.293  0.0314  0.2419  0.2799
 1890TIP3    H127161   6.092   6.139  12.287  0.1255  1.5822 -0.7921
 1890TIP3    H227162   5.983   6.203  12.370  0.2419  1.2894 -0.4089
 1891TIP3   OH227163   3.876   5.498  13.948 -0.2730  1.2123  0.1940
 1891TIP3    H127164   3.888   5.462  14.036  0.1370  0.7615 -0.0387
 1891TIP3    H227165   3.920   5.435  13.891 -2.7381  0.1023 -0.6074
 1892TIP3   OH227166   2.149   0.851   4.987 -0.7848 -0.0622 -0.6536
 1892TIP3    H127167   2.087   0.841   5.059 -0.7966 -0.6160 -0.7397
 1892TIP3    H227168   2.233   0.821   5.024  0.0251  2.9690  0.2682
 1893TIP3   OH227169   3.229   3.113  11.398 -0.5313  0.6198  0.0609
 1893TIP3    H127170   3.260   3.071  11.318  1.4316  0.8374  0.6506
 1893TIP3    H227171   3.172   3.047  11.439  2.7424 -1.8160  1.1439
 1894TIP3   OH227172   5.728   3.171   2.493 -0.0189 -0.1470  0.3547
 1894TIP3    H127173   5.672   3.139   2.422  0.4732  0.1817 -0.1829
 1894TIP3    H227174   5.756   3.092   2.539 -1.8373 -0.2806  1.3485
 1895TIP3   OH227175   1.531   1.918   2.416 -0.5080 -0.2412 -0.0709
 1895TIP3    H127176   1.569   1.879   2.495  1.3836 -0.3375 -0.9560
 1895TIP3    H227177   1.528   2.012   2.434 -1.2733 -0.3716  0.5547
 1896TIP3   OH227178   5.768   1.057  14.015  0.6124  0.2275 -0.0226
 1896TIP3    H127179   5.786   1.019  14.101 -0.5390 -1.1110 -0.3458
 1896TIP3    H227180   5.825   1.010  13.955  1.4048  1.1530 -0.0191
 1897TIP3   OH227181   2.948   4.453   3.212 -0.1128  0.2786  0.4492
 1897TIP3    H127182   2.986   4.469   3.298  1.3333  0.6945 -0.2414
 1897TIP3    H227183   2.878   4.389   3.228  0.3948  0.0528  1.8657
 1898TIP3   OH227184   1.633   1.896  16.193 -0.1226 -0.4623  0.1944
 1898TIP3    H127185   1.539   1.880  16.204 -0.6076  1.8495 -0.1592
 1898TIP3    H227186   1.655   1.954  16.266  0.4773  0.9702 -1.1031
 1899TIP3   OH227187   2.544   0.850   2.154  0.3537  0.4446  0.2625
 1899TIP3    H127188   2.570   0.842   2.245  0.7553 -0.7833  0.0563
 1899TIP3    H227189   2.535   0.760   2.123 -0.3857  0.8394 -0.7414
 1900TIP3   OH227190   2.112   4.164  15.251  0.0820  0.4919 -0.3990
 1900TIP3    H127191   2.103   4.078  15.211  1.1928  0.5836 -0.8977
 1900TIP3    H227192   2.026   4.183  15.288 -0.5542 -0.2513 -1.4454
 1901TIP3   OH227193   5.506   0.319  16.003  0.2505  0.1485  0.1851
 1901TIP3    H127194   5.433   0.369  16.040 -0.2972 -0.0750 -0.5679
 1901TIP3    H227195   5.555   0.384  15.952 -1.4400 -0.3341 -2.2526
 1902TIP3   OH227196   4.602   0.938   3.374  0.8883 -0.0707  0.1240
 1902TIP3    H127197   4.516   0.900   3.394 -0.2700  1.6109 -1.3271
 1902TIP3    H227198   4.627   0.898   3.291  1.8870 -1.0975  0.9004
 1903TIP3   OH227199   5.335   3.636  17.081  0.4686 -0.4253 -0.0497
 1903TIP3    H127200   5.384   3.566  17.037  1.5744  1.1331 -1.4054
 1903TIP3    H227201   5.359   3.716  17.034 -2.6877  0.5847 -0.2135
 1904TIP3   OH227202   6.290   2.862  17.007  0.1568 -0.5868 -0.2849
 1904TIP3    H127203   6.239   2.808  17.068  1.2780 -0.4338  0.8355
 1904TIP3    H227204   6.280   2.951  17.041  1.1146 -0.5504 -0.0856
 1905TIP3   OH227205   3.659   1.858  16.693  0.4681 -0.1254 -0.4544
 1905TIP3    H127206   3.625   1.930  16.640  0.7505 -1.2288 -2.2163
 1905TIP3    H227207   3.593   1.845  16.761 -0.6969  0.3142 -1.4628
 1906TIP3   OH227208   1.961   2.117  11.823 -0.4058 -0.1787  0.5509
 1906TIP3    H127209   1.900   2.169  11.770  0.7596  1.1690  0.4844
 1906TIP3    H227210   2.002   2.058  11.761 -0.2942  0.2130  0.2439
 1907TIP3   OH227211   2.054   2.970  10.748  0.4446  0.0181  0.1680
 1907TIP3    H127212   2.034   3.028  10.822  2.4814  0.1341  0.6970
 1907TIP3    H227213   1.972   2.963  10.700 -0.1927  2.3071  0.8003
 1908TIP3   OH227214   2.521   3.592   0.771  0.3136  0.9093 -0.2554
 1908TIP3    H127215   2.581   3.581   0.697  0.5378  1.3635 -0.1429
 1908TIP3    H227216   2.459   3.520   0.762  0.9471  0.3552 -0.3057
 1909TIP3   OH227217   5.133   6.533  15.773 -0.7420  0.4235  0.4155
 1909TIP3    H127218   5.104   6.589  15.701 -0.5736  1.4006  1.0794
 1909TIP3    H227219   5.052   6.502  15.813 -0.8423  0.5291  0.2959
 1910TIP3   OH227220   5.738   0.783   3.319 -0.7320 -0.2767 -0.1622
 1910TIP3    H127221   5.794   0.798   3.395 -0.7060  1.7789 -0.5254
 1910TIP3    H227222   5.792   0.732   3.259  0.3656  0.7463 -0.0647
 1911TIP3   OH227223   0.620   0.373  13.377 -0.0282 -0.3750  0.0838
 1911TIP3    H127224   0.683   0.332  13.318  0.9706  2.4629 -1.0093
 1911TIP3    H227225   0.643   0.466  13.376 -2.2765  0.3231  2.1602
 1912TIP3   OH227226   1.222   5.046  16.644 -0.2708  0.2724  0.1452
 1912TIP3    H127227   1.199   5.138  16.656 -2.7808 -0.3203  0.4305
 1912TIP3    H227228   1.296   5.032  16.703  0.2084  2.0841  0.0426
 1913TIP3   OH227229   3.234   5.121  12.246 -0.1848 -0.1267  0.6823
 1913TIP3    H127230   3.168   5.072  12.294 -0.3464  0.4261  1.0359
 1913TIP3    H227231   3.194   5.206  12.230  0.6240  0.3972  1.3523
 1914TIP3   OH227232   5.517   0.489  15.096 -0.2870 -0.4617  0.2039
 1914TIP3    H127233   5.512   0.451  15.183 -0.4640 -1.2086 -0.1254
 1914TIP3    H227234   5.426   0.499  15.068 -0.3422  1.7914  0.9360
 1915TIP3   OH227235   6.251   4.139  15.855  0.1756  0.3217 -0.0167
 1915TIP3    H127236   6.264   4.098  15.769  1.4663 -1.2479  0.8860
 1915TIP3    H227237   6.321   4.204  15.862  0.7664 -0.3460  0.3043
 1916TIP3   OH227238   5.045   0.646  14.992 -0.7682 -0.1527 -0.0548
 1916TIP3    H127239   4.980   0.716  14.989 -0.3308  0.2462 -0.8870
 1916TIP3    H227240   5.074   0.637  14.901  0.6135 -0.0435  0.3539
 1917TIP3   OH227241   6.327   3.947  16.558 -0.0786  0.5904 -0.1299
 1917TIP3    H127242   6.262   4.016  16.545 -0.3195  0.7174  1.5737
 1917TIP3    H227243   6.411   3.993  16.559 -0.1565  0.7276  0.0290
 1918TIP3   OH227244   2.405   4.516   3.844 -0.4360  0.3014  0.1409
 1918TIP3    H127245   2.437   4.563   3.767  0.8455 -2.3150 -1.0395
 1918TIP3    H227246   2.322   4.477   3.816 -0.8810  0.8158  0.7111
 1919TIP3   OH227247   5.085   6.471   0.085  0.2016 -0.5824  0.0994
 1919TIP3    H127248   4.997   6.449   0.116  1.0381 -3.7479  0.5373
 1919TIP3    H227249   5.075   6.482  -0.009 -0.8145  0.1415  0.2702
 1920TIP3   OH227250   5.849   6.382   4.718  0.0943  0.2229 -0.3810
 1920TIP3    H127251   5.850   6.394   4.813  1.2536 -1.9685 -0.0478
 1920TIP3    H227252   5.759   6.358   4.697 -0.8534  3.1995 -0.3096
 1921TIP3   OH227253   0.249   5.634   0.449 -0.7718 -0.5215 -0.2392
 1921TIP3    H127254   0.275   5.552   0.490 -0.6703  0.2868  1.3939
 1921TIP3    H227255   0.314   5.697   0.478 -0.7030  0.1100 -1.6788
 1922TIP3   OH227256   0.945   4.632  16.872  0.4618  0.1626  0.0264
 1922TIP3    H127257   1.020   4.659  16.925  1.9020 -1.7157 -0.9272
 1922TIP3    H227258   0.929   4.541  16.898 -0.8543  0.2148 -0.5294
 1923TIP3   OH227259   0.070   0.628   4.306 -0.0959  0.9035  0.2085
 1923TIP3    H127260   0.087   0.588   4.221 -1.1435  1.7748 -0.4226
 1923TIP3    H227261  -0.025   0.626   4.316  0.0722 -1.6866  2.6061
 1924TIP3   OH227262   3.536   5.571   1.846 -0.0812 -0.4259 -0.1381
 1924TIP3    H127263   3.514   5.572   1.753 -1.3338  3.3460  0.0573
 1924TIP3    H227264   3.451   5.571   1.891  0.4385  0.8963  0.9046
 1925TIP3   OH227265   5.386   6.011  16.685 -0.0989 -0.1986  0.1689
 1925TIP3    H127266   5.454   5.944  16.679  0.3031  0.1840  0.3977
 1925TIP3    H227267   5.317   5.981  16.626  0.4231 -0.4114 -0.3382
 1926TIP3   OH227268   5.931   5.542   1.973  0.6288 -0.4651  1.2623
 1926TIP3    H127269   5.951   5.518   2.064  0.3220  2.0049  2.0453
 1926TIP3    H227270   6.017   5.552   1.932  0.7900 -0.6887  1.5412
 1927TIP3   OH227271   0.698   2.991  14.216  0.2621 -0.6781  0.0537
 1927TIP3    H127272   0.753   3.061  14.253  1.1250 -0.4331 -1.6232
 1927TIP3    H227273   0.733   2.976  14.129 -1.3828 -1.6165 -0.4891
 1928TIP3   OH227274   3.402   2.179  17.060  0.2466 -0.0321 -0.0711
 1928TIP3    H127275   3.442   2.252  17.107 -0.3744 -0.6538  1.4795
 1928TIP3    H227276   3.313   2.209  17.041  0.6962  0.4755 -1.5053
 1929TIP3   OH227277   0.776   5.790  15.752  0.0863  0.9471  0.1315
 1929TIP3    H127278   0.847   5.752  15.701  0.6606  1.9411  0.1561
 1929TIP3    H227279   0.809   5.790  15.842 -1.5781 -2.4144  0.9184
 1930TIP3   OH227280   3.084   3.211   6.346  0.1522 -0.0457  0.5627
 1930TIP3    H127281   3.127   3.191   6.429 -0.5360  1.2819  1.2672
 1930TIP3    H227282   2.991   3.202   6.364 -0.1209  2.1238  0.5192
 1931TIP3   OH227283   4.520   0.543   5.088 -0.0972  0.1184  0.1210
 1931TIP3    H127284   4.427   0.557   5.105 -0.3357  0.4735 -1.3497
 1931TIP3    H227285   4.526   0.450   5.065 -0.1858  0.2211 -0.3281
 1932TIP3   OH227286   2.061   1.448  16.012  0.3298  0.3141  0.6199
 1932TIP3    H127287   1.967   1.462  16.021 -0.1000 -0.5391 -1.8045
 1932TIP3    H227288   2.074   1.431  15.918  2.7932 -0.3450  1.0084
 1933TIP3   OH227289   5.499   2.894   3.448  0.4205 -0.3572 -0.0801
 1933TIP3    H127290   5.525   2.879   3.539 -1.1944 -1.9510  0.1743
 1933TIP3    H227291   5.442   2.820   3.427  1.9840 -0.8918 -2.9245
 1934TIP3   OH227292   0.890   3.463  16.219  0.4570  0.2424  0.2582
 1934TIP3    H127293   0.832   3.399  16.179  0.5775  1.1689 -1.5060
 1934TIP3    H227294   0.973   3.416  16.232  0.3132 -0.1737 -0.3049
 1935TIP3   OH227295   1.006   6.649   0.251  0.3942  0.0032 -0.6602
 1935TIP3    H127296   0.924   6.639   0.204  0.6156  0.7781 -1.2236
 1935TIP3    H227297   1.072   6.610   0.194  0.3354 -1.2443  0.0985
 1936TIP3   OH227298   4.719   1.627  13.209  0.3419  0.2291  0.1175
 1936TIP3    H127299   4.661   1.551  13.212  1.9276 -1.0350  0.0059
 1936TIP3    H227300   4.790   1.606  13.270  1.5796  0.9539 -1.0275
 1937TIP3   OH227301   0.980   1.436  13.745  0.0565 -0.4020 -0.1922
 1937TIP3    H127302   0.917   1.373  13.708  0.2992 -1.0728  0.5149
 1937TIP3    H227303   0.929   1.516  13.758 -0.4660 -0.7115 -0.3073
 1938TIP3   OH227304   4.646   3.049   2.485 -0.5325  0.0928  0.0461
 1938TIP3    H127305   4.697   3.129   2.497  1.0863 -0.6663 -1.1976
 1938TIP3    H227306   4.649   3.033   2.390  0.0284 -1.9128  0.3491
 1939TIP3   OH227307   5.322   0.003   4.001  0.1156  0.2255  0.8459
 1939TIP3    H127308   5.416   0.022   4.004  0.1267  0.3628  0.0213
 1939TIP3    H227309   5.304  -0.011   3.908 -0.4944 -0.7672  1.0956
 1940TIP3   OH227310   1.389   0.128   3.570  0.0576 -0.2773 -0.4729
 1940TIP3    H127311   1.366   0.076   3.647 -1.7556  0.6044 -0.3662
 1940TIP3    H227312   1.305   0.161   3.537  0.9670  0.9356 -1.7021
 1941TIP3   OH227313   6.787   6.582   0.452  0.4853 -0.5621  0.0370
 1941TIP3    H127314   6.791   6.668   0.493 -1.7103 -0.4527  0.1530
 1941TIP3    H227315   6.731   6.594   0.376  1.0868 -1.6595 -0.6127
 1942TIP3   OH227316   0.436   3.341   4.072 -0.4125 -0.1727 -0.4156
 1942TIP3    H127317   0.511   3.287   4.097  0.3994  0.2073 -1.9105
 1942TIP3    H227318   0.365   3.279   4.058 -0.9485 -0.4320  2.6155
 1943TIP3   OH227319   0.591   3.840  11.585  0.1076  0.4204 -0.0054
 1943TIP3    H127320   0.671   3.815  11.630  1.0046  1.1241 -1.1333
 1943TIP3    H227321   0.582   3.777  11.514  0.6619  1.3687 -0.9539
 1944TIP3   OH227322   5.573   3.794  13.345  0.9567 -0.5426  0.5921
 1944TIP3    H127323   5.528   3.865  13.390  0.3497  0.5773 -1.6326
 1944TIP3    H227324   5.652   3.835  13.309  1.0428 -1.1972  0.0084
 1945TIP3   OH227325   0.485   0.415   2.438 -0.1588  0.7536  0.3739
 1945TIP3    H127326   0.529   0.467   2.371  1.6986  0.6594  1.4535
 1945TIP3    H227327   0.402   0.389   2.397  0.8930  0.6755 -1.9119
 1946TIP3   OH227328   6.792   4.858   4.376 -0.0477  0.1534 -0.0628
 1946TIP3    H127329   6.833   4.800   4.440 -0.9546 -1.1012 -0.5722
 1946TIP3    H227330   6.846   4.848   4.297  0.4609  0.8942  0.1860
 1947TIP3   OH227331   3.738   6.169  15.091 -0.0183 -0.5446 -0.2823
 1947TIP3    H127332   3.699   6.162  15.004  0.0488  0.2941 -0.3837
 1947TIP3    H227333   3.665   6.187  15.149  0.1642  0.7865 -0.4391
 1948TIP3   OH227334   2.535   4.930  11.750  0.3803 -0.6940 -0.2245
 1948TIP3    H127335   2.529   4.997  11.818  3.5756  0.2674 -0.7402
 1948TIP3    H227336   2.596   4.866  11.786  0.3570 -1.3347 -1.3037
 1949TIP3   OH227337   5.879   3.740   0.224 -0.5718 -0.4460  0.4303
 1949TIP3    H127338   5.796   3.773   0.191  0.0472  1.3252  0.5563
 1949TIP3    H227339   5.926   3.711   0.146 -0.0597  1.5348 -0.0458
 1950TIP3   OH227340   1.860   1.764  11.847  0.3696 -0.2422 -0.3757
 1950TIP3    H127341   1.890   1.687  11.798  0.8902 -0.6102  0.5111
 1950TIP3    H227342   1.819   1.819  11.780  1.4987 -0.5083 -1.3197
 1951TIP3   OH227343   2.585   6.481  14.418 -0.7208  0.1399 -0.0155
 1951TIP3    H127344   2.529   6.408  14.445 -0.7941  0.4057  0.5836
 1951TIP3    H227345   2.634   6.447  14.343 -0.4615 -0.6654  0.5000
 1952TIP3   OH227346   4.120   2.624   5.715 -0.2255  0.0362 -0.4313
 1952TIP3    H127347   4.163   2.709   5.707  3.1648 -1.4439  0.2515
 1952TIP3    H227348   4.104   2.614   5.808 -1.6479  0.3336 -0.6260
 1953TIP3   OH227349   5.641   4.931  14.931  0.0880 -0.4148  0.1331
 1953TIP3    H127350   5.619   4.868  15.000  1.0073 -0.4405  0.4231
 1953TIP3    H227351   5.656   5.013  14.978  0.4025 -0.3550 -0.0720
 1954TIP3   OH227352   1.104   5.902   1.602 -0.4143  0.4058  0.0949
 1954TIP3    H127353   1.115   5.809   1.583  0.2979  0.6404 -0.7040
 1954TIP3    H227354   1.153   5.946   1.532  1.9886  1.3307  2.2108
 1955TIP3   OH227355   5.454   3.752  12.209  0.1836 -0.4818  0.4416
 1955TIP3    H127356   5.404   3.690  12.157  1.5144 -2.7026  1.6472
 1955TIP3    H227357   5.415   3.747  12.296  0.7737 -0.1968  0.7274
 1956TIP3   OH227358   2.407   5.364   2.625 -0.1995 -0.5278  0.3115
 1956TIP3    H127359   2.356   5.314   2.688 -0.0136 -1.1339 -0.0093
 1956TIP3    H227360   2.492   5.375   2.666 -0.3847 -0.0664  0.5786
 1957TIP3   OH227361   1.654   5.766   4.315  0.2772 -0.3037 -0.1649
 1957TIP3    H127362   1.692   5.681   4.339  1.4208  0.1961 -0.1081
 1957TIP3    H227363   1.633   5.807   4.399 -2.8168 -1.5682 -0.2063
 1958TIP3   OH227364   4.999   5.542   2.699 -0.2572 -0.4319 -0.2206
 1958TIP3    H127365   5.083   5.556   2.744  0.1798  1.0848 -1.4345
 1958TIP3    H227366   4.965   5.461   2.737 -0.3197  1.1266  3.4361
 1959TIP3   OH227367   2.862   5.399  14.057  0.0514 -0.0178  0.7541
 1959TIP3    H127368   2.802   5.461  14.015  0.7995  0.1665 -0.0726
 1959TIP3    H227369   2.838   5.401  14.149 -0.6554  0.6780  0.5668
 1960TIP3   OH227370   2.284   1.427   1.131 -0.0318 -0.1608 -0.1827
 1960TIP3    H127371   2.295   1.451   1.224  0.2668 -0.9723 -0.0051
 1960TIP3    H227372   2.347   1.482   1.085 -0.9386  1.0423 -0.0310
 1961TIP3   OH227373   2.584   1.352   2.064  0.6119  0.3477 -0.0986
 1961TIP3    H127374   2.595   1.342   2.158  0.6554  1.9879  0.1050
 1961TIP3    H227375   2.556   1.266   2.033 -0.7020  0.1210  1.6048
 1962TIP3   OH227376   5.233   2.805   6.240 -0.6439  0.3404  0.5243
 1962TIP3    H127377   5.261   2.870   6.304 -0.7131  0.8219  0.0787
 1962TIP3    H227378   5.233   2.722   6.287  0.7075  0.4565  0.7696
 1963TIP3   OH227379   2.590   5.470   1.000 -1.2192 -0.7688  0.4400
 1963TIP3    H127380   2.681   5.461   1.029 -1.0833  0.7204  0.5818
 1963TIP3    H227381   2.558   5.380   0.990  0.1941 -1.3093  0.6126
 1964TIP3   OH227382   1.198   1.996   1.112 -1.0617  0.3205 -0.2751
 1964TIP3    H127383   1.202   2.032   1.024 -0.1358  0.3915 -0.2087
 1964TIP3    H227384   1.262   2.046   1.162 -0.2721 -0.9182 -0.0010
 1965TIP3   OH227385   3.344   5.926   6.491 -0.5340 -0.3858 -0.6620
 1965TIP3    H127386   3.347   6.016   6.524  3.0501 -1.1646  1.6274
 1965TIP3    H227387   3.282   5.881   6.548  0.3322 -0.1249  0.5087
 1966TIP3   OH227388   5.142   5.783  14.488  0.0681  0.5281  0.6126
 1966TIP3    H127389   5.108   5.745  14.407  2.2071 -0.4963  0.1342
 1966TIP3    H227390   5.097   5.735  14.557 -1.6782  1.3107  0.1003
 1967TIP3   OH227391   1.473   5.928   1.336  0.0628  0.6525  0.6016
 1967TIP3    H127392   1.456   5.958   1.425 -0.0885 -0.8557  1.1151
 1967TIP3    H227393   1.557   5.883   1.341  0.5812  1.4792 -0.2691
 1968TIP3   OH227394   0.520   1.600  16.773 -0.5001  0.2451 -0.1859
 1968TIP3    H127395   0.567   1.680  16.794  0.9987 -0.7619  0.4549
 1968TIP3    H227396   0.484   1.570  16.856  2.7089 -2.0268  0.5808
 1969TIP3   OH227397   3.652   3.571   0.936  1.0691 -0.2530 -0.1127
 1969TIP3    H127398   3.725   3.544   0.991  0.1840  0.6176  1.5586
 1969TIP3    H227399   3.668   3.664   0.917  0.2365  0.0504  0.5852
 1970TIP3   OH227400   5.067   0.909   0.891  0.3731  0.2621 -0.4973
 1970TIP3    H127401   5.012   0.987   0.878  1.5693  1.9943  3.4281
 1970TIP3    H227402   5.148   0.929   0.844  0.3624  1.0111 -0.2052
 1971TIP3   OH227403   3.577   6.264   4.970 -0.0953  0.3753 -0.1460
 1971TIP3    H127404   3.659   6.306   4.946 -0.6301  0.5447 -1.8781
 1971TIP3    H227405   3.597   6.170   4.970  0.1768  0.4336 -0.2231
 1972TIP3   OH227406   1.896   3.091  13.101 -0.0638 -0.2771  0.5067
 1972TIP3    H127407   1.899   3.181  13.135 -0.4834 -0.0177 -0.1194
 1972TIP3    H227408   1.949   3.041  13.162  0.5465  0.4803  0.6212
 1973TIP3   OH227409   3.458   1.074  12.623  0.5009  0.5126 -0.1043
 1973TIP3    H127410   3.396   1.048  12.556 -1.1541  2.4706  0.5782
 1973TIP3    H227411   3.522   1.129  12.577 -0.2333  1.2729 -0.2473
 1974TIP3   OH227412   2.326   4.751   1.892  0.1981  0.0895  0.4173
 1974TIP3    H127413   2.370   4.834   1.877  1.0658 -0.6718 -1.5972
 1974TIP3    H227414   2.271   4.738   1.814  0.7570 -1.6158  0.2627
 1975TIP3   OH227415   3.593   3.247  16.741  0.0902  0.2403  0.3008
 1975TIP3    H127416   3.645   3.248  16.661 -0.4363 -0.7550 -0.0730
 1975TIP3    H227417   3.646   3.296  16.805  2.0074 -1.5964  0.2560
 1976TIP3   OH227418   2.374   3.324   6.580  0.1930 -0.0073 -0.6290
 1976TIP3    H127419   2.279   3.316   6.581  0.1631  0.2106 -1.1514
 1976TIP3    H227420   2.396   3.368   6.662 -0.3429  1.6995 -1.3567
 1977TIP3   OH227421   2.806   0.715  11.253  0.2903 -0.3033 -0.5093
 1977TIP3    H127422   2.719   0.678  11.269 -0.1734  1.0769  0.3433
 1977TIP3    H227423   2.821   0.703  11.160 -0.5077 -1.1949 -0.5333
 1978TIP3   OH227424   2.939   1.545   2.351 -0.4600 -0.1997  0.1851
 1978TIP3    H127425   2.929   1.637   2.329 -0.5404  0.2515  1.9112
 1978TIP3    H227426   3.033   1.532   2.358 -0.4336 -0.3497 -0.4267
 1979TIP3   OH227427   2.539   3.848   6.227  0.4914 -0.1178  0.0417
 1979TIP3    H127428   2.610   3.884   6.279  1.1635 -2.0266  0.5270
 1979TIP3    H227429   2.573   3.766   6.193 -1.2038 -0.6982 -0.3863
 1980TIP3   OH227430   2.449   2.050   1.380 -0.8929  0.3017  0.1628
 1980TIP3    H127431   2.466   1.992   1.455 -2.5946 -1.3593 -0.6520
 1980TIP3    H227432   2.494   2.009   1.307  0.6887  1.8754  0.1850
 1981TIP3   OH227433   0.006   4.563  15.632 -0.5501  0.0528  0.2923
 1981TIP3    H127434  -0.009   4.635  15.571  0.4924 -0.8134 -1.0423
 1981TIP3    H227435   0.029   4.488  15.576 -0.7267 -1.0964  1.6857
 1982TIP3   OH227436   5.694   1.782   1.958 -0.1456 -0.5968 -0.0877
 1982TIP3    H127437   5.648   1.857   1.995  0.1062 -0.2075 -0.5468
 1982TIP3    H227438   5.678   1.789   1.864  0.3412 -0.8047 -0.1870
 1983TIP3   OH227439   3.118   0.325   1.420 -0.1177  0.9230  0.2661
 1983TIP3    H127440   3.211   0.309   1.404 -0.1906  1.1353 -0.3817
 1983TIP3    H227441   3.102   0.286   1.506 -0.2766 -2.6221 -1.1766
 1984TIP3   OH227442   1.315   2.510   5.858 -0.2800 -0.3472 -0.0201
 1984TIP3    H127443   1.378   2.451   5.816  0.0133  0.3229 -0.5386
 1984TIP3    H227444   1.291   2.465   5.939 -0.7517 -1.6077 -0.8151
 1985TIP3   OH227445   3.998   2.620   4.216  0.5924  0.5543 -0.1598
 1985TIP3    H127446   4.034   2.700   4.178  1.2272 -0.2331 -1.2658
 1985TIP3    H227447   4.063   2.553   4.197 -1.6151 -1.0278 -2.6977
 1986TIP3   OH227448   2.546   2.500  13.421 -0.3555  0.9725 -0.0919
 1986TIP3    H127449   2.606   2.528  13.490 -0.0861  1.6107 -0.5693
 1986TIP3    H227450   2.459   2.508  13.460 -0.0968 -1.3684  1.0982
 1987TIP3   OH227451   4.253   1.421   0.948  0.0178  0.0435  0.0377
 1987TIP3    H127452   4.330   1.438   1.002  1.0929  0.5700 -1.6004
 1987TIP3    H227453   4.272   1.464   0.865 -1.2412 -1.4052 -1.0520
 1988TIP3   OH227454   0.114   6.016   3.701  0.1423  0.1178 -0.2130
 1988TIP3    H127455   0.056   5.992   3.774  1.0532  1.3231  0.9488
 1988TIP3    H227456   0.086   5.960   3.629 -0.7054 -1.2074  1.0943
 1989TIP3   OH227457   2.656   4.387   0.492 -0.2591 -0.1212 -0.5425
 1989TIP3    H127458   2.746   4.368   0.464  0.2007 -1.3507  1.5671
 1989TIP3    H227459   2.603   4.320   0.447  0.1760 -0.7243 -0.1765
 1990TIP3   OH227460   2.590   1.379   0.485  0.2144  0.0110  0.2228
 1990TIP3    H127461   2.562   1.365   0.395  0.3580 -0.8750  0.3044
 1990TIP3    H227462   2.635   1.298   0.509  0.7110  0.4689  0.8909
 1991TIP3   OH227463   0.251   3.027   0.862 -0.2234  0.6817 -0.0132
 1991TIP3    H127464   0.194   3.101   0.840 -1.8418 -0.7311 -0.7843
 1991TIP3    H227465   0.191   2.960   0.896  0.9119 -0.9989 -1.2050
 1992TIP3   OH227466   4.326   1.283  14.943 -0.0008 -0.2445 -0.1144
 1992TIP3    H127467   4.345   1.190  14.933 -0.7154 -0.4051 -0.0214
 1992TIP3    H227468   4.272   1.306  14.867 -0.0266  0.0397 -0.0140
 1993TIP3   OH227469   5.768   6.586  10.932 -0.3311  0.4700  0.4113
 1993TIP3    H127470   5.700   6.604  10.867  0.6722 -2.0711 -1.5087
 1993TIP3    H227471   5.762   6.492  10.948  2.5114  0.1852  0.3445
 1994TIP3   OH227472   6.663   2.912  12.453  0.5399  1.6819 -0.1533
 1994TIP3    H127473   6.737   2.964  12.423  1.4390  0.8001  0.4658
 1994TIP3    H227474   6.634   2.864  12.375  3.5224 -1.3954  0.4114
 1995TIP3   OH227475   3.819   1.277  13.171 -0.0505 -0.2748 -0.1698
 1995TIP3    H127476   3.725   1.285  13.156  0.0054 -0.9662 -0.9900
 1995TIP3    H227477   3.858   1.290  13.085  0.6373  0.3760  0.2317
 1996TIP3   OH227478   5.037   3.139  13.923 -0.4770 -0.4522  0.2106
 1996TIP3    H127479   5.108   3.076  13.911  0.4258  0.1640  1.8706
 1996TIP3    H227480   5.025   3.180  13.838  2.3102  0.5556  0.1947
 1997TIP3   OH227481   3.843   0.514  13.832 -0.4135  0.2490 -0.0488
 1997TIP3    H127482   3.932   0.534  13.861 -0.0165 -0.6968 -0.5875
 1997TIP3    H227483   3.808   0.599  13.806  0.7248  0.4984 -0.8847
 1998TIP3   OH227484   0.680   4.339   4.353 -0.4357 -0.5449 -0.5052
 1998TIP3    H127485   0.718   4.323   4.439  0.7922  1.0172 -0.7215
 1998TIP3    H227486   0.718   4.271   4.297  1.8235  0.7106 -0.6190
 1999TIP3   OH227487   2.982   2.694   4.790  0.2401 -0.0510 -0.1929
 1999TIP3    H127488   2.893   2.702   4.823  0.2591  0.0889 -0.1737
 1999TIP3    H227489   2.972   2.682   4.695  0.1818 -0.5760 -0.1189
 2000TIP3   OH227490   5.259   2.308   3.981 -0.3889 -0.1232  0.7289
 2000TIP3    H127491   5.322   2.272   3.918 -1.0601  1.1832 -0.7432
 2000TIP3    H227492   5.250   2.400   3.956  2.1048  1.6125  4.9825
 2001TIP3   OH227493   3.240   5.084   0.662  0.0557 -0.2064 -0.2458
 2001TIP3    H127494   3.335   5.080   0.675  0.2730  2.8199 -0.2852
 2001TIP3    H227495   3.226   5.042   0.576  1.5475  0.5587 -0.9020
 2002TIP3   OH227496   0.638   6.065  11.037 -0.1049 -0.4838 -0.1620
 2002TIP3    H127497   0.632   6.003  10.964 -0.3796 -1.4804  0.6991
 2002TIP3    H227498   0.590   6.142  11.007 -0.0904 -0.8249 -1.0881
 2003TIP3   OH227499   0.441   0.465  14.118  0.2172  0.1423 -0.6526
 2003TIP3    H127500   0.482   0.399  14.173 -2.2550 -0.3278  0.7797
 2003TIP3    H227501   0.485   0.546  14.140  1.3305 -0.5422 -0.2849
 2004TIP3   OH227502   1.239   2.522  12.121  0.3399  0.1580  0.4053
 2004TIP3    H127503   1.240   2.502  12.027  0.6292  3.0045 -0.2973
 2004TIP3    H227504   1.156   2.488  12.153  0.8122 -2.0487 -0.5362
 2005TIP3   OH227505   2.328   0.161   3.420 -0.2303 -0.5264 -0.2383
 2005TIP3    H127506   2.388   0.165   3.494  0.3261  0.3402 -0.7170
 2005TIP3    H227507   2.303   0.069   3.414 -1.7444 -0.3704  2.1439
 2006TIP3   OH227508   2.707   0.724   4.978  0.3376 -0.0626  0.5905
 2006TIP3    H127509   2.641   0.678   5.030 -0.0613 -0.2605 -0.0893
 2006TIP3    H227510   2.779   0.739   5.040  1.1384 -2.9057  0.4910
 2007TIP3   OH227511   2.734   3.943   5.044  0.7258 -0.1453  0.5147
 2007TIP3    H127512   2.700   4.028   5.071 -0.1587 -1.2290  3.1579
 2007TIP3    H227513   2.668   3.908   4.983 -0.8293 -0.4338  2.2811
 2008TIP3   OH227514   0.049   5.751  12.529 -0.5360  0.3966  0.1830
 2008TIP3    H127515   0.041   5.671  12.477 -0.9140  0.9889 -0.7022
 2008TIP3    H227516   0.105   5.808  12.476 -2.5751  1.7849 -0.6185
 2009TIP3   OH227517   5.153   1.364   3.556 -0.2851 -0.5104  0.0010
 2009TIP3    H127518   5.105   1.441   3.524 -2.5397 -1.6384  0.4558
 2009TIP3    H227519   5.158   1.377   3.650 -0.7294 -0.9179  0.0860
 2010TIP3   OH227520   4.783   2.864  13.962 -0.0338 -0.3954  0.2015
 2010TIP3    H127521   4.703   2.863  14.014  0.2880 -1.4919  0.7018
 2010TIP3    H227522   4.817   2.775  13.969  2.3588  0.5378  1.7636
 2011TIP3   OH227523   0.513   1.213  15.098 -0.1471 -0.6711 -0.5719
 2011TIP3    H127524   0.477   1.130  15.130 -1.3251  0.2989  0.7661
 2011TIP3    H227525   0.500   1.274  15.171  1.5045  0.4861 -1.1881
 2012TIP3   OH227526   2.217   1.822  13.587  0.5357 -0.5116 -0.0327
 2012TIP3    H127527   2.161   1.779  13.522 -0.4886  0.0028  0.4826
 2012TIP3    H227528   2.190   1.914  13.584  1.6846 -0.1566 -0.0931
 2013TIP3   OH227529   3.885   0.673  14.546 -0.6513 -0.4941  0.3272
 2013TIP3    H127530   3.865   0.764  14.522  0.0369 -0.6867 -1.0647
 2013TIP3    H227531   3.973   0.658  14.510 -0.6825 -1.6547  0.7047
 2014TIP3   OH227532   0.705   3.355  11.486 -0.3431  0.0448  0.5935
 2014TIP3    H127533   0.678   3.265  11.506  0.7817 -0.7353 -1.1259
 2014TIP3    H227534   0.800   3.350  11.476 -0.2697  1.4240  0.3732
 2015TIP3   OH227535   1.420   5.205   1.311  0.0393 -0.2910 -0.6189
 2015TIP3    H127536   1.441   5.143   1.381  0.5047  1.5518  0.9653
 2015TIP3    H227537   1.324   5.208   1.309  0.0227 -0.3715 -0.0667
 2016TIP3   OH227538   5.609   6.346   1.719 -0.0884  0.6215 -0.2211
 2016TIP3    H127539   5.628   6.306   1.804 -0.0007  0.0201 -0.5226
 2016TIP3    H227540   5.586   6.273   1.662 -1.2741  1.1172 -0.4229
 2017TIP3   OH227541   1.478   4.219   1.534 -0.4433  0.4271  0.2368
 2017TIP3    H127542   1.447   4.139   1.576 -0.7329  0.6525  0.4578
 2017TIP3    H227543   1.507   4.191   1.447  0.0054 -0.0175  0.5224
 2018TIP3   OH227544   5.435   6.172   6.461 -0.2380 -0.3671 -0.0230
 2018TIP3    H127545   5.509   6.131   6.418 -0.9401 -1.7656  0.0467
 2018TIP3    H227546   5.424   6.122   6.543 -0.6318  0.4651  0.4493
 2019TIP3   OH227547   0.188   0.087   2.859  0.2347  0.5964  0.2894
 2019TIP3    H127548   0.138   0.028   2.915 -0.0340 -0.8520 -1.3942
 2019TIP3    H227549   0.123   0.145   2.821  0.4194  1.5917  1.4323
 2020TIP3   OH227550   3.312   2.402   2.948  0.1353 -0.3984 -0.0310
 2020TIP3    H127551   3.367   2.479   2.933 -0.3979 -0.1451 -0.7611
 2020TIP3    H227552   3.373   2.329   2.947  0.5722 -0.0417  0.0495
 2021TIP3   OH227553   4.214   0.862   3.256  0.3684  0.2144 -0.3242
 2021TIP3    H127554   4.178   0.904   3.334  0.0199 -1.6819  0.5960
 2021TIP3    H227555   4.136   0.837   3.205  0.5979  1.7497 -1.4943
 2022TIP3   OH227556   4.789   5.462   3.668  0.4118 -0.1323 -0.2748
 2022TIP3    H127557   4.814   5.552   3.686 -0.1818 -0.0359  0.1109
 2022TIP3    H227558   4.845   5.409   3.725  1.5712 -0.0904 -1.3425
 2023TIP3   OH227559   4.205   5.295   1.907  0.0268  0.6538 -0.2150
 2023TIP3    H127560   4.271   5.342   1.856  0.6815  0.6675  0.6171
 2023TIP3    H227561   4.241   5.294   1.996  0.6679 -2.4915 -0.4012
 2024TIP3   OH227562   4.000   0.713  13.254 -0.2069  0.2968  0.3475
 2024TIP3    H127563   3.938   0.767  13.205 -0.7338 -2.4126 -2.1980
 2024TIP3    H227564   3.952   0.685  13.332 -1.7470 -0.5959 -0.8715
 2025TIP3   OH227565   0.510   6.431  12.254 -0.0255 -0.1208 -0.5208
 2025TIP3    H127566   0.428   6.443  12.207 -0.4984 -2.0341 -0.2716
 2025TIP3    H227567   0.485   6.431  12.347  0.4622  0.6152 -0.3810
 2026TIP3   OH227568   2.708   4.073   2.098  0.0076  0.5356 -0.5306
 2026TIP3    H127569   2.648   4.101   2.029  0.4627 -0.9903 -1.6002
 2026TIP3    H227570   2.777   4.139   2.097 -0.8858  1.4946 -0.3020
 2027TIP3   OH227571   2.175   1.141  13.914  0.5350  0.4787 -0.6227
 2027TIP3    H127572   2.139   1.172  13.831  0.0476 -0.0479 -0.6149
 2027TIP3    H227573   2.219   1.218  13.951 -0.5570  1.1283 -0.6487
 2028TIP3   OH227574   3.165   4.898   1.823  0.3274 -0.4659  0.1786
 2028TIP3    H127575   3.190   4.806   1.830  3.1288  0.3019  1.8221
 2028TIP3    H227576   3.107   4.912   1.898  1.1022 -0.6080  0.8280
 2029TIP3   OH227577   4.046   2.706   4.542 -0.3868 -0.1368 -0.0702
 2029TIP3    H127578   4.132   2.676   4.511  0.4501  1.3505  0.6491
 2029TIP3    H227579   4.067   2.776   4.605 -2.1173 -0.4741  0.9356
 2030TIP3   OH227580   4.759   5.357  14.839 -0.3364 -0.8876  0.2187
 2030TIP3    H127581   4.771   5.290  14.772 -0.6276 -1.4706  0.7354
 2030TIP3    H227582   4.839   5.354  14.891  0.3788  0.3511 -0.7672
 2031TIP3   OH227583   1.182   5.953   5.031  0.0894  0.2547  0.1257
 2031TIP3    H127584   1.094   5.916   5.024  0.1688  0.3190 -2.6122
 2031TIP3    H227585   1.229   5.896   5.091 -0.6941 -2.3203 -1.5614
 2032TIP3   OH227586   0.166   1.595   1.446  0.2645 -0.3266  0.1059
 2032TIP3    H127587   0.202   1.598   1.535 -1.3285  0.9922  0.7520
 2032TIP3    H227588   0.187   1.680   1.409  1.2674 -1.0130 -0.9797
 2033TIP3   OH227589   3.674   4.685  15.111  0.2925  0.0750 -0.5802
 2033TIP3    H127590   3.766   4.665  15.094  0.0997 -0.6282 -0.8463
 2033TIP3    H227591   3.657   4.648  15.198  0.1343 -0.2459 -0.7452
 2034TIP3   OH227592   2.692   5.687   5.822  0.2588 -0.1932  0.5133
 2034TIP3    H127593   2.651   5.601   5.813 -1.7575  0.8732 -1.0941
 2034TIP3    H227594   2.674   5.712   5.912 -1.4364 -0.3770  0.2591
 2035TIP3   OH227595   5.244   0.008   3.497 -0.4229 -0.4953  0.3256
 2035TIP3    H127596   5.187   0.078   3.465 -1.3957 -1.7038 -0.6873
 2035TIP3    H227597   5.189  -0.070   3.495  0.9192 -1.4812  0.5090
 2036TIP3   OH227598   2.005   1.755  13.072 -0.6948  0.0770 -0.1928
 2036TIP3    H127599   2.017   1.758  12.977  1.0653 -1.6487 -0.0951
 2036TIP3    H227600   2.040   1.669  13.097 -1.4601  0.3505  1.9764
 2037TIP3   OH227601   3.427   3.795  12.016  0.1188 -0.1241 -0.6547
 2037TIP3    H127602   3.420   3.861  12.084  0.7354 -0.8872  0.1664
 2037TIP3    H227603   3.346   3.803  11.966 -1.0092 -0.5266  1.0634
 2038TIP3   OH227604   2.371   0.244  11.685  0.0683 -0.1435 -0.0992
 2038TIP3    H127605   2.411   0.159  11.701 -0.4362 -0.4611 -0.5202
 2038TIP3    H227606   2.283   0.237  11.722  0.6086  0.7936  1.4948
 2039TIP3   OH227607   0.478   6.280  13.601 -0.2630 -0.6017  0.4247
 2039TIP3    H127608   0.501   6.329  13.679  1.7619 -0.4223 -0.2121
 2039TIP3    H227609   0.450   6.346  13.538 -0.0131 -0.5278  0.3889
 2040TIP3   OH227610   5.237   3.065  12.640  0.0295 -0.4350 -0.2473
 2040TIP3    H127611   5.307   3.061  12.575 -0.5486 -1.1092 -0.8344
 2040TIP3    H227612   5.203   2.976  12.645  2.0185 -1.1958  3.1706
 2041TIP3   OH227613   3.867   4.833  14.535  0.2249  0.1185 -0.0763
 2041TIP3    H127614   3.962   4.833  14.546  0.0414 -0.8542  2.2094
 2041TIP3    H227615   3.852   4.787  14.453  1.7189 -0.5433 -0.0057
 2042TIP3   OH227616   4.246   3.527  13.057 -0.3267 -0.1801 -0.2702
 2042TIP3    H127617   4.223   3.437  13.036 -0.8629 -0.4875  1.4366
 2042TIP3    H227618   4.166   3.577  13.044 -0.6883 -0.3886  0.9955
 2043TIP3   OH227619   1.799   1.168  14.628  0.3520 -0.0464 -0.1346
 2043TIP3    H127620   1.725   1.226  14.644  1.2811  1.0669  0.3224
 2043TIP3    H227621   1.833   1.194  14.543  1.1693  0.5571  0.3602
 2044TIP3   OH227622   2.534   3.063  13.059  0.2740 -0.6220 -0.2212
 2044TIP3    H127623   2.470   3.132  13.073  0.1839 -0.7484 -0.0038
 2044TIP3    H227624   2.483   2.986  13.035  0.1086 -1.3711  2.1926
 2045TIP3   OH227625   0.235   2.884   4.533 -0.3627  0.0600  0.1269
 2045TIP3    H127626   0.313   2.898   4.480 -0.1877 -2.0072 -0.2529
 2045TIP3    H227627   0.202   2.972   4.552  1.8008  0.9676 -0.0681
 2046TIP3   OH227628   1.201   0.553   4.858  0.2447 -0.3248 -0.1556
 2046TIP3    H127629   1.251   0.482   4.898 -0.3160 -1.5774 -1.6002
 2046TIP3    H227630   1.111   0.537   4.884  0.4038  1.5442  1.8732
 2047TIP3   OH227631   1.086   4.818   1.603  0.3565  0.2000  0.0936
 2047TIP3    H127632   1.048   4.733   1.583 -0.3136  0.0717  1.7455
 2047TIP3    H227633   1.133   4.805   1.686  2.4225  0.8426 -0.8853
 2048TIP3   OH227634   2.259   5.913   3.588  0.0997  0.1514  0.2366
 2048TIP3    H127635   2.235   5.875   3.672 -0.0019 -0.5464 -0.0964
 2048TIP3    H227636   2.239   5.844   3.524  0.3951  0.5819 -0.3326
 2049TIP3   OH227637   5.416   1.416   5.403 -0.2527  0.1905 -0.4708
 2049TIP3    H127638   5.474   1.370   5.464  0.3703  0.3827 -0.9170
 2049TIP3    H227639   5.450   1.505   5.399  1.1199 -0.3561 -2.8179
 2050TIP3   OH227640   4.929   1.090  12.513  0.4467 -0.5332  0.6303
 2050TIP3    H127641   4.878   1.034  12.455  1.5740 -2.4050  1.3749
 2050TIP3    H227642   4.979   1.030  12.568  2.6853  1.1677  0.6333
 2051TIP3   OH227643   1.864   5.073   0.406  0.0836 -0.5219  0.0065
 2051TIP3    H127644   1.869   4.992   0.457 -1.3251 -0.2240  0.6620
 2051TIP3    H227645   1.804   5.128   0.455 -2.1490 -0.6004 -2.4518
 2052TIP3   OH227646   3.220   0.730  10.954 -0.2279 -0.2183 -0.1805
 2052TIP3    H127647   3.267   0.662  11.003 -1.5256 -0.9090  0.1527
 2052TIP3    H227648   3.279   0.805  10.955  1.7429 -1.6369 -1.4903
 2053TIP3   OH227649   1.454   1.954   3.807 -0.3838  0.1465 -0.3028
 2053TIP3    H127650   1.491   2.008   3.737 -1.5785  1.8981  0.3589
 2053TIP3    H227651   1.449   1.866   3.769  0.2065  0.7783 -1.9459
 2054TIP3   OH227652   3.092   5.278  11.104 -1.0195  0.0275  0.2393
 2054TIP3    H127653   3.069   5.370  11.092  0.5178  0.5088  0.8395
 2054TIP3    H227654   3.168   5.265  11.047 -1.2858 -0.9026  0.0840
 2055TIP3   OH227655   1.971   2.348   5.036 -0.7961  0.4033  0.0657
 2055TIP3    H127656   2.024   2.271   5.014 -1.1429 -0.1210  1.0176
 2055TIP3    H227657   1.944   2.383   4.951  0.0723 -0.0218 -0.4036
 2056TIP3   OH227658   2.769   1.061  12.791 -0.3529  0.0386  0.1842
 2056TIP3    H127659   2.701   1.010  12.748 -0.6312  1.2098 -0.8419
 2056TIP3    H227660   2.721   1.123  12.846 -0.0694 -0.0281  0.5049
 2057TIP3   OH227661   2.960   6.413   1.252 -0.1284  0.0408 -0.4672
 2057TIP3    H127662   2.942   6.469   1.328 -1.2796  1.2304 -1.5638
 2057TIP3    H227663   3.004   6.336   1.289 -1.4656  0.1498  1.5277
 2058TIP3   OH227664   5.348   0.740   2.580 -0.4562 -0.0518  0.1957
 2058TIP3    H127665   5.428   0.781   2.612 -1.0285  1.2795 -0.0267
 2058TIP3    H227666   5.341   0.659   2.630  0.3601  0.4285  1.1235
 2059TIP3   OH227667   6.574   4.584   0.041 -0.4485 -0.3622 -0.3165
 2059TIP3    H127668   6.586   4.506  -0.013 -1.8330 -1.2088  0.5489
 2059TIP3    H227669   6.619   4.563   0.123 -1.6421 -0.6646  0.2779
 2060TIP3   OH227670   2.166   4.327   3.194  0.0478 -0.3027  0.4072
 2060TIP3    H127671   2.075   4.328   3.225  0.5355  2.2947  2.0180
 2060TIP3    H227672   2.184   4.418   3.170  2.4929 -0.5678  1.0070
 2061TIP3   OH227673   3.503   0.628   5.907 -0.2895  0.0797  0.2155
 2061TIP3    H127674   3.495   0.669   5.821 -0.5932  1.3287  0.8102
 2061TIP3    H227675   3.466   0.540   5.896 -1.4411  0.6421 -0.6367
 2062TIP3   OH227676   6.444   0.033  15.475  0.6555  0.3245 -0.5624
 2062TIP3    H127677   6.465   0.108  15.419  1.1006 -0.6710 -1.7893
 2062TIP3    H227678   6.393  -0.025  15.419  0.0748 -0.1669  0.4576
 2063TIP3   OH227679   1.604   4.100  16.359  0.3550  0.1132  0.5014
 2063TIP3    H127680   1.681   4.151  16.333  0.7056  0.1372  1.5509
 2063TIP3    H227681   1.555   4.158  16.417  0.3604 -0.4564  1.0912
 2064TIP3   OH227682   2.214   0.483  11.675  0.1366 -0.8610  0.5073
 2064TIP3    H127683   2.260   0.566  11.665 -0.8007 -0.3306  0.4595
 2064TIP3    H227684   2.282   0.420  11.699  0.7961  0.0045  0.9455
 2065TIP3   OH227685   4.573   4.663   0.858  0.5787  0.2867  0.6696
 2065TIP3    H127686   4.633   4.716   0.805 -0.2175 -0.8457 -1.5093
 2065TIP3    H227687   4.624   4.638   0.935  2.5384  0.3006 -0.5577
 2066TIP3   OH227688   3.723   6.633  11.378 -0.0825  0.0457  0.2866
 2066TIP3    H127689   3.636   6.615  11.415 -0.0887 -0.4628  0.0450
 2066TIP3    H227690   3.775   6.666  11.451 -0.7601  1.3245  0.2194
 2067TIP3   OH227691   0.780   0.685   3.081 -0.4783 -0.2743 -0.4408
 2067TIP3    H127692   0.846   0.739   3.038 -0.8660  0.6860  0.1254
 2067TIP3    H227693   0.820   0.598   3.088  1.3005  0.6028  1.1386
 2068TIP3   OH227694   3.627   4.888   3.224 -0.1707 -0.1113  0.1380
 2068TIP3    H127695   3.622   4.796   3.200  1.2051 -0.0996 -0.2823
 2068TIP3    H227696   3.623   4.935   3.140 -2.9192  0.3758  0.4357
 2069TIP3   OH227697   4.154   1.836  12.487 -0.2755  0.4386  0.3005
 2069TIP3    H127698   4.166   1.783  12.409 -0.3281 -0.0567  0.6218
 2069TIP3    H227699   4.165   1.927  12.457 -1.2050  0.3175 -0.4523
 2070TIP3   OH227700   0.607   2.319   2.693 -0.2758  0.2694 -0.0747
 2070TIP3    H127701   0.678   2.383   2.693 -2.0245  2.3840  2.3781
 2070TIP3    H227702   0.598   2.292   2.784 -1.4602 -1.3791 -0.6158
 2071TIP3   OH227703   0.990   4.296   3.407  0.2157 -0.4502  0.6732
 2071TIP3    H127704   0.951   4.257   3.485 -0.5227  0.7976  0.9632
 2071TIP3    H227705   0.938   4.262   3.334  0.4890 -1.1112  0.7877
 2072TIP3   OH227706   1.801   6.510  16.997 -0.4853  0.0394  0.2809
 2072TIP3    H127707   1.708   6.519  16.975 -0.3724  0.7474  0.0575
 2072TIP3    H227708   1.822   6.420  16.976 -1.4437 -0.5196  1.5843
 2073TIP3   OH227709   2.090   5.126   1.437  0.2945  0.5775  0.0199
 2073TIP3    H127710   2.169   5.091   1.478 -1.0164 -0.2221  2.0333
 2073TIP3    H227711   2.018   5.085   1.485 -1.3598  1.6398 -1.4209
 2074TIP3   OH227712   2.703   1.338  16.261 -0.2136 -0.2270 -0.4337
 2074TIP3    H127713   2.736   1.390  16.187 -0.3148 -0.9892 -1.0261
 2074TIP3    H227714   2.768   1.269  16.273 -0.7471 -0.7613 -0.5382
 2075TIP3   OH227715   6.186   4.303   1.620  0.0469  0.3494 -0.2486
 2075TIP3    H127716   6.162   4.217   1.655 -0.5402  0.6402  0.0813
 2075TIP3    H227717   6.169   4.363   1.693 -2.5681  1.1729 -1.4270
 2076TIP3   OH227718   0.326   4.362  13.990  0.4626  0.1851 -0.6639
 2076TIP3    H127719   0.410   4.408  13.994 -0.2301  1.3873  1.9164
 2076TIP3    H227720   0.327   4.304  14.066 -0.8401 -0.1702 -0.9025
 2077TIP3   OH227721   2.683   5.446  13.767 -0.0741  0.1061  0.1860
 2077TIP3    H127722   2.666   5.362  13.810  0.2231 -1.0726 -1.8413
 2077TIP3    H227723   2.647   5.435  13.679  1.3729  1.5239 -0.6408
 2078TIP3   OH227724   6.587   6.069   2.931  0.6284  0.0052  0.2377
 2078TIP3    H127725   6.568   5.981   2.963 -0.5588  0.2316  0.1913
 2078TIP3    H227726   6.512   6.122   2.959  1.0720  0.8948 -0.1957
 2079TIP3   OH227727   3.379   2.101  14.440  0.6425  0.2242  0.2495
 2079TIP3    H127728   3.419   2.139  14.518  1.4701  0.1553 -0.1355
 2079TIP3    H227729   3.453   2.067  14.389  0.3429  2.1357 -1.5899
 2080TIP3   OH227730   1.209   0.593   5.468  0.5572 -0.0258 -1.1805
 2080TIP3    H127731   1.163   0.674   5.444  0.0650 -0.4195 -1.6008
 2080TIP3    H227732   1.285   0.591   5.410 -0.0166 -0.4026 -1.9354
 2081TIP3   OH227733   5.100   3.449   2.458  0.1075 -0.3011  0.2112
 2081TIP3    H127734   5.086   3.389   2.531 -0.5168 -0.8044 -0.3099
 2081TIP3    H227735   5.146   3.397   2.392  0.4176  0.0682  0.1326
 2082TIP3   OH227736   3.889   5.537  11.316  0.3452  0.1538  0.2492
 2082TIP3    H127737   3.855   5.592  11.246 -0.4044  0.5208  0.8836
 2082TIP3    H227738   3.816   5.479  11.339  1.4359 -1.8780 -1.1252
 2083TIP3   OH227739   4.530   0.794  15.506 -0.4751 -0.2078  0.2405
 2083TIP3    H127740   4.465   0.762  15.443  1.3632 -1.4755 -1.1121
 2083TIP3    H227741   4.594   0.841  15.452  1.2208 -1.4513  1.0907
 2084TIP3   OH227742   4.998   5.750  17.227  0.4721  0.1395  0.2682
 2084TIP3    H127743   5.028   5.715  17.143  0.3692  1.0352 -0.1549
 2084TIP3    H227744   4.940   5.682  17.262 -0.3452  0.1937 -0.8927
 2085TIP3   OH227745   0.548   3.337  12.643  0.6955  0.2550  0.0397
 2085TIP3    H127746   0.467   3.327  12.692 -0.1974  0.1151 -1.4155
 2085TIP3    H227747   0.617   3.332  12.709 -0.3997 -1.0005  1.1422
 2086TIP3   OH227748   3.664   4.475   3.307 -0.2584 -0.2699 -0.6511
 2086TIP3    H127749   3.650   4.522   3.389  0.6892 -1.3671  0.1656
 2086TIP3    H227750   3.636   4.385   3.325 -1.0364 -0.3066 -1.8638
 2087TIP3   OH227751   6.671   6.432  10.987  0.4135  0.2267  0.1889
 2087TIP3    H127752   6.658   6.506  10.929  1.7280 -0.6710 -1.3448
 2087TIP3    H227753   6.627   6.457  11.068  0.5907  2.5457 -0.3558
 2088TIP3   OH227754   4.527   3.825  15.525  0.0415 -0.3316 -0.4630
 2088TIP3    H127755   4.597   3.891  15.525  0.0905 -0.3830 -0.5183
 2088TIP3    H227756   4.459   3.863  15.469 -1.8834  1.7033  2.9159
 2089TIP3   OH227757   3.570   1.789   1.749 -0.6183 -0.3834  0.1947
 2089TIP3    H127758   3.529   1.857   1.802  2.3773  0.3299  1.8336
 2089TIP3    H227759   3.533   1.707   1.783  0.4482  0.1222  2.7809
 2090TIP3   OH227760   0.340   5.684   1.848 -0.8204  0.1038  0.2421
 2090TIP3    H127761   0.366   5.592   1.846 -2.1993 -0.3354  0.8945
 2090TIP3    H227762   0.385   5.720   1.924  0.7428  0.3142 -0.7600
 2091TIP3   OH227763   1.388   2.701  16.216 -0.3544 -0.0029 -0.3748
 2091TIP3    H127764   1.333   2.744  16.152  0.4898  0.4597 -0.8100
 2091TIP3    H227765   1.478   2.717  16.185  0.0769  0.3729  0.9974
 2092TIP3   OH227766   3.870   5.422  11.631 -0.0056  0.2337 -0.1495
 2092TIP3    H127767   3.904   5.507  11.602 -1.8715  1.6009  1.4153
 2092TIP3    H227768   3.775   5.435  11.637 -0.3390 -1.9770  0.1910
 2093TIP3   OH227769   5.114   0.312  14.478  0.1686  0.2235 -0.4628
 2093TIP3    H127770   5.151   0.399  14.463  0.1158  0.5192  0.9320
 2093TIP3    H227771   5.141   0.290  14.567  0.0033 -1.1065 -0.7232
 2094TIP3   OH227772   5.883   3.271   0.870 -0.0741  0.4531 -0.2486
 2094TIP3    H127773   5.936   3.342   0.906  2.4228 -0.2413 -2.2472
 2094TIP3    H227774   5.830   3.312   0.802  0.5235  0.6051 -0.6294
 2095TIP3   OH227775   2.743   1.336   6.212 -0.1203  0.3513 -0.0716
 2095TIP3    H127776   2.662   1.322   6.261 -0.0115 -0.2381 -0.0498
 2095TIP3    H227777   2.813   1.327   6.276  0.0168 -0.3227 -0.3031
 2096TIP3   OH227778   0.037   1.490   0.422 -0.2419  0.3571  0.0894
 2096TIP3    H127779   0.081   1.517   0.341  0.3531 -0.6100  0.0682
 2096TIP3    H227780   0.106   1.447   0.473 -0.8879 -0.1159  0.5765
 2097TIP3   OH227781   0.407   4.781  16.641  0.1611 -0.6771  0.3081
 2097TIP3    H127782   0.339   4.722  16.674 -1.0835  0.6882  0.2885
 2097TIP3    H227783   0.486   4.757  16.689 -1.4441  0.9944  4.1677
 2098TIP3   OH227784   1.330   1.301   3.453 -0.1124 -0.6806 -0.4557
 2098TIP3    H127785   1.249   1.276   3.497 -1.7364  2.5762 -1.2549
 2098TIP3    H227786   1.398   1.290   3.520 -1.9158  0.5881  1.7411
 2099TIP3   OH227787   1.025   2.716   3.927  0.1665 -0.2786 -0.1971
 2099TIP3    H127788   1.067   2.683   3.847  0.0843 -1.2443  0.1413
 2099TIP3    H227789   1.093   2.711   3.994 -0.2500 -1.1127  0.1770
 2100TIP3   OH227790   5.956   2.602  11.778  0.0078  0.1549  0.8665
 2100TIP3    H127791   5.911   2.571  11.699  1.4826 -2.8285  1.0471
 2100TIP3    H227792   5.893   2.588  11.849 -0.6080  0.9655  0.4945
 2101TIP3   OH227793   5.629   2.487   3.964 -0.1235  0.0015 -0.8385
 2101TIP3    H127794   5.709   2.439   3.948  0.9618  1.2609  0.4745
 2101TIP3    H227795   5.567   2.455   3.898  0.7272 -2.6164 -0.4600
 2102TIP3   OH227796   6.042   5.715   5.850  0.4470 -0.0693  0.1896
 2102TIP3    H127797   6.017   5.767   5.774 -1.1738 -2.5776 -1.1297
 2102TIP3    H227798   6.121   5.668   5.822  0.4851 -0.1770  0.4704
 2103TIP3   OH227799   4.644   0.418   2.492  0.0161  0.0495 -0.2574
 2103TIP3    H127800   4.711   0.477   2.528 -0.9518  0.4094  1.0037
 2103TIP3    H227801   4.663   0.333   2.532 -0.0750  0.0715 -0.1680
 2104TIP3   OH227802   5.275   0.221  16.482  0.8082  0.0517 -0.4656
 2104TIP3    H127803   5.314   0.146  16.437  2.1953  0.5497 -0.1567
 2104TIP3    H227804   5.345   0.286  16.484 -0.4330  1.4549 -0.9291
 2105TIP3   OH227805   3.465   6.651   2.493  0.7718  0.0108  0.3611
 2105TIP3    H127806   3.420   6.735   2.485  1.0231  0.0171 -1.5753
 2105TIP3    H227807   3.423   6.608   2.567  0.3957  1.6839  1.1782
 2106TIP3   OH227808   3.830   5.643   4.304  0.1313  0.1327  0.7167
 2106TIP3    H127809   3.867   5.720   4.347  0.3578  1.0816 -1.0617
 2106TIP3    H227810   3.906   5.591   4.278  0.0497  0.0784  0.5850
 2107TIP3   OH227811   5.848   6.034   0.914  0.4073 -0.4207  0.2315
 2107TIP3    H127812   5.820   6.121   0.943  0.4488 -0.4028  0.2192
 2107TIP3    H227813   5.928   6.016   0.965 -0.8495 -1.4344  1.9592
 2108TIP3   OH227814   3.773   6.090   4.305  0.0814  0.1201 -0.4051
 2108TIP3    H127815   3.847   6.060   4.358 -2.0938 -0.5718  2.5163
 2108TIP3    H227816   3.794   6.181   4.283  1.7241 -0.0189  0.4396
 2109TIP3   OH227817   4.894   5.649   5.792  0.3011  0.5775  0.5092
 2109TIP3    H127818   4.887   5.736   5.753 -2.7133  0.5429  0.7217
 2109TIP3    H227819   4.918   5.592   5.719 -1.0717  1.1402 -0.4361
 2110TIP3   OH227820   3.912   1.337  12.463 -0.1350  0.1565  0.1868
 2110TIP3    H127821   3.990   1.379  12.498  0.1637  0.4934 -0.8780
 2110TIP3    H227822   3.880   1.284  12.536  1.6318 -0.7611  0.3493
 2111TIP3   OH227823   6.396   4.147  11.254 -0.1786  0.2951 -0.0173
 2111TIP3    H127824   6.326   4.197  11.212  0.1755 -0.3055 -1.3850
 2111TIP3    H227825   6.459   4.213  11.282  0.4565  0.6480 -2.1202
 2112TIP3   OH227826   0.885   1.159   0.661  0.1415  0.2283 -0.3016
 2112TIP3    H127827   0.805   1.162   0.714 -1.1382 -2.7163 -1.8287
 2112TIP3    H227828   0.882   1.239   0.609 -2.6954 -0.4588 -1.3843
 2113TIP3   OH227829   2.326   1.358   2.683  0.5426  0.4464  0.4533
 2113TIP3    H127830   2.385   1.388   2.751  1.5416  0.4298 -0.3723
 2113TIP3    H227831   2.365   1.390   2.601 -1.7687  2.3936 -0.0163
 2114TIP3   OH227832   3.485   4.473  15.816  0.0395  1.0196  0.3954
 2114TIP3    H127833   3.521   4.389  15.846  0.7609  1.1973  0.0444
 2114TIP3    H227834   3.407   4.486  15.869 -0.7409 -0.4412 -0.3440
 2115TIP3   OH227835   1.302   6.113   0.035 -0.0745  0.0573 -0.0293
 2115TIP3    H127836   1.378   6.117   0.093 -1.3767 -1.1622  1.8800
 2115TIP3    H227837   1.336   6.079  -0.048  1.5144 -0.1866  0.6970
 2116TIP3   OH227838   1.876   4.616  15.376 -0.3137  0.2342 -0.3672
 2116TIP3    H127839   1.923   4.673  15.314  0.0099  0.1502 -0.2021
 2116TIP3    H227840   1.895   4.653  15.462  0.6613 -0.6524 -0.1788
 2117TIP3   OH227841   0.517   3.065   0.952  0.1818  0.6175 -0.2229
 2117TIP3    H127842   0.425   3.052   0.930 -0.1487  0.6842  1.0454
 2117TIP3    H227843   0.561   3.075   0.867 -0.8215 -0.3768 -0.8862
 2118TIP3   OH227844   5.516   2.915  15.619 -0.0581  0.5589  0.0528
 2118TIP3    H127845   5.441   2.950  15.667  0.1693 -0.3287  1.0824
 2118TIP3    H227846   5.525   2.973  15.543 -1.2312  1.2051  0.3840
 2119TIP3   OH227847   4.247   1.341   5.447 -0.3768  0.1114 -0.0683
 2119TIP3    H127848   4.309   1.334   5.519 -0.9085 -0.1000  0.3830
 2119TIP3    H227849   4.185   1.409   5.475  1.0039  2.1022 -1.5623
 2120TIP3   OH227850   5.305   1.769   1.814 -0.1016  0.0094  0.2861
 2120TIP3    H127851   5.250   1.848   1.810 -0.1542  0.0106  0.8505
 2120TIP3    H227852   5.349   1.775   1.899  1.6388  0.5743 -0.5954
 2121TIP3   OH227853   3.597   4.930   3.492  0.6843 -0.1245  0.5068
 2121TIP3    H127854   3.597   4.942   3.397 -0.9074  1.4068  0.6630
 2121TIP3    H227855   3.572   5.015   3.528  0.2465 -0.9419  2.2666
 2122TIP3   OH227856   5.683   3.963   2.314  0.5658 -0.0339  0.4005
 2122TIP3    H127857   5.765   3.993   2.275  1.2651 -1.2463  0.8703
 2122TIP3    H227858   5.703   3.876   2.349 -1.5712 -1.4561 -1.6038
 2123TIP3   OH227859   6.407   5.043  11.533  0.4344 -0.1810  0.5639
 2123TIP3    H127860   6.318   5.009  11.537  0.8810 -1.2676  1.7302
 2123TIP3    H227861   6.422   5.081  11.619  0.5519  1.5140 -0.1507
 2124TIP3   OH227862   2.809   6.309  13.173  0.2407  0.3230  0.4127
 2124TIP3    H127863   2.851   6.334  13.091 -1.0611 -0.1679 -0.4298
 2124TIP3    H227864   2.720   6.344  13.167  0.3895  1.0800  2.0272
 2125TIP3   OH227865   1.304   6.225   3.472 -0.0282 -0.1105 -0.0806
 2125TIP3    H127866   1.247   6.191   3.541 -0.4156 -1.8661 -1.2109
 2125TIP3    H227867   1.353   6.296   3.515 -3.6230  2.1679  0.7127
 2126TIP3   OH227868   6.590   0.417   3.923 -0.1296 -0.0868 -0.3882
 2126TIP3    H127869   6.545   0.485   3.974  1.8502 -0.0947  1.5380
 2126TIP3    H227870   6.625   0.463   3.847 -0.7993  0.5395 -0.3327
 2127TIP3   OH227871   0.716   6.620   0.528  0.3081  0.2676 -0.5323
 2127TIP3    H127872   0.636   6.577   0.498  1.2823  0.1050 -3.1066
 2127TIP3    H227873   0.741   6.678   0.456  0.5062  3.2085  1.7217
 2128TIP3   OH227874   3.888   0.977  13.102  0.0260  0.2320 -0.1714
 2128TIP3    H127875   3.877   1.032  13.024 -2.3270  0.1170 -0.0071
 2128TIP3    H227876   3.812   0.998  13.156  0.0295 -1.8512  0.7197
 2129TIP3   OH227877   4.512   6.044  13.153  0.0656 -0.9108  0.0179
 2129TIP3    H127878   4.420   6.023  13.143 -0.5551  0.7646  1.6156
 2129TIP3    H227879   4.521   6.132  13.117  0.7328 -0.5222  1.0791
 2130TIP3   OH227880   4.764   6.728  13.211 -0.4449  0.0464  0.1925
 2130TIP3    H127881   4.774   6.728  13.116 -0.1259  2.9623  0.1429
 2130TIP3    H227882   4.849   6.757  13.244 -1.2716  1.3985  1.2087
 2131TIP3   OH227883   5.922   1.696   6.391 -0.0764 -0.2905 -0.5897
 2131TIP3    H127884   5.964   1.676   6.475 -0.6837  0.3400 -0.1164
 2131TIP3    H227885   5.872   1.618   6.370  0.4229 -0.6147 -0.5795
 2132TIP3   OH227886   3.494   4.758  11.594  0.2636  0.6173  0.4967
 2132TIP3    H127887   3.402   4.772  11.618  0.4345 -2.1374  3.4341
 2132TIP3    H227888   3.542   4.822  11.646  0.1290 -0.2018  1.6878
 2133TIP3   OH227889   5.289   3.457  13.834  0.3023  0.2499 -0.2509
 2133TIP3    H127890   5.236   3.419  13.763  0.4177  2.9877 -1.9293
 2133TIP3    H227891   5.372   3.481  13.792  1.5868 -0.8347  1.5659
 2134TIP3   OH227892   2.572   2.078  17.148 -0.5368  0.1151 -0.3895
 2134TIP3    H127893   2.630   2.109  17.217  0.6576 -1.3293 -0.7034
 2134TIP3    H227894   2.555   1.986  17.169 -0.7767 -0.1349 -1.5809
 2135TIP3   OH227895   5.564   3.891  11.992 -0.2297 -0.7340  0.4989
 2135TIP3    H127896   5.479   3.894  11.948 -0.2702 -0.8764  0.5666
 2135TIP3    H227897   5.551   3.831  12.065  0.0609 -1.1210  0.2362
 2136TIP3   OH227898   6.273   0.675  14.485  0.7702  0.5343 -0.0012
 2136TIP3    H127899   6.281   0.624  14.405 -0.8940 -0.5514  0.4793
 2136TIP3    H227900   6.327   0.629  14.549  0.1576  0.0150  0.1406
 2137TIP3   OH227901   0.973   3.105  14.270  0.1404  0.5218  0.2815
 2137TIP3    H127902   0.987   3.055  14.350  0.9436 -0.6348 -0.5366
 2137TIP3    H227903   0.997   3.044  14.200  2.0559  2.3380 -0.7511
 2138TIP3   OH227904   4.566   6.125  12.841  0.3083  0.2891 -0.0090
 2138TIP3    H127905   4.625   6.109  12.767 -0.0755 -1.9118  0.0732
 2138TIP3    H227906   4.615   6.182  12.900  2.7514 -2.0261  0.4135
 2139TIP3   OH227907   5.055   1.293   1.786 -0.6342  0.2780 -0.0725
 2139TIP3    H127908   5.149   1.295   1.770 -0.2213  0.2531  2.0133
 2139TIP3    H227909   5.024   1.217   1.737  0.8388 -1.0745  0.9727
 2140TIP3   OH227910   3.265   6.248   3.876  0.3839 -1.1373  0.1470
 2140TIP3    H127911   3.268   6.332   3.923 -2.2476 -1.4866  1.1168
 2140TIP3    H227912   3.228   6.269   3.791  0.7583 -1.1561 -0.0200
 2141TIP3   OH227913   5.973   0.378  12.615  0.0562  0.0700 -0.6181
 2141TIP3    H127914   6.045   0.362  12.555  0.7095  1.2114 -0.1690
 2141TIP3    H227915   5.934   0.292  12.629  1.1574 -0.5241 -1.0802
 2142TIP3   OH227916   3.743   5.592  14.444 -0.8024 -0.8164 -0.5538
 2142TIP3    H127917   3.784   5.511  14.474  0.2926  0.2811  1.1522
 2142TIP3    H227918   3.650   5.581  14.464 -0.3016 -0.6136  2.4925
 2143TIP3   OH227919   2.134   6.081   5.791  0.3227  0.1317 -0.0930
 2143TIP3    H127920   2.073   6.080   5.865  1.7654  0.6741  1.1761
 2143TIP3    H227921   2.216   6.049   5.828  1.0086  0.1237 -1.5633
 2144TIP3   OH227922   3.549   2.855  10.970 -0.1660  0.1413 -0.1060
 2144TIP3    H127923   3.575   2.924  10.909  0.6480 -1.5393 -1.7549
 2144TIP3    H227924   3.536   2.778  10.915 -0.4320 -1.1983  1.7412
 2145TIP3   OH227925   5.220   1.469   2.068  0.6575  0.5926 -0.2608
 2145TIP3    H127926   5.138   1.451   2.114  0.5746 -0.2718 -0.7185
 2145TIP3    H227927   5.277   1.507   2.134  0.9187 -1.6185  0.8694
 2146TIP3   OH227928   6.652   5.946  12.934  0.0950  0.0432 -0.2361
 2146TIP3    H127929   6.664   5.900  12.851  1.7346  1.3160 -0.7698
 2146TIP3    H227930   6.719   6.014  12.933  0.7827 -0.4722  2.5453
 2147TIP3   OH227931   4.644   2.773  14.989  0.0445 -0.5612  0.2978
 2147TIP3    H127932   4.580   2.830  15.031 -0.5810 -2.3823  2.0082
 2147TIP3    H227933   4.647   2.802  14.898 -1.6663  0.8905  0.6539
 2148TIP3   OH227934   5.423   4.074  10.513 -0.1746  0.0417  0.0189
 2148TIP3    H127935   5.346   4.120  10.547  0.6452  1.8977 -0.4840
 2148TIP3    H227936   5.468   4.140  10.460  0.6757 -1.6015 -1.4058
 2149TIP3   OH227937   0.579   4.302   1.609  0.0020  1.0054  0.6689
 2149TIP3    H127938   0.528   4.227   1.579 -1.4373  1.4584  1.8696
 2149TIP3    H227939   0.631   4.268   1.682  1.4631  0.5598 -0.5130
 2150TIP3   OH227940   1.764   0.451   2.212  0.4608  0.3595 -0.0850
 2150TIP3    H127941   1.708   0.526   2.191  1.6820  0.3515 -4.0619
 2150TIP3    H227942   1.713   0.374   2.186  1.0807  0.1508 -0.7068
 2151TIP3   OH227943   1.792   2.742  12.408 -0.1798  0.0396  0.0513
 2151TIP3    H127944   1.787   2.703  12.495  0.2017 -0.2051 -0.0335
 2151TIP3    H227945   1.711   2.714  12.365 -0.6403  0.6407  0.5181
 2152TIP3   OH227946   0.366   4.521  15.631  0.2736  0.2205 -0.8788
 2152TIP3    H127947   0.354   4.507  15.725  1.0522  1.2191 -0.6171
 2152TIP3    H227948   0.287   4.484  15.591 -0.7610  1.0800  0.2941
 2153TIP3   OH227949   4.061   4.152  12.663  0.4844  0.5151  0.2962
 2153TIP3    H127950   4.054   4.206  12.584 -0.9723 -0.0353  0.0141
 2153TIP3    H227951   4.149   4.116  12.659  1.1605  2.1130  0.0058
 2154TIP3   OH227952   1.007   5.149   6.175 -0.8487 -0.3978  0.1122
 2154TIP3    H127953   0.980   5.240   6.181 -0.6518 -0.3879  0.9598
 2154TIP3    H227954   1.088   5.151   6.124 -1.0868 -0.1501 -0.2559
 2155TIP3   OH227955   3.474   4.870  13.364  0.2392 -0.3551 -0.2334
 2155TIP3    H127956   3.567   4.856  13.348  0.2686 -0.0529 -0.3412
 2155TIP3    H227957   3.454   4.952  13.318 -0.0630 -0.3790 -0.1484
 2156TIP3   OH227958   4.180   1.934  15.122  0.7260  0.4250 -0.1787
 2156TIP3    H127959   4.104   1.908  15.174  0.8789  0.6337  0.1520
 2156TIP3    H227960   4.202   1.856  15.071 -0.1385  0.5785 -0.8050
 2157TIP3   OH227961   3.867   4.136   5.086  0.2489  0.2630  0.3225
 2157TIP3    H127962   3.822   4.063   5.129 -0.8176  1.4011  1.2088
 2157TIP3    H227963   3.940   4.156   5.145  1.1918 -0.7170 -0.4493
 2158TIP3   OH227964   3.671   0.786   1.924 -0.1916  0.0400 -0.3598
 2158TIP3    H127965   3.621   0.707   1.942  0.1025 -0.4211 -1.4772
 2158TIP3    H227966   3.617   0.857   1.959 -0.5255 -0.6344  0.5236
 2159TIP3   OH227967   5.796   0.365   1.181  0.5405  0.3633 -0.2885
 2159TIP3    H127968   5.745   0.446   1.183  0.0652  0.1910 -2.7279
 2159TIP3    H227969   5.746   0.305   1.237  0.1506  1.3354  0.4354
 2160TIP3   OH227970   2.686   2.419   5.975  0.3183 -0.0867 -0.3303
 2160TIP3    H127971   2.671   2.326   5.956  1.7721 -0.4038 -0.0620
 2160TIP3    H227972   2.618   2.442   6.038  1.9979 -1.9369  2.3281
 2161TIP3   OH227973   2.171   4.713   5.525 -0.5504 -0.5652  0.4698
 2161TIP3    H127974   2.179   4.631   5.476  1.2232  0.2611 -0.7486
 2161TIP3    H227975   2.221   4.698   5.605  1.4630 -0.1060 -0.6367
 2162TIP3   OH227976   0.933   6.645  15.707  0.2620 -0.0908 -0.1777
 2162TIP3    H127977   0.929   6.634  15.802  2.2763  0.1014 -0.0305
 2162TIP3    H227978   0.972   6.563  15.675 -0.3985 -0.1553 -0.8528
 2163TIP3   OH227979   6.329   6.081  11.199 -0.0393  0.0243 -0.0598
 2163TIP3    H127980   6.330   6.145  11.270 -1.3311 -0.1631  0.1460
 2163TIP3    H227981   6.242   6.088  11.160  0.0780 -1.0288 -0.5652
 2164TIP3   OH227982   2.246   5.963  15.782 -0.5557  0.2561  0.3770
 2164TIP3    H127983   2.164   5.931  15.819 -2.6080  0.8449 -3.2019
 2164TIP3    H227984   2.220   6.035  15.725  2.7597  1.8639  0.6801
 2165TIP3   OH227985   2.600   1.008  14.027 -0.3224 -0.9844  0.5858
 2165TIP3    H127986   2.634   0.921  14.008 -1.5371 -1.0220 -1.7453
 2165TIP3    H227987   2.505   0.997  14.028 -0.5424  0.4238 -0.5655
 2166TIP3   OH227988   5.231   1.983  12.640 -0.1755  0.3484  0.4297
 2166TIP3    H127989   5.265   2.014  12.557 -0.1803 -0.1243  0.2483
 2166TIP3    H227990   5.181   2.057  12.675  1.1081  1.0943  0.7558
 2167TIP3   OH227991   6.702   3.364   6.010  0.5723  0.7178 -0.3353
 2167TIP3    H127992   6.715   3.310   6.088 -0.1945 -0.8271 -1.2337
 2167TIP3    H227993   6.762   3.327   5.945 -1.2104 -0.2240 -1.5023
 2168TIP3   OH227994   0.489   2.850  11.012 -0.2912  0.0837 -0.0540
 2168TIP3    H127995   0.560   2.785  11.007  0.0931  0.3454  1.5113
 2168TIP3    H227996   0.507   2.910  10.940  0.8706 -0.0826  0.0760
 2169TIP3   OH227997   2.694   6.397   1.410  0.3261 -0.3259  0.0708
 2169TIP3    H127998   2.772   6.387   1.356  0.0234 -0.6357 -0.3172
 2169TIP3    H227999   2.625   6.422   1.348  0.4198  1.4058  0.6015
 2170TIP3   OH228000   5.147   4.157  10.565  0.0913  0.5972  0.0615
 2170TIP3    H128001   5.084   4.182  10.496 -0.8560  1.8748  1.3353
 2170TIP3    H228002   5.160   4.063  10.552 -1.1612  0.5362 -0.9957
 2171TIP3   OH228003   0.372   3.150   2.929 -0.0344  0.5920  0.8974
 2171TIP3    H128004   0.447   3.142   2.988  1.9758  1.6427 -1.3735
 2171TIP3    H228005   0.358   3.244   2.921  1.8852  0.7405 -2.6660
 2172TIP3   OH228006   5.544   2.919  12.618 -0.5399  0.1609  0.6490
 2172TIP3    H128007   5.504   2.965  12.544  1.1031  1.1957  0.3418
 2172TIP3    H228008   5.633   2.899  12.588 -1.0138 -2.9597  0.9094
 2173TIP3   OH228009   3.588   0.670   6.374  0.1675 -0.2925 -0.0997
 2173TIP3    H128010   3.507   0.630   6.406  0.4498 -0.4336  0.4596
 2173TIP3    H228011   3.658   0.622   6.419  0.5781 -0.4579 -0.9055
 2174TIP3   OH228012   6.393   6.681  15.697 -0.1897  0.0281 -0.4334
 2174TIP3    H128013   6.450   6.727  15.635 -0.3819 -0.0711 -0.6848
 2174TIP3    H228014   6.304   6.705  15.670 -0.4636 -2.6054 -2.3100
 2175TIP3   OH228015   5.280   2.216  15.113  0.1608 -0.1335  0.2259
 2175TIP3    H128016   5.332   2.262  15.179  0.6359  1.7684 -1.3699
 2175TIP3    H228017   5.344   2.161  15.067  0.1611 -0.1474  0.2429
 2176TIP3   OH228018   2.468   5.230   4.549  0.2256 -0.2931  0.3746
 2176TIP3    H128019   2.529   5.165   4.585 -0.0151 -1.0762 -0.5804
 2176TIP3    H228020   2.392   5.178   4.522  0.3956  0.2502 -1.2342
 2177TIP3   OH228021   5.260   3.945   2.152  0.1281 -0.0445 -0.1775
 2177TIP3    H128022   5.177   3.944   2.200 -0.5265  1.9899 -1.1659
 2177TIP3    H228023   5.315   4.005   2.201  1.8734 -2.8903  1.6410
 2178TIP3   OH228024   1.192   4.188   2.329 -0.5722  0.6563  0.1904
 2178TIP3    H128025   1.115   4.174   2.384 -1.2107  1.0033 -0.5909
 2178TIP3    H228026   1.267   4.177   2.388 -1.2023 -0.2141  0.8487
 2179TIP3   OH228027   2.155   0.432   1.642  0.8331  0.2045 -0.6464
 2179TIP3    H128028   2.248   0.435   1.664  0.3150 -1.2581  2.1836
 2179TIP3    H228029   2.121   0.518   1.670  1.0566  0.1279 -0.1283
 2180TIP3   OH228030   2.926   6.044   1.261 -0.0654 -0.4880  0.4953
 2180TIP3    H128031   2.923   6.021   1.354 -0.8779 -1.0888  0.3296
 2180TIP3    H228032   2.852   6.103   1.249  0.8990  0.7567  0.5208
 2181TIP3   OH228033   3.191   3.835   2.752 -0.1786 -0.0583 -0.6469
 2181TIP3    H128034   3.167   3.895   2.823 -0.3973 -0.0048 -0.7658
 2181TIP3    H228035   3.271   3.792   2.783 -0.1009  0.1888 -0.4992
 2182TIP3   OH228036   3.248   1.101  11.647  0.1949  0.4419  0.2827
 2182TIP3    H128037   3.187   1.032  11.618 -0.2967  0.9677  0.0545
 2182TIP3    H228038   3.333   1.072  11.614  0.6657 -1.8665  3.1354
 2183TIP3   OH228039   2.451   0.141   4.790 -0.1587 -0.2166  0.1745
 2183TIP3    H128040   2.411   0.063   4.752 -0.6736 -0.3963  1.0729
 2183TIP3    H228041   2.529   0.156   4.736 -0.9296 -0.3910 -1.0289
 2184TIP3   OH228042   3.354   1.889  16.450 -0.3557  0.1498  0.1680
 2184TIP3    H128043   3.332   1.811  16.399 -0.8149  1.6794 -2.1099
 2184TIP3    H228044   3.271   1.935  16.462  0.2630  1.5908 -0.8290
 2185TIP3   OH228045   5.622   5.081  16.912  0.0333  0.0742 -0.2239
 2185TIP3    H128046   5.653   5.063  17.001  0.7756 -1.6055 -0.8033
 2185TIP3    H228047   5.606   5.176  16.912  1.5804  0.3820  1.2027
 2186TIP3   OH228048   1.481   3.752  15.040 -0.1685 -0.2228 -0.1155
 2186TIP3    H128049   1.568   3.788  15.056 -0.6276  0.7772  0.2405
 2186TIP3    H228050   1.475   3.677  15.100 -0.1795  0.7548  1.1558
 2187TIP3   OH228051   1.465   6.794   2.270  0.4568  0.3895  0.3899
 2187TIP3    H128052   1.424   6.879   2.253 -2.3689 -1.3982 -2.9122
 2187TIP3    H228053   1.442   6.775   2.361 -0.2923  2.3990  0.6784
 2188TIP3   OH228054   0.884   3.022   2.447 -0.7571 -0.4681 -0.1447
 2188TIP3    H128055   0.958   3.078   2.472 -1.3074 -0.0291  0.5440
 2188TIP3    H228056   0.884   2.952   2.511 -1.5966  0.1402  0.5421
 2189TIP3   OH228057   3.650   5.517   4.108  0.6851 -0.4535  0.4781
 2189TIP3    H128058   3.601   5.589   4.068 -0.6257 -1.1707  0.7315
 2189TIP3    H228059   3.691   5.556   4.185 -1.1332 -0.2335  1.4101
 2190TIP3   OH228060   6.204   5.380   3.840  0.5339 -0.0687 -0.0919
 2190TIP3    H128061   6.295   5.377   3.811 -0.2026  1.5914 -3.0074
 2190TIP3    H228062   6.167   5.296   3.811  0.8264 -0.1888 -0.1184
 2191TIP3   OH228063   0.297   2.342   5.235 -0.5533 -0.0793  0.0064
 2191TIP3    H128064   0.280   2.402   5.162 -1.6632 -1.7823 -1.1777
 2191TIP3    H228065   0.211   2.307   5.258  0.1118 -1.4138  0.5172
 2192TIP3   OH228066   2.531   1.417   3.698 -0.3684  0.6947  0.2025
 2192TIP3    H128067   2.563   1.341   3.747  1.3522  1.8043  0.9170
 2192TIP3    H228068   2.505   1.382   3.613 -1.0561 -0.9046  1.0227
 2193TIP3   OH228069   2.461   4.022   3.589 -0.1886  0.0141  0.2217
 2193TIP3    H128070   2.487   4.055   3.675  0.2912  3.1578 -0.9875
 2193TIP3    H228071   2.394   4.083   3.560 -0.2453 -0.8992 -1.6846
 2194TIP3   OH228072   5.292   3.589  12.624 -0.9113  0.7078  0.0462
 2194TIP3    H128073   5.285   3.518  12.560  1.0794  0.4432  0.0695
 2194TIP3    H228074   5.236   3.562  12.696 -1.1528 -0.2347 -0.4797
 2195TIP3   OH228075   1.401   6.578  13.074  0.5410  0.0766  0.0485
 2195TIP3    H128076   1.444   6.649  13.123 -2.1552  2.1882 -0.4331
 2195TIP3    H228077   1.446   6.577  12.989 -0.3297  2.3180 -0.5054
 2196TIP3   OH228078   5.839   3.747   3.293 -0.3466  0.3683 -0.2343
 2196TIP3    H128079   5.813   3.742   3.201  1.3002  0.1324 -0.7197
 2196TIP3    H228080   5.763   3.783   3.338 -1.8496 -1.2123 -1.3881
 2197TIP3   OH228081   5.071   1.201  13.834 -0.0970  0.1401  0.4458
 2197TIP3    H128082   4.983   1.213  13.798 -0.1153 -1.0137  0.0487
 2197TIP3    H228083   5.106   1.290  13.843 -0.6172  0.5264 -1.1075
 2198TIP3   OH228084   1.642   3.389   5.932 -0.2382 -0.1787  0.0558
 2198TIP3    H128085   1.693   3.337   5.994 -0.2218 -1.5814 -1.0748
 2198TIP3    H228086   1.559   3.342   5.924 -1.4518  1.6326  1.2614
 2199TIP3   OH228087   5.183   2.432  14.825 -0.3640  0.0264 -0.2224
 2199TIP3    H128088   5.175   2.340  14.799  2.3173 -0.7047  1.2433
 2199TIP3    H228089   5.094   2.466  14.818 -1.3567 -2.5187 -1.3039
 2200TIP3   OH228090   3.717   3.017   2.959  0.5025  0.3476 -0.0027
 2200TIP3    H128091   3.628   3.018   2.994  1.2613  0.4322  2.0492
 2200TIP3    H228092   3.705   3.014   2.864 -1.6774  0.5593  0.2092
 2201TIP3   OH228093   0.995   5.024   4.501 -0.1450 -0.5156 -0.1779
 2201TIP3    H128094   1.032   4.962   4.564 -1.9261  0.4920  2.0069
 2201TIP3    H228095   0.974   5.101   4.554 -3.1845 -0.1933 -1.6761
 2202TIP3   OH228096   4.554   2.904  12.099  0.1902 -0.6949  0.1546
 2202TIP3    H128097   4.571   2.825  12.047 -1.9402 -0.4273 -1.0322
 2202TIP3    H228098   4.598   2.974  12.050 -2.1737 -0.3676 -1.6644
 2203TIP3   OH228099   6.426   5.862   1.428 -0.4268 -0.7918  0.2650
 2203TIP3    H128100   6.358   5.867   1.360  0.7445  0.2011 -0.8802
 2203TIP3    H228101   6.483   5.790   1.399 -0.1274 -0.6009  0.3775
 2204TIP3   OH228102   0.567   4.075   5.139 -0.3502 -0.0071  0.6836
 2204TIP3    H128103   0.536   3.985   5.136 -0.5018  0.0478  0.5770
 2204TIP3    H228104   0.662   4.068   5.147 -0.3335 -0.1733  0.3317
 2205TIP3   OH228105   5.517   5.206   5.693  0.2517 -0.7173  0.4337
 2205TIP3    H128106   5.579   5.276   5.711 -0.2705 -0.0261 -0.3482
 2205TIP3    H228107   5.571   5.133   5.662  0.6155  0.2724 -1.4122
 2206TIP3   OH228108   0.060   3.033   3.305  0.5010 -0.5124 -0.2840
 2206TIP3    H128109   0.079   3.090   3.231  0.9968 -0.9088 -0.4641
 2206TIP3    H228110   0.104   3.075   3.379 -0.0289 -0.0941 -0.1920
 2207TIP3   OH228111   2.356   2.683   1.319 -0.0165 -0.2134  0.2256
 2207TIP3    H128112   2.364   2.669   1.413 -0.3245  0.0006  0.2846
 2207TIP3    H228113   2.445   2.701   1.289 -0.1669  1.6284  0.7881
 2208TIP3   OH228114   1.656   0.434   6.226  0.0775  0.3030 -0.5605
 2208TIP3    H128115   1.587   0.499   6.210 -1.3450 -0.6895  1.1190
 2208TIP3    H228116   1.612   0.365   6.275  1.9456 -1.1287 -0.7975
 2209TIP3   OH228117   5.366   3.280   5.451 -0.0657 -0.5305 -0.2747
 2209TIP3    H128118   5.406   3.348   5.505 -0.9436  0.8856 -1.3362
 2209TIP3    H228119   5.329   3.218   5.514  1.2753 -0.3524  0.7152
 2210TIP3   OH228120   2.984   3.324  14.256 -0.5736  0.2703 -0.0563
 2210TIP3    H128121   2.915   3.276  14.210  0.2475 -0.6198 -0.4078
 2210TIP3    H228122   2.997   3.274  14.337  1.0093 -0.7705 -0.8975
 2211TIP3   OH228123   2.642   3.183   4.225  0.2232 -0.2123 -0.2769
 2211TIP3    H128124   2.645   3.110   4.287  2.4365  0.6227  0.7070
 2211TIP3    H228125   2.634   3.261   4.281  0.1015  0.4267 -1.1703
 2212TIP3   OH228126   1.160   0.334   5.556 -0.3606  0.4409  0.2636
 2212TIP3    H128127   1.170   0.423   5.520 -1.3746 -0.0952 -1.4992
 2212TIP3    H228128   1.157   0.346   5.650  0.2000  2.2108  0.0953
 2213TIP3   OH228129   1.648   4.194   1.213  0.1566 -0.2074 -0.4840
 2213TIP3    H128130   1.644   4.263   1.278 -2.4961 -0.7586  0.0647
 2213TIP3    H228131   1.666   4.239   1.130  0.4505  0.8582  0.1486
 2214TIP3   OH228132   1.119   3.036   0.936  0.2045 -0.2611  0.1691
 2214TIP3    H128133   1.048   3.096   0.915  1.0367  0.2002 -1.4606
 2214TIP3    H228134   1.136   3.052   1.029 -0.2409  1.3364  0.0064
 2215TIP3   OH228135   4.908   3.965   4.582  0.2043 -0.1183  0.1650
 2215TIP3    H128136   4.952   4.049   4.593 -1.0836  0.3842  2.0079
 2215TIP3    H228137   4.823   3.987   4.543 -1.3831 -0.0831  3.3322
 2216TIP3   OH228138   6.174   0.671   5.442  0.3027 -0.4025 -0.1659
 2216TIP3    H128139   6.247   0.663   5.504  0.4145  1.2097 -0.0522
 2216TIP3    H228140   6.144   0.581   5.429  0.2243 -0.8118  2.2959
 2217TIP3   OH228141   4.362   3.736   5.673  0.3493 -0.0702 -0.6159
 2217TIP3    H128142   4.313   3.710   5.595 -0.3805  0.6444 -0.4038
 2217TIP3    H228143   4.377   3.654   5.719 -2.4149 -0.1377  0.3243
 2218TIP3   OH228144   0.098   1.219   4.815  0.4654  0.4950 -0.3194
 2218TIP3    H128145   0.026   1.176   4.768  1.2605 -0.0263 -1.1170
 2218TIP3    H228146   0.171   1.157   4.807  0.3515 -0.1355  2.5991
 2219TIP3   OH228147   6.722   0.431   1.350  0.2538  0.9302  0.5943
 2219TIP3    H128148   6.719   0.336   1.356 -0.4018  0.8589 -0.4990
 2219TIP3    H228149   6.735   0.461   1.440 -0.1869 -0.1685  1.0420
 2220TIP3   OH228150   2.817   0.469  15.847  0.3641 -0.6152 -0.6244
 2220TIP3    H128151   2.860   0.554  15.839  0.0582 -0.5147 -1.2599
 2220TIP3    H228152   2.726   0.490  15.867  0.4074 -0.8086 -0.2137
 2221TIP3   OH228153   4.190   0.205  10.836  0.1529  0.0844 -1.3920
 2221TIP3    H128154   4.271   0.170  10.798 -0.4298 -1.5069 -1.2476
 2221TIP3    H228155   4.145   0.244  10.761 -0.6072 -2.3003 -2.2784
 2222TIP3   OH228156   0.427   4.225   2.657  0.1033  0.5516  0.1164
 2222TIP3    H128157   0.417   4.152   2.719  1.9076  0.6168  0.5449
 2222TIP3    H228158   0.518   4.220   2.630 -0.5210  0.7833 -2.2692
 2223TIP3   OH228159   1.158   6.772   4.117  0.2175  0.4222 -0.0415
 2223TIP3    H128160   1.254   6.766   4.113  0.3092 -0.8790  2.2357
 2223TIP3    H228161   1.140   6.849   4.171  0.1884 -1.1899  2.4488
 2224TIP3   OH228162   5.718   4.004  15.079  0.1453 -0.2120  0.0586
 2224TIP3    H128163   5.750   3.927  15.125  0.2027 -0.4993 -0.4470
 2224TIP3    H228164   5.634   4.023  15.119 -1.0564 -2.0309 -1.4031
 2225TIP3   OH228165   4.112   5.349  12.857  0.4755  0.0388  0.2474
 2225TIP3    H128166   4.114   5.437  12.820 -0.0544  0.4903  1.2768
 2225TIP3    H228167   4.171   5.353  12.932  0.3087 -0.4395  0.4075
 2226TIP3   OH228168   2.626   2.427  11.588 -0.1061 -0.0733 -0.3310
 2226TIP3    H128169   2.553   2.480  11.621  0.6078 -0.0564  1.3023
 2226TIP3    H228170   2.672   2.398  11.667  0.6635 -1.5006 -1.2791
 2227TIP3   OH228171   4.690   1.867  12.316 -0.1181 -0.8856  0.2050
 2227TIP3    H128172   4.665   1.814  12.391  0.5611 -1.5938 -0.0513
 2227TIP3    H228173   4.786   1.864  12.316 -0.1126 -1.4231 -1.0470
 2228TIP3   OH228174   0.442   1.944   0.159  0.4798 -0.2590 -0.3700
 2228TIP3    H128175   0.447   1.890   0.238  4.1303 -1.3437 -1.1235
 2228TIP3    H228176   0.486   2.026   0.183  2.2744 -0.8681 -1.3300
 2229TIP3   OH228177   3.036   6.612   2.651  0.0703  0.2297  0.1488
 2229TIP3    H128178   3.064   6.558   2.726 -1.8184 -1.1477 -0.0464
 2229TIP3    H228179   3.070   6.699   2.670 -0.0929 -0.1339  2.5070
 2230TIP3   OH228180   4.512   4.346   2.345 -0.2774  0.4255 -0.4251
 2230TIP3    H128181   4.549   4.260   2.323 -0.0775  0.5235 -0.4768
 2230TIP3    H228182   4.461   4.371   2.268  0.0431  0.5607 -0.5959
 2231TIP3   OH228183   0.396   6.144  12.400 -0.0774 -0.4608 -0.2883
 2231TIP3    H128184   0.489   6.128  12.389 -0.1281 -2.4056  1.5716
 2231TIP3    H228185   0.354   6.062  12.374 -1.0845 -0.3686  0.9493
 2232TIP3   OH228186   2.883   1.399   0.512 -0.1364  0.4661 -0.5271
 2232TIP3    H128187   2.796   1.414   0.474 -0.0205 -2.3457 -2.1997
 2232TIP3    H228188   2.865   1.363   0.599 -0.6051  1.0776 -0.3652
 2233TIP3   OH228189   0.340   3.319  13.202  0.8545 -0.1057  0.0043
 2233TIP3    H128190   0.338   3.237  13.250 -0.4858 -0.6662 -0.9409
 2233TIP3    H228191   0.256   3.323  13.156  0.9729  1.6860 -0.1608
 2234TIP3   OH228192   0.343   4.321  12.807  0.5410 -0.6831  0.1518
 2234TIP3    H128193   0.400   4.248  12.783  1.7328  0.6984 -1.4864
 2234TIP3    H228194   0.401   4.383  12.851 -0.1495 -0.1550  0.3303
 2235TIP3   OH228195   6.804   6.459  12.246 -0.0232  0.0138  0.1841
 2235TIP3    H128196   6.893   6.432  12.266  0.0513 -1.2580 -1.5690
 2235TIP3    H228197   6.756   6.447  12.328  1.2217 -0.0852  0.9303
 2236TIP3   OH228198   5.670   5.091   4.349 -0.6793  0.2324  0.1617
 2236TIP3    H128199   5.628   5.010   4.322  1.2785 -0.1892 -1.8724
 2236TIP3    H228200   5.625   5.159   4.298 -1.1936  0.2375  0.6110
 2237TIP3   OH228201   4.068   5.182   4.400 -0.4854  0.0691 -0.5655
 2237TIP3    H128202   4.119   5.110   4.362  1.4040  0.6885  0.6774
 2237TIP3    H228203   3.983   5.178   4.355  0.3840 -1.4818 -2.1648
 2238TIP3   OH228204   0.745   4.740  15.622 -0.1370  0.2905  0.4816
 2238TIP3    H128205   0.706   4.771  15.704 -1.5184 -0.8335  0.2851
 2238TIP3    H228206   0.677   4.688  15.581  1.4782 -1.6053  0.0156
 2239TIP3   OH228207   6.525   4.239   4.731 -0.5594  0.1616 -0.3912
 2239TIP3    H128208   6.608   4.254   4.776  0.7166 -0.5069 -2.3808
 2239TIP3    H228209   6.474   4.317   4.748  0.1881  0.2781  1.4845
 2240TIP3   OH228210   1.065   2.871  13.305 -0.4720  0.4316  0.4756
 2240TIP3    H128211   1.093   2.802  13.366 -4.1473 -0.3322  1.5455
 2240TIP3    H228212   1.042   2.824  13.225 -0.8867  0.6858  0.4427
 2241TIP3   OH228213   0.050   0.782   5.413 -0.6753 -0.0420  0.6278
 2241TIP3    H128214   0.015   0.845   5.477 -3.6883 -0.1202 -0.7579
 2241TIP3    H228215   0.018   0.697   5.443  3.5257 -1.2011  2.5929
 2242TIP3   OH228216   0.315   0.978  13.064  0.0192  0.4822  0.3819
 2242TIP3    H128217   0.270   1.039  13.122  1.9126  1.8884  0.4597
 2242TIP3    H228218   0.319   1.023  12.980  1.5573  0.5599  0.4744
 2243TIP3   OH228219   0.049   1.835   4.499  0.0091  0.3173  0.6174
 2243TIP3    H128220   0.130   1.803   4.540  1.1924  2.4650  0.1152
 2243TIP3    H228221   0.064   1.822   4.405  1.3470  3.7296  0.2035
 2244TIP3   OH228222   5.622   3.497  14.427  0.4141 -0.3123 -0.3242
 2244TIP3    H128223   5.685   3.569  14.418  2.4841 -1.9193  0.4261
 2244TIP3    H228224   5.553   3.532  14.483  1.1676  1.2223 -0.3050
 2245TIP3   OH228225   0.764   0.935  15.996 -0.3359  0.3897 -0.2950
 2245TIP3    H128226   0.804   0.915  16.080  1.8599 -0.7434 -1.5465
 2245TIP3    H228227   0.722   0.854  15.968 -0.2776  0.4896 -0.6917
 2246TIP3   OH228228   5.680   0.274  14.962  0.2183 -0.4191  0.9330
 2246TIP3    H128229   5.642   0.350  15.007 -1.0195 -0.5907  0.2114
 2246TIP3    H228230   5.749   0.244  15.021  0.3685  0.9371  1.4875
 2247TIP3   OH228231   0.098   4.980  16.396  0.1896 -0.3460 -0.4784
 2247TIP3    H128232   0.182   4.942  16.371  0.6995 -0.1411  0.8351
 2247TIP3    H228233   0.116   5.024  16.480 -1.0477  0.3458 -0.5551
 2248TIP3   OH228234   2.081   4.781  10.734  0.8059  0.0371 -0.5288
 2248TIP3    H128235   2.056   4.861  10.688 -0.5853  0.9609  1.6455
 2248TIP3    H228236   2.010   4.719  10.715  0.8541  0.0123 -0.6244
 2249TIP3   OH228237   2.435   0.257  13.634 -0.1340  0.8573 -0.0466
 2249TIP3    H128238   2.506   0.283  13.692 -0.3007  0.7835  0.1905
 2249TIP3    H228239   2.479   0.225  13.555  0.1440 -0.2473  0.5271
 2250TIP3   OH228240   6.664   3.252   4.571 -0.2486 -0.0199 -0.1244
 2250TIP3    H128241   6.668   3.316   4.500  2.2512 -0.7673 -0.7530
 2250TIP3    H228242   6.634   3.172   4.530 -0.1031 -0.1026 -0.0719
 2251TIP3   OH228243   5.014   3.599  13.827 -0.5441 -0.0881 -0.3139
 2251TIP3    H128244   5.096   3.550  13.817 -0.7758 -0.3746 -0.8261
 2251TIP3    H228245   4.991   3.626  13.738 -2.2287 -1.9896 -0.5231
 2252TIP3   OH228246   0.963   4.696  11.553 -0.0121 -0.2273 -0.3967
 2252TIP3    H128247   0.887   4.743  11.588 -2.6135 -3.9350 -0.5478
 2252TIP3    H228248   0.954   4.704  11.458  1.8481  2.1243 -0.4680
 2253TIP3   OH228249   5.573   4.433  15.555 -1.0179  0.3304 -0.4779
 2253TIP3    H128250   5.561   4.355  15.608 -0.6399 -0.4533 -1.5016
 2253TIP3    H228251   5.655   4.418  15.508 -1.2604  1.0570 -1.1680
 2254TIP3   OH228252   0.113   3.110   3.043  0.0200  0.3962  0.2496
 2254TIP3    H128253   0.064   3.084   2.965 -0.2044 -0.4579  0.6637
 2254TIP3    H228254   0.205   3.098   3.019  0.1117  2.6561 -0.7658
 2255TIP3   OH228255   1.691   3.133   5.194 -0.2079  0.4261 -0.3362
 2255TIP3    H128256   1.735   3.061   5.150 -0.1231  0.8160 -0.9140
 2255TIP3    H228257   1.757   3.169   5.253 -0.7839 -1.0353  1.2549
 2256TIP3   OH228258   5.980   5.163  16.933  0.1148  0.3991  0.3232
 2256TIP3    H128259   5.952   5.131  16.848  1.4636  0.3612 -0.1396
 2256TIP3    H228260   5.907   5.144  16.992 -0.2693 -0.8942 -0.5296
 2257TIP3   OH228261   2.689   6.476   5.262  0.4148 -0.2181  0.4067
 2257TIP3    H128262   2.631   6.552   5.274 -0.0176 -0.6110  0.8370
 2257TIP3    H228263   2.761   6.510   5.209  0.0469  0.4075  0.2898
 2258TIP3   OH228264   0.484   0.976  16.771 -0.1578 -0.0307  0.0705
 2258TIP3    H128265   0.550   0.908  16.783  0.0697 -0.2079 -1.8807
 2258TIP3    H228266   0.524   1.054  16.810  0.9870 -0.2628 -0.5780
 2259TIP3   OH228267   3.455   4.323  15.187  0.1187  0.3815  0.1102
 2259TIP3    H128268   3.371   4.353  15.223  0.9198  1.4171  1.2221
 2259TIP3    H228269   3.501   4.404  15.163  1.7826  0.0569  1.8622
 2260TIP3   OH228270   0.417   6.693   1.878  0.1870  0.3538  0.1837
 2260TIP3    H128271   0.445   6.752   1.808  2.0112  1.3202  1.6544
 2260TIP3    H228272   0.459   6.610   1.857 -1.3117 -0.1146 -1.1717
 2261TIP3   OH228273   2.327   2.507  11.341  0.5438 -0.0029  0.0646
 2261TIP3    H128274   2.233   2.524  11.331  0.7759  1.4812  0.1344
 2261TIP3    H228275   2.345   2.434  11.282 -0.9955 -1.6403  1.4914
 2262TIP3   OH228276   1.393   4.214   3.035 -0.7464  0.3139 -0.1473
 2262TIP3    H128277   1.387   4.221   3.130  2.2492 -0.2404  0.1633
 2262TIP3    H228278   1.351   4.130   3.015 -1.0380  0.2408  0.7210
 2263TIP3   OH228279   6.691   2.234   1.649  0.3845 -0.2737  0.2021
 2263TIP3    H128280   6.686   2.328   1.664  0.5744 -0.5497  2.3217
 2263TIP3    H228281   6.627   2.217   1.580 -0.4924  1.2572  0.5883
 2264TIP3   OH228282   0.331   0.661   0.972 -0.1885 -0.4183 -0.1952
 2264TIP3    H128283   0.398   0.649   0.905 -1.7030  0.6252 -1.9979
 2264TIP3    H228284   0.248   0.655   0.924 -1.3177  0.7926  1.4902
 2265TIP3   OH228285   4.557   4.003  14.026  0.0550 -0.0273  0.2408
 2265TIP3    H128286   4.509   4.040  13.952  0.8474  3.3790  1.2327
 2265TIP3    H228287   4.494   4.007  14.099  0.5956  0.7114  0.6726
 2266TIP3   OH228288   0.725   4.570   3.727 -0.0261 -0.0289 -0.1311
 2266TIP3    H128289   0.685   4.650   3.760 -0.7105 -0.1410 -0.6603
 2266TIP3    H228290   0.661   4.501   3.745 -0.0471 -0.2296 -0.8944
 2267TIP3   OH228291   3.393   5.485  16.654  0.3508 -0.5156  0.0986
 2267TIP3    H128292   3.353   5.570  16.641 -0.4134 -0.8703  0.1205
 2267TIP3    H228293   3.331   5.437  16.709  0.0521 -1.6095 -1.1491
 2268TIP3   OH228294   1.763   1.901  11.643 -0.1951  0.3429  0.0089
 2268TIP3    H128295   1.714   1.847  11.580 -1.1396  0.0387  0.9780
 2268TIP3    H228296   1.847   1.916  11.600 -0.2464 -1.1185 -0.6953
 2269TIP3   OH228297   6.062   3.537   1.873 -0.6153  0.2195  0.0028
 2269TIP3    H128298   6.086   3.535   1.780  1.0438  0.1795  0.4034
 2269TIP3    H228299   5.996   3.468   1.881  0.8038 -1.3285 -0.7750
 2270TIP3   OH228300   3.553   3.698  16.727  0.3598 -0.2894  0.4691
 2270TIP3    H128301   3.492   3.669  16.658  0.4075  0.8647 -0.0895
 2270TIP3    H228302   3.542   3.793  16.730 -0.3472 -0.3866  2.7565
 2271TIP3   OH228303   0.910   5.466   5.002  0.2900 -0.0884 -0.2759
 2271TIP3    H128304   0.891   5.468   5.096 -0.0764 -1.4553 -0.2992
 2271TIP3    H228305   0.986   5.409   4.994 -0.1175 -0.5602 -0.8625
 2272TIP3   OH228306   1.420   0.737   4.341 -0.4209 -0.2549 -0.2849
 2272TIP3    H128307   1.471   0.670   4.296  0.7619  1.0671 -1.0172
 2272TIP3    H228308   1.392   0.696   4.423 -1.2888 -2.2169 -1.4945
 2273TIP3   OH228309   4.788   1.979   5.975  0.1400 -0.0955  0.0449
 2273TIP3    H128310   4.808   1.918   6.047 -0.7097 -0.1507  0.2517
 2273TIP3    H228311   4.846   1.952   5.904 -0.2588 -1.2055  0.1106
 2274TIP3   OH228312   6.804   5.448  10.631  0.3721  0.1523  0.0129
 2274TIP3    H128313   6.849   5.374  10.590 -0.3036  0.2829 -1.0224
 2274TIP3    H228314   6.722   5.411  10.663  0.3848  0.2861  0.1963
 2275TIP3   OH228315   6.117   5.327  12.045  0.1146  0.0030 -0.6755
 2275TIP3    H128316   6.144   5.395  12.106  2.1618 -2.1837  1.0390
 2275TIP3    H228317   6.190   5.319  11.984 -1.8051  2.0195 -3.5470
 2276TIP3   OH228318   3.373   6.271  13.540 -0.2852 -0.0446  0.1725
 2276TIP3    H128319   3.287   6.246  13.574 -0.9980  2.3769  0.3175
 2276TIP3    H228320   3.355   6.343  13.479  1.5310 -0.4054 -0.8914
 2277TIP3   OH228321   2.816   5.431   2.110  0.1353  0.2807  0.4448
 2277TIP3    H128322   2.733   5.400   2.074  0.5051 -0.3734  0.1276
 2277TIP3    H228323   2.840   5.505   2.055  0.3742 -0.3092 -0.2605
 2278TIP3   OH228324   2.382   5.647   1.561  0.2074 -0.0672  0.2904
 2278TIP3    H128325   2.439   5.723   1.554  0.5063 -0.4180 -1.3960
 2278TIP3    H228326   2.331   5.647   1.480  1.1600 -2.3860 -0.3977
 2279TIP3   OH228327   5.166   2.432   0.191 -0.2071  0.1051 -0.2259
 2279TIP3    H128328   5.182   2.522   0.164 -0.2230 -0.0048 -0.6009
 2279TIP3    H228329   5.124   2.391   0.116  0.3318 -0.3760 -0.2687
 2280TIP3   OH228330   4.760   6.754   1.399 -0.3792 -0.0861 -0.1458
 2280TIP3    H128331   4.826   6.808   1.356  1.0069 -1.0708  0.6461
 2280TIP3    H228332   4.790   6.664   1.386 -0.3123 -0.4724  2.1394
 2281TIP3   OH228333   0.296   0.183  12.592 -0.1896 -0.0020  0.3159
 2281TIP3    H128334   0.245   0.221  12.521 -0.3403 -0.9039 -0.0726
 2281TIP3    H228335   0.384   0.220  12.580 -0.3750  0.3672  0.0691
 2282TIP3   OH228336   1.371   5.646   2.850  0.3826 -0.0280 -0.3364
 2282TIP3    H128337   1.301   5.596   2.891  0.4044 -0.2395 -0.5513
 2282TIP3    H228338   1.369   5.731   2.893  0.8534 -0.4694  0.5811
 2283TIP3   OH228339   3.206   4.434  15.266 -0.5576  0.3336  0.3532
 2283TIP3    H128340   3.152   4.444  15.188  1.8239  0.6782 -1.3390
 2283TIP3    H228341   3.202   4.519  15.310 -0.5280  0.6934 -0.3385
 2284TIP3   OH228342   5.899   2.395   2.895  0.1558 -0.4565 -0.3769
 2284TIP3    H128343   5.925   2.308   2.866 -0.1799 -0.3916 -0.8966
 2284TIP3    H228344   5.953   2.454   2.841  1.0483 -0.3418  0.6132
 2285TIP3   OH228345   4.119   6.690   2.915  0.4728 -1.2278 -0.1906
 2285TIP3    H128346   4.147   6.775   2.948 -0.0704 -1.0292 -0.2238
 2285TIP3    H228347   4.038   6.709   2.867 -1.4855 -2.1595  2.4866
 2286TIP3   OH228348   2.277   4.000   6.280 -0.3605  0.5955  0.2234
 2286TIP3    H128349   2.250   3.922   6.329 -0.9746  0.0686 -0.9166
 2286TIP3    H228350   2.362   3.976   6.242 -0.2236  0.7421  0.4329
 2287TIP3   OH228351   4.396   1.126   4.428  0.5402 -0.3384 -0.6962
 2287TIP3    H128352   4.391   1.198   4.490  0.1772 -1.1131  0.1896
 2287TIP3    H228353   4.454   1.062   4.469  0.3815 -0.8171 -1.2011
 2288TIP3   OH228354   6.351   0.750  16.522  0.2044  0.5847 -0.2172
 2288TIP3    H128355   6.283   0.711  16.576  0.4086 -0.0005 -0.3828
 2288TIP3    H228356   6.421   0.773  16.584  1.2500 -1.7998 -0.4272
 2289TIP3   OH228357   4.886   6.610   4.774  0.5453 -0.1996  0.2387
 2289TIP3    H128358   4.972   6.601   4.815  0.4224 -0.3073  0.4722
 2289TIP3    H228359   4.899   6.676   4.706  0.6229  0.3643  0.7944
 2290TIP3   OH228360   5.048   4.575   1.999 -0.4040  0.4547 -0.5321
 2290TIP3    H128361   4.983   4.568   2.069 -1.5435 -2.2976 -1.7239
 2290TIP3    H228362   5.131   4.588   2.045 -0.7102 -3.7342  1.6419
 2291TIP3   OH228363   0.621   4.758  14.618 -0.3520 -0.0070 -0.3674
 2291TIP3    H128364   0.685   4.811  14.666 -0.4450 -1.0885  1.0350
 2291TIP3    H228365   0.674   4.698  14.567 -0.1865 -0.9355  0.8325
 2292TIP3   OH228366   5.509   1.930   1.239 -0.0135  0.0219 -0.0770
 2292TIP3    H128367   5.577   1.997   1.238 -0.9186  0.9901  0.8480
 2292TIP3    H228368   5.508   1.895   1.150  0.7358  0.9672 -0.4740
 2293TIP3   OH228369   0.329   2.074  14.742 -0.4628  0.5269  0.2705
 2293TIP3    H128370   0.353   2.018  14.816 -1.1405 -1.3779 -0.8825
 2293TIP3    H228371   0.255   2.126  14.774 -0.6536 -0.1637  0.9842
 2294TIP3   OH228372   2.708   2.503   4.253  0.3186  0.0355 -0.2011
 2294TIP3    H128373   2.757   2.584   4.241  1.2411 -0.4708  0.0421
 2294TIP3    H228374   2.769   2.445   4.300  0.4589 -1.5341 -2.1880
 2295TIP3   OH228375   0.629   5.188  10.682  0.0241 -0.1702 -0.2821
 2295TIP3    H128376   0.549   5.221  10.640 -0.3117 -1.1864 -0.4970
 2295TIP3    H228377   0.679   5.150  10.609 -0.3062 -1.4609  0.1417
 2296TIP3   OH228378   3.740   3.744   0.591 -0.1006  0.3675  0.5403
 2296TIP3    H128379   3.822   3.696   0.605 -0.4118  0.1901  1.9551
 2296TIP3    H228380   3.732   3.750   0.496  0.7477 -1.0191  0.3452
 2297TIP3   OH228381   3.183   5.450   0.634  0.1881  0.5200  0.3343
 2297TIP3    H128382   3.164   5.384   0.567  1.6721 -0.1222  0.5009
 2297TIP3    H228383   3.113   5.514   0.625 -1.0574 -0.8518 -0.1208
 2298TIP3   OH228384   4.328   2.620   4.801  0.1526 -0.1969 -0.0297
 2298TIP3    H128385   4.343   2.713   4.817  0.0674 -0.3837  1.1968
 2298TIP3    H228386   4.315   2.614   4.706  1.2676  0.8805 -0.2745
 2299TIP3   OH228387   0.505   0.389   2.869  0.2137 -0.3259 -0.7092
 2299TIP3    H128388   0.519   0.468   2.920  1.9013 -0.0389 -1.5676
 2299TIP3    H228389   0.425   0.405   2.820 -0.2019  0.2772  0.1488
 2300TIP3   OH228390   6.528   3.143   0.411  0.4830 -0.7148  0.2109
 2300TIP3    H128391   6.519   3.062   0.460  0.9449 -1.6249 -1.1694
 2300TIP3    H228392   6.486   3.126   0.327 -0.5815  0.9212  0.3584
 2301TIP3   OH228393   2.000   0.855  16.691 -0.4952 -0.5622 -0.3107
 2301TIP3    H128394   2.037   0.909  16.620 -0.8117 -1.1569 -0.9334
 2301TIP3    H228395   2.025   0.902  16.771 -1.7396  1.1647 -0.8557
 2302TIP3   OH228396   3.505   5.595   1.591  0.4757 -0.2774 -0.3417
 2302TIP3    H128397   3.580   5.568   1.537  0.1899 -1.1169 -0.3382
 2302TIP3    H228398   3.431   5.547   1.554  0.2161 -0.6058  0.5742
 2303TIP3   OH228399   4.503   4.784   5.222  0.5538 -0.3046 -0.3480
 2303TIP3    H128400   4.554   4.860   5.192 -1.4640  1.2989  0.0376
 2303TIP3    H228401   4.500   4.794   5.317  0.2218 -0.8473 -0.2989
 2304TIP3   OH228402   2.960   1.610  12.721 -0.0878 -0.6128  0.0641
 2304TIP3    H128403   3.018   1.625  12.796  0.0587 -0.7775 -0.0146
 2304TIP3    H228404   2.912   1.692  12.711  0.5315 -0.2781 -0.2225
 2305TIP3   OH228405   2.502   5.034  11.219  0.1204 -0.5518  0.2370
 2305TIP3    H128406   2.537   4.979  11.289 -1.1589 -1.4537  0.1966
 2305TIP3    H228407   2.453   5.102  11.265  0.4456 -0.3101  0.2367
 2306TIP3   OH228408   1.099   3.269   4.500 -0.0191 -0.5796  0.1723
 2306TIP3    H128409   1.074   3.195   4.445 -1.4472 -1.0576  1.3936
 2306TIP3    H228410   1.040   3.339   4.473  1.4115  0.2141 -1.0690
 2307TIP3   OH228411   1.077   0.313   3.628 -0.2062 -0.1704  0.1477
 2307TIP3    H128412   1.076   0.218   3.645 -0.7615 -0.5314 -1.6360
 2307TIP3    H228413   1.112   0.320   3.539 -1.2962  1.2055 -0.1980
 2308TIP3   OH228414   4.753   2.859  15.571  0.0784 -0.5447 -0.0921
 2308TIP3    H128415   4.680   2.802  15.544  0.4601 -1.4781  0.7661
 2308TIP3    H228416   4.713   2.945  15.584 -0.7333 -0.8742 -0.3195
 2309TIP3   OH228417   2.412   5.244   3.515 -0.2423  0.0342 -0.3038
 2309TIP3    H128418   2.390   5.332   3.545  0.6068  0.8853 -2.0399
 2309TIP3    H228419   2.463   5.206   3.587  3.4019  2.6823 -1.2007
 2310TIP3   OH228420   1.934   1.510  16.916 -0.0684 -0.1001  0.4195
 2310TIP3    H128421   1.872   1.437  16.921  0.5322 -0.5494  3.2272
 2310TIP3    H228422   1.960   1.514  16.824 -2.5871 -1.2948 -0.4372
 2311TIP3   OH228423   5.557   4.634   3.698 -0.4629  0.6290  0.4477
 2311TIP3    H128424   5.491   4.569   3.723 -0.0776 -0.1941 -0.5939
 2311TIP3    H228425   5.638   4.602   3.738 -0.7355  1.9370  2.2046
 2312TIP3   OH228426   4.797   0.114  12.284  0.9222 -0.0613  0.1035
 2312TIP3    H128427   4.869   0.113  12.220  1.2133  2.6115  0.2580
 2312TIP3    H228428   4.763   0.203  12.279  0.0517 -0.1767  2.7014
 2313TIP3   OH228429   4.734   5.631  15.406 -0.1593 -0.1483  0.1247
 2313TIP3    H128430   4.766   5.720  15.422  0.3112 -0.3005  0.0619
 2313TIP3    H228431   4.690   5.607  15.488  0.6313 -0.2390  0.5390
 2314TIP3   OH228432   1.329   3.408   1.916  0.2550 -0.0325 -0.1305
 2314TIP3    H128433   1.246   3.392   1.871  0.6604 -0.3775 -0.7773
 2314TIP3    H228434   1.318   3.493   1.958 -1.5277 -1.3638  2.3498
 2315TIP3   OH228435   4.933   1.115  14.856 -0.1998 -0.2604 -0.7028
 2315TIP3    H128436   4.990   1.151  14.924 -0.5252 -0.4499 -0.3271
 2315TIP3    H228437   4.935   1.180  14.786  1.0767 -0.6060 -1.0183
 2316TIP3   OH228438   3.567   1.737  15.772 -0.0111  0.0370  0.0163
 2316TIP3    H128439   3.591   1.805  15.835  0.4779 -1.2099  1.2418
 2316TIP3    H228440   3.472   1.729  15.779  0.1148 -0.7377  1.3659
 2317TIP3   OH228441   0.041   3.036  17.129  0.1976  0.0144  0.0827
 2317TIP3    H128442   0.063   3.078  17.212  2.1468 -0.9379  0.1081
 2317TIP3    H228443  -0.051   3.012  17.137 -0.4254  2.4241  0.8347
 2318TIP3   OH228444   6.547   4.406   6.297 -0.3924  0.7368 -0.3179
 2318TIP3    H128445   6.475   4.367   6.248  0.0466 -0.7752  0.1838
 2318TIP3    H228446   6.614   4.425   6.230  0.0916 -1.0533 -0.3989
 2319TIP3   OH228447   1.279   4.869   4.468  0.1128 -0.6312  0.7215
 2319TIP3    H128448   1.199   4.890   4.421  0.3789 -0.3308  0.3925
 2319TIP3    H228449   1.348   4.875   4.402  0.5949  0.5344  1.2918
 2320TIP3   OH228450   6.418   3.885   3.137 -0.0167  0.1500 -0.0319
 2320TIP3    H128451   6.476   3.911   3.066  0.5340 -0.1044  0.3180
 2320TIP3    H228452   6.392   3.795   3.116 -1.7587  0.8589 -1.1362
 2321TIP3   OH228453   5.259   6.792   2.231  1.0074  0.2268  0.8393
 2321TIP3    H128454   5.257   6.719   2.169 -2.5939  0.1278  0.8493
 2321TIP3    H228455   5.275   6.869   2.176 -0.9075  0.0052 -0.0969
 2322TIP3   OH228456   1.275   4.481   1.858  0.0458 -0.6022  0.2457
 2322TIP3    H128457   1.351   4.468   1.801 -0.0950  1.1985 -0.4009
 2322TIP3    H228458   1.204   4.436   1.813 -0.0059  0.5921 -0.9161
 2323TIP3   OH228459   3.461   6.506  11.488  0.4359 -0.0577  0.5178
 2323TIP3    H128460   3.404   6.498  11.412 -0.4263  1.3122  0.9718
 2323TIP3    H228461   3.488   6.416  11.508  0.4728 -0.4563 -1.2267
 2324TIP3   OH228462   4.188   5.260  16.524 -0.0495 -0.3994  0.9232
 2324TIP3    H128463   4.112   5.243  16.579 -1.5505 -2.2108 -1.5128
 2324TIP3    H228464   4.170   5.343  16.481  0.2947  0.1406  1.8130
 2325TIP3   OH228465   0.437   5.123   5.269  0.0240  0.0068 -0.0443
 2325TIP3    H128466   0.475   5.038   5.251  1.1279  0.0959  1.5815
 2325TIP3    H228467   0.343   5.109   5.269  0.0311 -0.5040 -2.8813
 2326TIP3   OH228468   3.837   4.395  15.545  0.2780 -0.1004 -0.6287
 2326TIP3    H128469   3.794   4.469  15.587  1.4748 -0.6292  1.6813
 2326TIP3    H228470   3.928   4.423  15.532  0.5337 -0.8419 -0.5341
 2327TIP3   OH228471   0.452   6.753  15.143  0.0155  0.7806 -0.4291
 2327TIP3    H128472   0.540   6.745  15.181 -0.7345 -0.3039  1.2308
 2327TIP3    H228473   0.395   6.767  15.219 -1.3146  0.9688 -1.4259
 2328TIP3   OH228474   6.026   1.825   6.149  0.4945 -0.1447 -0.2586
 2328TIP3    H128475   6.058   1.754   6.205  1.9962 -0.9356 -2.0125
 2328TIP3    H228476   5.934   1.802   6.132 -0.0752  0.2250  1.9257
 2329TIP3   OH228477   3.830   6.031   3.658 -0.1881 -0.0564 -0.1180
 2329TIP3    H128478   3.803   6.100   3.598  0.9057  1.0066  0.5610
 2329TIP3    H228479   3.872   5.965   3.602  3.5429  2.2556 -0.3788
 2330TIP3   OH228480   5.657   6.290   5.280  0.2072 -0.2375  0.8178
 2330TIP3    H128481   5.657   6.381   5.250 -0.3283 -0.4786  0.0645
 2330TIP3    H228482   5.565   6.271   5.300  0.3512 -0.5441  1.2067
 2331TIP3   OH228483   5.897   4.806  16.665  0.1590 -0.2466  0.0525
 2331TIP3    H128484   5.956   4.751  16.718 -0.0045  0.7740  1.3367
 2331TIP3    H228485   5.940   4.891  16.663  0.4389 -0.3903 -1.9793
 2332TIP3   OH228486   3.803   6.335  16.184 -0.6798 -0.4191  0.0013
 2332TIP3    H128487   3.786   6.428  16.196 -1.9877 -0.7961  1.4798
 2332TIP3    H228488   3.897   6.325  16.202 -0.7498  0.4720  0.9360
 2333TIP3   OH228489   6.213   3.201  15.539 -0.0744 -0.3412  0.1459
 2333TIP3    H128490   6.239   3.280  15.585 -2.7687  1.4430 -1.1488
 2333TIP3    H228491   6.291   3.175  15.490  1.4163  0.3729  2.0190
 2334TIP3   OH228492   3.625   6.469  13.617  0.6680  0.0054 -0.3741
 2334TIP3    H128493   3.568   6.540  13.646 -0.6515 -0.7619 -1.0109
 2334TIP3    H228494   3.618   6.402  13.684 -0.4951 -0.7679 -1.2354
 2335TIP3   OH228495   0.934   2.286  16.774 -0.0522  0.7021 -0.1322
 2335TIP3    H128496   1.005   2.229  16.805 -0.7016 -0.2348 -0.3101
 2335TIP3    H228497   0.906   2.333  16.852  0.3639  0.6382  0.0606
 2336TIP3   OH228498   4.017   4.168   0.618  0.7763  0.3509  0.1918
 2336TIP3    H128499   4.063   4.251   0.602  1.6240 -0.2700 -0.6777
 2336TIP3    H228500   4.007   4.129   0.532 -1.8060  0.6424  0.2771
 2337TIP3   OH228501   0.154   0.057   0.703  0.2265  0.2915  0.4202
 2337TIP3    H128502   0.081   0.016   0.749 -0.0423 -1.5390 -1.4801
 2337TIP3    H228503   0.204  -0.016   0.668  0.0746  1.5232 -2.6330
 2338TIP3   OH228504   0.364   4.744  14.393 -0.9589 -0.4325  0.2797
 2338TIP3    H128505   0.318   4.666  14.423 -0.5666 -0.7555  0.0484
 2338TIP3    H228506   0.441   4.749  14.449 -1.2474  0.0877  0.6423
 2339TIP3   OH228507   2.336   2.314  13.469 -0.3317 -0.8664 -0.9112
 2339TIP3    H128508   2.424   2.339  13.443  0.1278 -1.8654 -0.3777
 2339TIP3    H228509   2.345   2.289  13.562 -1.9240  2.7388  0.3959
 2340TIP3   OH228510   6.345   5.870  11.428 -0.6448 -0.6309  0.2563
 2340TIP3    H128511   6.256   5.836  11.418 -1.0205  0.4926 -0.5029
 2340TIP3    H228512   6.357   5.926  11.351  1.3333 -2.0507 -0.5460
 2341TIP3   OH228513   3.590   1.000  15.588  0.0271  0.5905 -0.1220
 2341TIP3    H128514   3.522   0.938  15.564 -1.7808  1.9329  1.3015
 2341TIP3    H228515   3.625   0.967  15.671  1.3453 -0.2264 -0.9654
 2342TIP3   OH228516   5.887   4.914   4.482  0.0547  0.0715  0.3397
 2342TIP3    H128517   5.797   4.899   4.451 -0.9279  1.3657  2.3594
 2342TIP3    H228518   5.930   4.960   4.409 -2.1712  3.0653  0.7312
 2343TIP3   OH228519   2.207   5.470   3.558  0.0185 -0.2338 -0.0272
 2343TIP3    H128520   2.255   5.544   3.520  0.5331 -0.6375 -0.1643
 2343TIP3    H228521   2.145   5.445   3.489 -0.7092  0.5699  0.3168
 2344TIP3   OH228522   5.330   0.420  16.223  0.1243 -0.2296  0.0195
 2344TIP3    H128523   5.399   0.425  16.288  0.0223 -1.8522  0.2971
 2344TIP3    H228524   5.253   0.455  16.266  0.4751  0.4119  0.1338
 2345TIP3   OH228525   5.219   4.080   0.279  0.2518 -0.3416 -0.0245
 2345TIP3    H128526   5.313   4.094   0.263  0.3260  0.4325  0.9732
 2345TIP3    H228527   5.197   4.142   0.349 -1.0882 -0.2754 -0.4723
 2346TIP3   OH228528   6.623   6.423   3.221 -0.6687 -0.0851  0.1132
 2346TIP3    H128529   6.558   6.382   3.278  1.0948 -0.6320  1.8477
 2346TIP3    H228530   6.684   6.352   3.199  0.4779  0.8279  0.2237
 2347TIP3   OH228531   4.871   2.503  11.807 -0.7956 -0.0747 -0.2161
 2347TIP3    H128532   4.884   2.560  11.883  1.7041 -0.0181 -0.5924
 2347TIP3    H228533   4.885   2.559  11.731 -2.4209 -0.3236 -0.7362
 2348TIP3   OH228534   0.202   5.007  14.995  0.3716 -0.4076  0.0044
 2348TIP3    H128535   0.223   5.087  15.044  2.5991 -0.9593  0.0902
 2348TIP3    H228536   0.281   4.989  14.944 -0.4526 -2.0095 -0.7839
 2349TIP3   OH228537   2.908   1.352  14.586  0.0830 -0.1326  0.6310
 2349TIP3    H128538   3.002   1.366  14.593 -0.1954  1.2370  2.4348
 2349TIP3    H228539   2.899   1.272  14.534  2.2292 -0.4330  0.6460
 2350TIP3   OH228540   4.768   4.478  13.740 -0.2048 -0.1259  0.1187
 2350TIP3    H128541   4.813   4.434  13.812  0.1715 -0.8226 -0.5381
 2350TIP3    H228542   4.708   4.539  13.783 -1.2419 -1.7572  1.0668
 2351TIP3   OH228543   1.447   0.737  14.456 -0.5048  0.2019  0.4014
 2351TIP3    H128544   1.530   0.696  14.479 -0.1143  0.6352 -0.1948
 2351TIP3    H228545   1.450   0.823  14.497 -0.1849  0.6330 -0.4918
 2352TIP3   OH228546   4.636   2.302   4.315 -0.3606 -0.0091  0.7388
 2352TIP3    H128547   4.657   2.227   4.260 -1.0078  0.9953 -0.9827
 2352TIP3    H228548   4.556   2.277   4.362  0.4595 -1.0568  1.6009
 2353TIP3   OH228549   0.639   6.474   3.084  0.7871 -0.3866 -0.3641
 2353TIP3    H128550   0.715   6.478   3.143  0.3837 -1.5253  0.2517
 2353TIP3    H228551   0.569   6.437   3.137  0.1095 -0.4159 -1.2569
 2354TIP3   OH228552   6.536   5.245  11.098  0.4627 -0.1982 -0.2646
 2354TIP3    H128553   6.494   5.225  11.014 -0.4506  1.0491 -0.1350
 2354TIP3    H228554   6.466   5.235  11.162  0.7524  0.4053  0.1496
 2355TIP3   OH228555   0.588   5.810  13.057 -0.2720 -0.3962 -0.1431
 2355TIP3    H128556   0.682   5.792  13.064  0.3012  2.2420  0.0786
 2355TIP3    H228557   0.547   5.748  13.117  1.6273  0.2727  1.9943
 2356TIP3   OH228558   4.093   3.786  16.204 -0.1474  0.0326 -0.0851
 2356TIP3    H128559   4.141   3.711  16.170 -0.1628 -0.2715  0.5460
 2356TIP3    H228560   4.113   3.787  16.298  0.5264  1.3034 -0.2045
 2357TIP3   OH228561   3.976   4.620   2.630  0.3095 -0.1726  0.0201
 2357TIP3    H128562   3.957   4.714   2.621 -2.1653 -0.6002  0.0847
 2357TIP3    H228563   3.890   4.579   2.638  1.4107 -2.2372  2.4726
 2358TIP3   OH228564   3.118   6.022   2.747 -0.0088 -0.0486  0.6679
 2358TIP3    H128565   3.082   5.988   2.665  0.4914 -1.7137  1.1136
 2358TIP3    H228566   3.193   5.966   2.766  0.0701  0.5050  2.1215
 2359TIP3   OH228567   4.245   4.411  16.823 -0.0617 -0.2210 -0.0068
 2359TIP3    H128568   4.173   4.347  16.821  0.9409 -1.4715  1.3278
 2359TIP3    H228569   4.240   4.449  16.911 -1.9168  3.1886 -1.3951
 2360TIP3   OH228570   2.037   4.689   3.334  0.2452 -0.2912  0.5564
 2360TIP3    H128571   2.091   4.658   3.261 -0.5920 -1.2964  0.3330
 2360TIP3    H228572   1.980   4.614   3.354  1.2233 -0.4580  3.0087
 2361TIP3   OH228573   4.912   4.424  13.968  0.3596 -0.3227  0.1080
 2361TIP3    H128574   4.845   4.485  14.000  0.6636 -0.1671  0.4608
 2361TIP3    H228575   4.991   4.449  14.016  1.2535  0.9611 -1.8648
 2362TIP3   OH228576   4.342   0.039  12.326 -0.4211  0.2447  0.1023
 2362TIP3    H128577   4.352   0.088  12.407 -0.0803 -0.3065  0.3990
 2362TIP3    H228578   4.425  -0.006  12.314 -0.5127  0.2173 -0.4866
 2363TIP3   OH228579   0.434   5.946  13.547  0.1352 -0.0334  0.3336
 2363TIP3    H128580   0.461   6.034  13.573 -2.5837  0.6386  1.1935
 2363TIP3    H228581   0.459   5.940  13.455 -1.1380  2.3584 -0.2560
 2364TIP3   OH228582   1.801   1.506  14.720  0.2667 -0.1587 -0.0668
 2364TIP3    H128583   1.717   1.530  14.761  0.3378  1.2857 -0.7072
 2364TIP3    H228584   1.867   1.540  14.781  0.3840  0.0355 -0.3045
 2365TIP3   OH228585   3.012   1.035   3.301 -0.0107  0.2911 -0.3954
 2365TIP3    H128586   3.014   1.065   3.210  0.5604 -2.0179 -1.1977
 2365TIP3    H228587   2.968   1.106   3.348 -0.8157  1.3121 -2.5491
 2366TIP3   OH228588   5.079   6.696  11.215 -0.1095 -0.2894  0.0032
 2366TIP3    H128589   5.058   6.768  11.155  0.1259  0.0899  0.3706
 2366TIP3    H228590   5.132   6.636  11.162  0.0305  0.0035 -0.1955
 2367TIP3   OH228591   1.356   6.134   2.746 -0.0074 -0.3927 -0.3132
 2367TIP3    H128592   1.366   6.229   2.738 -0.6678 -0.3539 -0.7889
 2367TIP3    H228593   1.296   6.121   2.818 -0.4476 -0.4188 -0.6808
 2368TIP3   OH228594   3.568   3.293  14.670 -0.1291 -0.2303 -0.1060
 2368TIP3    H128595   3.509   3.322  14.738 -0.7061 -1.1124 -0.2082
 2368TIP3    H228596   3.654   3.326  14.696 -0.1888 -1.2076  1.4690
 2369TIP3   OH228597   0.059   2.127  14.802 -0.9861  0.0539 -0.0759
 2369TIP3    H128598  -0.011   2.087  14.854 -0.6477  0.5439  0.7716
 2369TIP3    H228599   0.068   2.215  14.837  1.2435 -0.5504  1.0619
 2370TIP3   OH228600   6.214   1.900   4.257  0.3993  0.2120 -0.0809
 2370TIP3    H128601   6.308   1.883   4.250  0.2178 -2.1161  1.7583
 2370TIP3    H228602   6.175   1.843   4.191  0.2299  0.5906 -0.3096
 2371TIP3   OH228603   0.487   6.750   4.719  0.1805 -0.2991 -0.0947
 2371TIP3    H128604   0.448   6.762   4.806  0.3870 -0.5294  0.0315
 2371TIP3    H228605   0.522   6.837   4.697  0.2675 -0.2785  0.1212
 2372TIP3   OH228606   3.993   6.459  17.169 -0.3658 -0.0838 -0.0624
 2372TIP3    H128607   4.072   6.512  17.156 -0.1244 -1.0517 -3.5573
 2372TIP3    H228608   4.026   6.371  17.189 -0.5490 -0.3313 -0.8204
 2373TIP3   OH228609   3.204   3.788   3.982 -0.1556  0.1401 -0.1532
 2373TIP3    H128610   3.138   3.824   3.923 -0.6794 -1.5131 -0.6307
 2373TIP3    H228611   3.155   3.729   4.040  0.7303 -0.2442  0.2368
 2374TIP3   OH228612   3.204   4.023  16.119  0.1957 -0.4647 -0.4665
 2374TIP3    H128613   3.253   4.040  16.200  0.3857 -0.7712 -0.5158
 2374TIP3    H228614   3.181   3.930  16.124  0.1653 -0.4720 -0.7406
 2375TIP3   OH228615   1.704   4.178  15.525 -0.0542  0.3775 -0.2551
 2375TIP3    H128616   1.707   4.110  15.457 -1.7729  0.9375 -0.9515
 2375TIP3    H228617   1.668   4.254  15.480 -1.0964  0.8166  1.2550
 2376TIP3   OH228618   4.832   3.825   3.021  0.5284  0.2032 -0.0153
 2376TIP3    H128619   4.746   3.841   3.058  0.2809 -0.2085 -0.4002
 2376TIP3    H228620   4.839   3.885   2.947 -0.1721 -1.0069 -1.1086
 2377TIP3   OH228621   0.694   1.277   0.814  0.2523  0.8882 -0.8499
 2377TIP3    H128622   0.700   1.363   0.855  2.1557 -0.5251  2.1971
 2377TIP3    H228623   0.656   1.220   0.881 -0.0978 -0.8706 -2.4280
 2378TIP3   OH228624   5.495   4.897  14.289  0.4460  0.2827  0.1827
 2378TIP3    H128625   5.420   4.842  14.309  1.3122 -0.7361  0.7484
 2378TIP3    H228626   5.570   4.838  14.293  1.2108  1.1027 -1.1224
 2379TIP3   OH228627   6.569   3.977  15.724  0.3617 -0.5485  0.4702
 2379TIP3    H128628   6.661   3.998  15.737  0.1042  1.6242 -0.6967
 2379TIP3    H228629   6.550   4.004  15.634 -1.4326 -0.8493  0.7153
 2380TIP3   OH228630   0.952   2.634   0.514 -0.5038 -0.0468 -0.5617
 2380TIP3    H128631   0.922   2.611   0.602 -0.5424  1.7752 -0.0604
 2380TIP3    H228632   1.048   2.630   0.520 -0.4767  0.9305 -0.1625
 2381TIP3   OH228633   1.231   1.161   3.800 -0.5615 -0.4175  0.0179
 2381TIP3    H128634   1.252   1.071   3.776  0.6345  0.0236 -0.6291
 2381TIP3    H228635   1.149   1.180   3.755 -0.5060 -0.9828 -0.3203
 2382TIP3   OH228636   5.537   6.420  16.054 -0.0319  0.3544 -0.4596
 2382TIP3    H128637   5.586   6.388  15.978  1.3754 -0.6495  0.8046
 2382TIP3    H228638   5.487   6.344  16.083 -0.5203  0.7161 -0.3486
 2383TIP3   OH228639   6.156   1.004  12.584 -0.1408 -0.2128 -0.0965
 2383TIP3    H128640   6.230   1.066  12.586 -0.0554 -0.3280  1.2900
 2383TIP3    H228641   6.125   1.008  12.494  1.3066  0.1422 -0.6173
 2384TIP3   OH228642   3.330   4.509   2.336  0.0318 -0.5171 -0.3173
 2384TIP3    H128643   3.310   4.526   2.429 -0.6304 -0.8164 -0.3977
 2384TIP3    H228644   3.342   4.596   2.298  1.1764 -0.4136  0.2254
 2385TIP3   OH228645   4.747   3.353   0.561 -0.6220 -0.4260  0.6547
 2385TIP3    H128646   4.653   3.335   0.565 -0.2715 -2.3942  1.2899
 2385TIP3    H228647   4.769   3.343   0.469 -0.8849 -0.9362  0.6413
 2386TIP3   OH228648   5.400   6.687  13.885 -0.7045  0.8136  0.5098
 2386TIP3    H128649   5.485   6.698  13.927 -0.2358  4.1615 -1.0270
 2386TIP3    H228650   5.413   6.716  13.794 -2.9514 -0.9089 -0.4867
 2387TIP3   OH228651   6.478   1.801   3.808 -0.0008 -0.4469 -0.2941
 2387TIP3    H128652   6.544   1.801   3.739 -1.0132 -0.5455 -1.2950
 2387TIP3    H228653   6.408   1.857   3.774 -0.6063 -0.6631  0.5646
 2388TIP3   OH228654   5.206   6.088  16.304  0.6634  0.3406  0.1620
 2388TIP3    H128655   5.144   6.103  16.376 -1.1143 -1.3828 -0.9088
 2388TIP3    H228656   5.280   6.043  16.345 -0.0545 -0.0876  1.0307
 2389TIP3   OH228657   3.630   0.671  15.839  0.7080  0.3478  0.6471
 2389TIP3    H128658   3.581   0.660  15.920 -0.6994  1.1601 -0.0674
 2389TIP3    H228659   3.646   0.765  15.832  0.8990  0.2767  0.0340
 2390TIP3   OH228660   6.729   2.728   1.817 -0.0745  0.1430 -0.2621
 2390TIP3    H128661   6.804   2.763   1.770  0.0147 -0.0865 -0.2903
 2390TIP3    H228662   6.714   2.791   1.888  1.1318 -0.6012  0.7109
 2391TIP3   OH228663   0.690   5.031  13.345 -0.1782 -0.1879  0.1733
 2391TIP3    H128664   0.742   5.033  13.264 -1.3161  1.4257 -0.5691
 2391TIP3    H228665   0.754   5.040  13.415  0.8599 -1.8428 -0.4896
 2392TIP3   OH228666   3.647   0.421  17.172  0.0206 -0.0060 -0.0286
 2392TIP3    H128667   3.713   0.398  17.107  0.7925 -2.5647  1.5556
 2392TIP3    H228668   3.688   0.404  17.257 -1.6205  1.3744  1.1368
 2393TIP3   OH228669   0.255   0.717  12.298  0.3119  0.4057 -0.9132
 2393TIP3    H128670   0.177   0.755  12.338  1.1544  1.0763  0.1535
 2393TIP3    H228671   0.268   0.768  12.218 -0.3200  0.3058 -1.0822
 2394TIP3   OH228672   2.942   3.288  11.506 -0.2021 -0.0664 -0.1420
 2394TIP3    H128673   2.946   3.279  11.601  0.9542  1.9316  0.0569
 2394TIP3    H228674   3.023   3.248  11.475 -0.4988 -0.5633 -0.2905
 2395TIP3   OH228675   6.521   5.425  15.708 -0.3353 -0.1014  0.0331
 2395TIP3    H128676   6.468   5.370  15.650  1.3027 -1.3273 -0.3762
 2395TIP3    H228677   6.494   5.399  15.796 -0.8800 -0.2320 -0.1669
 2396TIP3   OH228678   0.098   4.606  10.276  0.2528  0.3215  0.5069
 2396TIP3    H128679   0.118   4.690  10.234 -0.1966  0.3448  0.3339
 2396TIP3    H228680   0.183   4.563  10.286  0.2661 -0.4095 -1.9674
 2397TIP3   OH228681   3.321   1.465  15.209  0.1255 -0.4897 -0.0103
 2397TIP3    H128682   3.347   1.475  15.300  1.2589 -0.8808 -0.2652
 2397TIP3    H228683   3.244   1.409  15.211  0.4135 -0.8690  0.6770
 2398TIP3   OH228684   3.228   6.524   0.313  0.0797 -0.5795 -0.6014
 2398TIP3    H128685   3.246   6.513   0.220  1.6304  1.2645 -0.5838
 2398TIP3    H228686   3.283   6.459   0.357  0.6950 -0.2662 -0.9027
 2399TIP3   OH228687   5.657   5.693  14.382 -0.1441 -0.0009  0.4129
 2399TIP3    H128688   5.623   5.774  14.344 -0.8076  0.1674  1.3379
 2399TIP3    H228689   5.686   5.718  14.470  4.1709  0.2971 -0.8614
 2400TIP3   OH228690   3.290   1.472  15.954 -1.1246  0.3228  0.2627
 2400TIP3    H128691   3.309   1.456  15.862  0.8881 -3.1711  1.0805
 2400TIP3    H228692   3.360   1.530  15.983 -0.9957  0.3722 -0.1440
 2401TIP3   OH228693   1.261   6.503   0.651 -0.0982  0.6597  0.1394
 2401TIP3    H128694   1.168   6.482   0.643 -0.1094  1.1243 -1.3125
 2401TIP3    H228695   1.307   6.424   0.623 -0.0565  0.5109  0.6250
 2402TIP3   OH228696   5.551   6.366   3.649  0.0458  0.0749 -0.7208
 2402TIP3    H128697   5.613   6.434   3.625 -1.4533  1.0326 -2.1239
 2402TIP3    H228698   5.562   6.298   3.583 -0.7233  0.4882 -1.2917
 2403TIP3   OH228699   3.688   0.665   3.501  0.3538 -0.2014 -0.2835
 2403TIP3    H128700   3.773   0.671   3.544 -0.2615  0.6920  0.8432
 2403TIP3    H228701   3.706   0.616   3.420  1.9059 -0.1280 -0.0145
 2404TIP3   OH228702   2.304   2.633  12.178  0.0649 -0.3221 -0.2733
 2404TIP3    H128703   2.353   2.558  12.211  1.0954  0.0498 -0.9440
 2404TIP3    H228704   2.307   2.696  12.250  0.8743 -0.1614 -0.4476
 2405TIP3   OH228705   3.924   2.085  15.001  0.5316  0.1232 -0.7308
 2405TIP3    H128706   3.977   2.122  14.931  0.3870  1.6168 -0.0867
 2405TIP3    H228707   3.987   2.049  15.063  0.7146  0.0284 -0.9733
 2406TIP3   OH228708   6.402   3.145  12.544 -0.0441 -0.3264 -0.0573
 2406TIP3    H128709   6.396   3.126  12.638  0.3433 -0.8183 -0.1314
 2406TIP3    H228710   6.483   3.196  12.535 -0.0892 -0.2661 -0.1260
 2407TIP3   OH228711   2.539   5.833  12.716  0.2694 -0.0212  0.6945
 2407TIP3    H128712   2.582   5.748  12.721  0.8256  0.0754 -1.3086
 2407TIP3    H228713   2.557   5.875  12.800 -0.7817 -2.1804  2.0806
 2408TIP3   OH228714   5.110   6.585  17.061  0.4875 -0.0845  0.0214
 2408TIP3    H128715   5.203   6.607  17.052  0.5418  1.1529  2.6140
 2408TIP3    H228716   5.064   6.653  17.012  0.9123 -0.6134 -1.1450
 2409TIP3   OH228717   3.551   1.120   5.773 -0.8776 -0.5335 -0.0520
 2409TIP3    H128718   3.595   1.166   5.702 -2.0982 -0.0998 -0.5628
 2409TIP3    H228719   3.621   1.074   5.819  0.2230  0.8590 -0.2538
 2410TIP3   OH228720   2.233   5.772  17.036  0.3841 -0.1085  0.6810
 2410TIP3    H128721   2.220   5.866  17.051  1.1768  0.0799  0.2835
 2410TIP3    H228722   2.323   5.756  17.065  0.8188 -0.3917 -0.7281
 2411TIP3   OH228723   2.572   6.343  13.693 -0.1670 -0.1869  0.0244
 2411TIP3    H128724   2.542   6.345  13.784  0.0752 -1.0465  0.1314
 2411TIP3    H228725   2.501   6.301  13.645  0.2911 -1.0507  0.0688
 2412TIP3   OH228726   0.844   2.485   2.718 -0.1115 -0.2609  0.8977
 2412TIP3    H128727   0.911   2.540   2.678 -0.6460 -0.1201  0.1577
 2412TIP3    H228728   0.892   2.410   2.754  0.5017  0.1415  0.9295
 2413TIP3   OH228729   1.253   1.563  12.652  0.1544  0.4487 -0.0141
 2413TIP3    H128730   1.216   1.651  12.666 -1.0599 -0.3449  2.3953
 2413TIP3    H228731   1.347   1.574  12.664  0.1855  1.6380 -1.1495
 2414TIP3   OH228732   0.690   0.511   6.404 -0.3545  0.7322 -0.0303
 2414TIP3    H128733   0.757   0.460   6.359 -2.0106 -0.5611 -1.1394
 2414TIP3    H228734   0.731   0.535   6.488  0.9968 -1.1964 -0.0718
 2415TIP3   OH228735   2.698   5.187  15.541  0.1814 -0.5723  0.6699
 2415TIP3    H128736   2.647   5.260  15.575 -0.3686  0.2327 -1.6850
 2415TIP3    H228737   2.634   5.117  15.530  0.3277 -0.7802  1.1216
 2416TIP3   OH228738   0.346   2.734  15.662  0.3254 -0.4395 -0.2503
 2416TIP3    H128739   0.323   2.794  15.591 -0.7787  0.4831  0.8382
 2416TIP3    H228740   0.375   2.654  15.618 -1.3468 -0.2761 -1.7454
 2417TIP3   OH228741   3.828   6.768   5.587  0.3588  0.4863 -0.1821
 2417TIP3    H128742   3.810   6.695   5.646 -0.2961  0.1459 -0.7817
 2417TIP3    H228743   3.856   6.726   5.505  0.8052  0.9332 -0.2617
 2418TIP3   OH228744   2.258   5.059  14.524  0.4118 -0.5621  0.0914
 2418TIP3    H128745   2.340   5.106  14.542  0.6649 -1.6757  2.1642
 2418TIP3    H228746   2.282   4.966  14.532 -0.5852 -0.9843 -1.5452
 2419TIP3   OH228747   2.263   1.558   0.262  0.4467  0.0299  0.1655
 2419TIP3    H128748   2.344   1.518   0.230  1.1584 -0.0775  1.9848
 2419TIP3    H228749   2.193   1.501   0.230  1.1622 -0.4693 -0.5374
 2420TIP3   OH228750   1.618   3.091   0.354 -0.5699  0.1485  0.0213
 2420TIP3    H128751   1.539   3.121   0.398  1.3713  1.6152  2.7923
 2420TIP3    H228752   1.627   2.999   0.380 -0.7210  0.3193  0.6847
 2421TIP3   OH228753   5.075   6.831   6.098  0.0737 -0.9199 -0.1266
 2421TIP3    H128754   5.034   6.786   6.172  0.6857 -0.2084  0.6708
 2421TIP3    H228755   5.114   6.761   6.046 -1.0643 -1.4980 -0.2247
 2422TIP3   OH228756   4.841   2.616  17.128  0.2283  0.5589  0.2180
 2422TIP3    H128757   4.846   2.620  17.224  2.7015  1.8779  0.1460
 2422TIP3    H228758   4.761   2.664  17.106  0.5149  1.7691  1.6104
 2423TIP3   OH228759   3.086   6.423  16.583  0.4965  0.0167  0.1048
 2423TIP3    H128760   3.155   6.473  16.625 -0.3951 -0.8998  2.8576
 2423TIP3    H228761   3.109   6.331  16.600 -0.8291 -0.3263  0.1822
 2424TIP3   OH228762   2.646   2.301  11.299  0.4318  0.0026  0.2136
 2424TIP3    H128763   2.595   2.251  11.363  1.8608 -0.8810  0.7007
 2424TIP3    H228764   2.702   2.358  11.352 -0.7630  1.7481 -0.3285
 2425TIP3   OH228765   1.610   5.655  11.138  0.3400  0.0671 -0.5940
 2425TIP3    H128766   1.661   5.602  11.199  0.9663 -1.3468 -2.2496
 2425TIP3    H228767   1.670   5.726  11.113  1.1629 -0.9512 -1.6664
 2426TIP3   OH228768   2.978   0.128  16.865 -0.0434 -0.3457  0.3204
 2426TIP3    H128769   3.060   0.083  16.885  0.1413 -1.3687 -2.3402
 2426TIP3    H228770   2.950   0.090  16.782 -1.6853  2.0905 -0.3243
 2427TIP3   OH228771   5.893   0.101  12.698 -0.0444  0.1083 -0.2073
 2427TIP3    H128772   5.903   0.028  12.759 -0.0147  0.7482  0.5624
 2427TIP3    H228773   5.950   0.079  12.624 -1.2926 -1.4521 -0.7703
 2428TIP3   OH228774   3.009   1.275   1.024  0.0380  0.3931  0.5882
 2428TIP3    H128775   3.051   1.360   1.036 -0.6755  0.7505  0.6512
 2428TIP3    H228776   3.079   1.217   0.995  0.3746  1.1888 -0.2311
 2429TIP3   OH228777   5.216   5.846   3.098  0.1647  0.3000 -0.0003
 2429TIP3    H128778   5.132   5.815   3.130  0.8553 -0.4537  1.1479
 2429TIP3    H228779   5.276   5.772   3.111  1.1775  1.0755 -0.0632
 2430TIP3   OH228780   5.431   5.043   3.672  0.1113  0.7161  0.4668
 2430TIP3    H128781   5.481   5.123   3.688  0.6815  1.6755 -4.4485
 2430TIP3    H228782   5.340   5.070   3.678  0.2817  1.1846  1.0082
 2431TIP3   OH228783   0.599   5.419  13.540  0.2193  0.3860  0.3944
 2431TIP3    H128784   0.597   5.362  13.463 -0.1543 -0.6486  1.1570
 2431TIP3    H228785   0.618   5.506  13.504  2.5609 -0.4672 -0.6389
 2432TIP3   OH228786   1.368   3.243  14.803 -0.1024 -0.0328 -0.4810
 2432TIP3    H128787   1.285   3.290  14.803 -0.1735  0.0461 -3.3959
 2432TIP3    H228788   1.343   3.151  14.803 -0.0509 -0.0902  1.5886
 2433TIP3   OH228789   1.561   5.218   4.171  0.0719 -0.2015 -0.5312
 2433TIP3    H128790   1.564   5.137   4.119  1.0004 -0.7865  0.3975
 2433TIP3    H228791   1.475   5.216   4.213  0.1301 -0.7686 -0.4320
 2434TIP3   OH228792   5.535   5.744  12.231  0.0642 -0.2111  0.3636
 2434TIP3    H128793   5.518   5.833  12.201  0.2615 -0.5231 -0.7147
 2434TIP3    H228794   5.626   5.727  12.207 -0.4734 -1.3072 -1.0737
 2435TIP3   OH228795   5.468   4.155  11.981 -1.1953 -0.2803 -0.0056
 2435TIP3    H128796   5.390   4.209  11.986  0.0419  1.5451  0.4828
 2435TIP3    H228797   5.478   4.118  12.069 -1.3844 -0.3360 -0.0086
 2436TIP3   OH228798   1.964   3.192  12.235 -0.3379  0.0085 -0.1035
 2436TIP3    H128799   1.965   3.122  12.300  1.7820  0.2709  0.2153
 2436TIP3    H228800   1.926   3.266  12.281 -2.5819 -0.8646 -0.4362
 2437TIP3   OH228801   5.058   2.444   1.766  0.5513  0.2634 -0.3561
 2437TIP3    H128802   5.042   2.393   1.686  0.0883 -0.2291  0.0382
 2437TIP3    H228803   4.978   2.432   1.818 -0.2917  2.7268 -0.9280
 2438TIP3   OH228804   4.748   0.310  16.638  0.5036  0.2361  0.1418
 2438TIP3    H128805   4.831   0.284  16.596  1.1006  0.7831  0.9528
 2438TIP3    H228806   4.769   0.393  16.682 -1.2004  1.9188 -1.9596
 2439TIP3   OH228807   1.016   6.438   1.252 -0.5192 -0.6792  0.1952
 2439TIP3    H128808   0.965   6.412   1.175  1.7218  0.1936 -1.6788
 2439TIP3    H228809   1.035   6.356   1.296 -1.1267 -1.2938 -0.6370
 2440TIP3   OH228810   5.427   0.442  16.936  0.3406  0.1522  0.3617
 2440TIP3    H128811   5.480   0.506  16.889  2.2234 -1.0971  0.7020
 2440TIP3    H228812   5.486   0.369  16.953 -1.3454 -1.0743  1.2761
 2441TIP3   OH228813   1.410   6.093  16.014  0.1207  0.3114  0.2889
 2441TIP3    H128814   1.463   6.105  15.936  0.1656  0.1420  0.2925
 2441TIP3    H228815   1.332   6.146  15.999 -1.3715 -2.1624 -1.2653
 2442TIP3   OH228816   1.100   3.142   3.890  0.3410  0.7975  0.2366
 2442TIP3    H128817   1.056   3.093   3.959  0.0726 -0.2351 -0.6345
 2442TIP3    H228818   1.034   3.147   3.820  0.9195  1.0044 -0.3004
 2443TIP3   OH228819   2.697   4.294   4.804  0.1709  0.3345 -0.2505
 2443TIP3    H128820   2.718   4.215   4.755 -0.3073 -0.3783  0.6546
 2443TIP3    H228821   2.711   4.269   4.896 -0.4885  1.1337  0.0797
 2444TIP3   OH228822   0.728   1.002  12.096  0.4557 -0.2268  0.2825
 2444TIP3    H128823   0.693   1.082  12.055  0.9031  0.4579  1.2047
 2444TIP3    H228824   0.748   0.945  12.023  0.3795  0.6153 -0.4161
 2445TIP3   OH228825   0.051   2.105  11.343 -0.7550 -0.4860  0.0759
 2445TIP3    H128826   0.007   2.181  11.306 -1.6440 -1.5818 -1.2470
 2445TIP3    H228827   0.139   2.135  11.364 -1.4794  1.2219  0.8179
 2446TIP3   OH228828   6.179   4.993  11.320  0.4751  0.1986  0.1494
 2446TIP3    H128829   6.090   5.006  11.289 -0.2146  0.2212  2.0200
 2446TIP3    H228830   6.174   4.914  11.373  1.8898 -0.5813 -0.7985
 2447TIP3   OH228831   3.105   2.768  14.238  0.4574 -0.5167 -0.9337
 2447TIP3    H128832   3.184   2.798  14.193 -0.5653 -0.3728 -2.7139
 2447TIP3    H228833   3.061   2.848  14.267  0.8735 -0.5924 -0.0553
 2448TIP3   OH228834   1.152   4.922   3.248 -0.5311 -0.2336  0.5086
 2448TIP3    H128835   1.162   5.012   3.278 -0.4850  0.5721 -1.7690
 2448TIP3    H228836   1.241   4.885   3.254 -0.4288  0.0625  0.8341
 2449TIP3   OH228837   3.321   1.386   5.760  0.1439 -0.2230 -0.1523
 2449TIP3    H128838   3.320   1.318   5.692 -0.8060 -0.6100  0.2402
 2449TIP3    H228839   3.386   1.449   5.729  0.1197 -0.6674 -1.1509
 2450TIP3   OH228840   1.521   4.820   2.290  0.1325  0.2984 -0.3392
 2450TIP3    H128841   1.523   4.727   2.312  0.0454  0.2364 -0.5962
 2450TIP3    H228842   1.613   4.846   2.287  0.1558  0.2317 -0.2211
 2451TIP3   OH228843   5.200   4.916  13.389 -0.0081  0.4387  0.3968
 2451TIP3    H128844   5.152   4.842  13.353 -1.4921  0.6852  1.7258
 2451TIP3    H228845   5.257   4.877  13.456 -0.2788  0.4079  0.6135
 2452TIP3   OH228846   1.740   3.262  16.522 -0.1988  0.4376  1.0396
 2452TIP3    H128847   1.798   3.201  16.476 -0.2241 -0.2134  1.8317
 2452TIP3    H228848   1.787   3.345  16.521  0.5627  0.0301  1.2682
 2453TIP3   OH228849   2.564   0.361   2.758  0.1816  0.4010  0.1013
 2453TIP3    H128850   2.473   0.374   2.732 -0.3588 -1.4364  0.9370
 2453TIP3    H228851   2.613   0.362   2.675 -0.3716  2.6458 -0.2643
 2454TIP3   OH228852   2.779   5.242   5.353  0.2940  0.3778  0.1477
 2454TIP3    H128853   2.838   5.257   5.280 -0.2691  2.2482  0.0282
 2454TIP3    H228854   2.831   5.194   5.417  1.8085  1.6053 -0.1287
 2455TIP3   OH228855   3.265   1.085   5.282 -0.1522  0.2933 -0.3113
 2455TIP3    H128856   3.178   1.084   5.321 -0.5094  0.6028 -1.0833
 2455TIP3    H228857   3.256   1.140   5.204  0.7784  0.4876 -0.2919
 2456TIP3   OH228858   2.794   0.129  16.259 -0.3588 -0.9839  0.8098
 2456TIP3    H128859   2.887   0.109  16.244 -0.0125  1.2696 -0.4337
 2456TIP3    H228860   2.752   0.043  16.266  1.5305 -2.0719 -0.4651
 2457TIP3   OH228861   5.941   3.400   2.902 -0.1313 -0.3844  0.0264
 2457TIP3    H128862   5.967   3.315   2.938  2.3302  0.0237 -0.6013
 2457TIP3    H228863   5.918   3.382   2.811 -0.3906 -0.4963  0.1141
 2458TIP3   OH228864   0.676   0.568  11.326  0.1339  0.5150 -0.0554
 2458TIP3    H128865   0.701   0.520  11.246 -1.3857  0.8536 -0.7859
 2458TIP3    H228866   0.581   0.555  11.332 -0.0371  1.9384  0.7326
 2459TIP3   OH228867   2.536   3.379   3.450  0.6950  0.6218 -0.6507
 2459TIP3    H128868   2.462   3.419   3.406 -0.0336  0.2935  0.2504
 2459TIP3    H228869   2.538   3.420   3.537 -0.0665 -1.2034  0.2911
 2460TIP3   OH228870   5.299   1.055  14.120 -0.0835  0.5329  0.6596
 2460TIP3    H128871   5.368   1.119  14.102 -0.5133  0.3088 -2.1387
 2460TIP3    H228872   5.289   1.006  14.039 -0.2285 -2.7195  2.4494
 2461TIP3   OH228873   4.638   1.125   0.226  0.1803  0.1958  0.3360
 2461TIP3    H128874   4.549   1.154   0.243  0.1955  0.8850 -0.6998
 2461TIP3    H228875   4.682   1.202   0.190  1.1280 -0.2104  0.5986
 2462TIP3   OH228876   3.390   6.190  12.766 -0.3477 -0.1100 -0.3430
 2462TIP3    H128877   3.401   6.100  12.796 -0.4554 -0.7604 -2.1723
 2462TIP3    H228878   3.343   6.183  12.683 -1.0253  1.6874 -0.1640
 2463TIP3   OH228879   5.213   3.912  11.578 -0.3045  0.0122 -0.3427
 2463TIP3    H128880   5.122   3.882  11.573 -0.0944 -0.8583  0.5745
 2463TIP3    H228881   5.223   3.972  11.504 -1.0620 -1.4278 -1.6781
 2464TIP3   OH228882   0.516   1.528  16.340 -0.1304 -0.3440  0.2075
 2464TIP3    H128883   0.445   1.483  16.294  0.0278  0.1807 -0.5667
 2464TIP3    H228884   0.472   1.576  16.410 -1.2216  3.3792 -2.6899
 2465TIP3   OH228885   3.092   0.428  11.715 -0.2917 -0.2002  0.0229
 2465TIP3    H128886   3.109   0.447  11.807 -3.1518  0.5719  0.4885
 2465TIP3    H228887   2.997   0.416  11.710 -0.0038 -2.5933 -2.4407
 2466TIP3   OH228888   0.954   1.066  14.455  0.3084  0.1715 -0.1284
 2466TIP3    H128889   0.974   1.159  14.447 -1.8376  0.6669 -0.2702
 2466TIP3    H228890   0.978   1.044  14.545 -0.9921  1.3864  0.5634
 2467TIP3   OH228891   3.567   5.542  15.665 -0.0189 -0.4883 -0.4988
 2467TIP3    H128892   3.647   5.595  15.672 -0.4012 -0.1061  1.4918
 2467TIP3    H228893   3.569   5.509  15.576  1.3057  1.1859 -1.1540
 2468TIP3   OH228894   2.279   4.150  17.093  0.0571 -0.0779 -0.2293
 2468TIP3    H128895   2.232   4.232  17.078  0.1775 -0.1095 -0.7812
 2468TIP3    H228896   2.363   4.161  17.050 -0.0003 -0.5623 -0.4824
 2469TIP3   OH228897   5.334   5.663   1.189 -0.0740 -0.2094 -0.3254
 2469TIP3    H128898   5.396   5.701   1.251  0.5558  0.2613 -1.2219
 2469TIP3    H228899   5.384   5.593   1.145  0.2446  0.9482 -1.8959
 2470TIP3   OH228900   4.972   2.044  10.757 -0.2413  0.3192  0.3474
 2470TIP3    H128901   4.898   2.005  10.803 -1.3121  0.0413 -1.5116
 2470TIP3    H228902   5.001   1.976  10.697  2.7784 -0.2690  2.2721
 2471TIP3   OH228903   6.264   4.326   4.048  0.6694  0.0276  0.0474
 2471TIP3    H128904   6.235   4.236   4.065 -1.2499  0.6950  0.5986
 2471TIP3    H228905   6.194   4.365   3.996  1.6925  1.0936 -0.5998
 2472TIP3   OH228906   1.034   0.518  15.390 -0.3132 -0.3961 -0.1204
 2472TIP3    H128907   1.091   0.510  15.313 -1.2362 -3.0759 -0.6298
 2472TIP3    H228908   1.086   0.483  15.462 -0.2839 -0.0606  0.0252
 2473TIP3   OH228909   1.649   1.402   3.090 -0.4104 -0.0562  0.4577
 2473TIP3    H128910   1.732   1.437   3.121 -0.3589  0.1868  0.0532
 2473TIP3    H228911   1.604   1.371   3.170 -0.7955  1.6372  0.9371
 2474TIP3   OH228912   3.227   6.502  16.932 -0.2630  0.4159  0.4291
 2474TIP3    H128913   3.298   6.437  16.928 -1.5165 -1.0375  0.7466
 2474TIP3    H228914   3.269   6.580  16.967  1.0882 -0.5426  1.0805
 2475TIP3   OH228915   3.198   0.187  12.123 -0.6210  0.2458 -0.1640
 2475TIP3    H128916   3.217   0.138  12.043  0.7997  2.1559 -1.0979
 2475TIP3    H228917   3.121   0.240  12.101  0.5436  1.7574 -0.8150
 2476TIP3   OH228918   5.630   4.118   3.224  0.7912 -0.1046 -0.1458
 2476TIP3    H128919   5.597   4.204   3.196 -0.7806 -0.8233 -0.6174
 2476TIP3    H228920   5.647   4.071   3.142 -0.3391 -0.9449  0.0783
 2477TIP3   OH228921   3.404   2.743  12.455  0.5521  0.3253 -0.1073
 2477TIP3    H128922   3.362   2.659  12.477  0.4234  0.7117  1.2187
 2477TIP3    H228923   3.372   2.763  12.367  1.6547 -1.6676 -1.0443
 2478TIP3   OH228924   6.668   6.238   0.747  0.3029 -0.1393  0.3541
 2478TIP3    H128925   6.611   6.312   0.724 -0.2124 -0.4709  0.5601
 2478TIP3    H228926   6.609   6.172   0.782  0.8266 -0.4575  0.6465
 2479TIP3   OH228927   4.148   2.557   2.046 -0.0665 -0.0192 -0.3797
 2479TIP3    H128928   4.116   2.486   2.103 -0.8508  0.4589 -0.2121
 2479TIP3    H228929   4.169   2.628   2.106  0.7864 -0.1221 -0.5430
 2480TIP3   OH228930   3.303   1.181  14.540  0.0067 -0.6125  0.2833
 2480TIP3    H128931   3.239   1.226  14.485  0.5243  0.5729  0.6156
 2480TIP3    H228932   3.355   1.251  14.578  1.7454 -1.5508 -0.2478
 2481TIP3   OH228933   1.357   5.506   0.848 -0.0475  0.1788  0.2102
 2481TIP3    H128934   1.308   5.510   0.766  0.9785  1.0886 -0.3962
 2481TIP3    H228935   1.447   5.487   0.821  0.4670  1.3108  1.0448
 2482TIP3   OH228936   2.548   3.168  11.943  0.0759 -0.5476  0.4006
 2482TIP3    H128937   2.485   3.177  12.015  0.2742  1.5608  0.3776
 2482TIP3    H228938   2.625   3.128  11.983  0.6151  1.6194  1.6977
 2483TIP3   OH228939   5.554   0.475   2.366  0.1519 -0.3076 -0.7075
 2483TIP3    H128940   5.600   0.397   2.398  0.5428 -0.7533 -2.2640
 2483TIP3    H228941   5.570   0.541   2.433  1.2409 -1.0859 -0.1689
 2484TIP3   OH228942   0.150   5.347  11.915 -0.5024  0.3708  0.2522
 2484TIP3    H128943   0.141   5.289  11.840 -0.5256  0.4124  0.2223
 2484TIP3    H228944   0.084   5.318  11.977 -0.2225  0.0827  0.4213
 2485TIP3   OH228945   5.917   5.559  14.532  0.3857 -0.2068 -0.3137
 2485TIP3    H128946   5.933   5.652  14.546  0.4690 -0.2728  0.0366
 2485TIP3    H228947   5.953   5.541  14.445 -1.5271  0.5527 -1.3175
 2486TIP3   OH228948   5.785   4.924  13.923  0.0795 -0.2937 -0.1758
 2486TIP3    H128949   5.750   4.835  13.923 -0.8077  0.0368  0.7986
 2486TIP3    H228950   5.796   4.945  13.830 -1.3030 -0.8155 -0.4850
 2487TIP3   OH228951   2.358   4.114   2.683 -0.1560  0.5027 -0.1656
 2487TIP3    H128952   2.358   4.208   2.702  0.1585  1.1128 -2.7511
 2487TIP3    H228953   2.265   4.092   2.672 -0.1436  0.9561 -1.3075
 2488TIP3   OH228954   0.587   3.007   5.063  0.0690  0.2736  0.5833
 2488TIP3    H128955   0.656   2.945   5.085  0.7780  0.3191 -1.3843
 2488TIP3    H228956   0.563   2.986   4.973 -1.6573  1.0413  0.8299
 2489TIP3   OH228957   2.920   6.216  12.341 -0.4872 -0.5110  0.0460
 2489TIP3    H128958   2.887   6.262  12.264 -2.5726 -1.3371  0.3951
 2489TIP3    H228959   2.905   6.277  12.413 -0.6151 -0.6151  0.1079
 2490TIP3   OH228960   0.752   5.054  17.204 -0.7847 -0.1938  0.2790
 2490TIP3    H128961   0.819   5.026  17.141 -0.4027 -0.4611  0.7957
 2490TIP3    H228962   0.741   5.148  17.187 -0.5901 -0.2358 -0.0932
 2491TIP3   OH228963   3.733   3.346  14.204 -0.1766 -1.0599  0.0361
 2491TIP3    H128964   3.643   3.335  14.175 -0.2133 -0.8905  0.0807
 2491TIP3    H228965   3.736   3.308  14.291 -0.9831  1.6035  1.3411
 2492TIP3   OH228966   0.486   2.908  15.183 -0.1614  0.1975  1.0616
 2492TIP3    H128967   0.454   2.992  15.215 -1.0521 -0.3426  1.6628
 2492TIP3    H228968   0.409   2.851  15.186 -0.8760  0.4847 -3.8276
 2493TIP3   OH228969   5.212   1.163   2.462 -0.2667  0.8586  0.6594
 2493TIP3    H128970   5.151   1.235   2.481 -0.1568  1.4184 -0.9523
 2493TIP3    H228971   5.194   1.140   2.371  0.4460 -0.4496  0.8299
 2494TIP3   OH228972   3.762   0.876   1.052  0.7269  0.3426  0.1890
 2494TIP3    H128973   3.668   0.869   1.035  0.4707  1.9447  0.7464
 2494TIP3    H228974   3.767   0.932   1.130  2.0986 -0.9423  1.0628
 2495TIP3   OH228975   3.502   4.818  12.521 -0.0909 -0.6819 -0.3722
 2495TIP3    H128976   3.540   4.881  12.459 -1.9507 -0.8301 -1.7480
 2495TIP3    H228977   3.537   4.845  12.606  1.2787  0.5342 -1.2626
 2496TIP3   OH228978   0.536   3.576  15.527  0.5541  0.1570  0.1156
 2496TIP3    H128979   0.578   3.655  15.561  1.4527 -0.6086  0.8669
 2496TIP3    H228980   0.546   3.512  15.598 -3.0328  0.2582  0.9075
 2497TIP3   OH228981   5.402   5.555  11.239  1.0647 -0.5626  0.3277
 2497TIP3    H128982   5.435   5.588  11.323  3.6093 -2.4765  0.1854
 2497TIP3    H228983   5.339   5.486  11.264 -0.4744  0.8878  0.6032
 2498TIP3   OH228984   1.062   3.194  15.223  0.2906 -0.0758 -0.0261
 2498TIP3    H128985   1.131   3.181  15.158  1.5151  0.3695  1.1286
 2498TIP3    H228986   0.988   3.143  15.190  1.5798 -1.6005 -0.6909
 2499TIP3   OH228987   0.896   1.390  12.038 -0.1152 -0.2131  0.0378
 2499TIP3    H128988   0.949   1.350  11.969  2.9320  1.7333  1.0399
 2499TIP3    H228989   0.872   1.476  12.004 -1.3961 -0.4863  0.1992
 2500TIP3   OH228990   5.048   5.771   4.347 -0.0300 -0.1337  0.4733
 2500TIP3    H128991   5.049   5.677   4.366  0.5090 -0.1540  0.3488
 2500TIP3    H228992   5.115   5.783   4.279 -0.0723  0.3459  0.5102
 2501TIP3   OH228993   3.575   4.790   5.455  0.5228  0.2288  0.3959
 2501TIP3    H128994   3.591   4.830   5.370 -0.9570 -0.2530 -0.1353
 2501TIP3    H228995   3.636   4.716   5.459 -0.1223 -0.3750 -0.6997
 2502TIP3   OH228996   2.463   5.466  11.967  0.3012 -0.3467  0.1246
 2502TIP3    H128997   2.394   5.530  11.981  0.7070  0.0542  0.3238
 2502TIP3    H228998   2.455   5.441  11.875  1.9390  2.1724 -0.7974
 2503TIP3   OH228999   2.938   4.287   4.334 -0.5779 -0.0520 -0.3347
 2503TIP3    H129000   2.905   4.334   4.258 -0.7626  0.7260  0.2105
 2503TIP3    H229001   2.859   4.255   4.379 -0.5067  0.1827 -0.0414
 2504TIP3   OH229002   0.083   0.187  12.385 -0.0703  0.8498 -0.1310
 2504TIP3    H129003   0.124   0.104  12.363  0.1855  1.1327 -0.7625
 2504TIP3    H229004   0.000   0.164  12.426  0.3658  0.2769  0.4341
 2505TIP3   OH229005   6.134   3.517   2.139 -0.6308 -0.5890 -0.3819
 2505TIP3    H129006   6.138   3.520   2.043  0.7773  0.4568 -0.3204
 2505TIP3    H229007   6.223   3.495   2.166 -0.6892  0.4143  0.7100
 2506TIP3   OH229008   2.068   1.742  15.503 -0.2303  0.5265  0.0913
 2506TIP3    H129009   2.153   1.759  15.463 -0.5858  1.1228 -0.4155
 2506TIP3    H229010   2.026   1.828  15.509 -0.6476  0.2894  0.6949
 2507TIP3   OH229011   4.444   6.724   6.074  1.1477  0.0381 -0.2644
 2507TIP3    H129012   4.353   6.695   6.072  1.5509 -1.3639  0.3234
 2507TIP3    H229013   4.470   6.729   5.982 -0.6226  4.4200 -0.7780
 2508TIP3   OH229014   5.109   4.835   5.063 -0.0954  0.2907 -0.2678
 2508TIP3    H129015   5.180   4.814   5.123 -1.6189 -1.4301  1.0584
 2508TIP3    H229016   5.153   4.852   4.979  1.8624 -1.1540  0.3848
 2509TIP3   OH229017   5.570   0.685   1.888 -0.0827  0.2326 -0.3072
 2509TIP3    H129018   5.554   0.665   1.980 -1.4129 -1.0885 -0.7682
 2509TIP3    H229019   5.628   0.615   1.858 -0.1686  0.2888 -0.6151
 2510TIP3   OH229020   0.456   1.690   6.261 -0.8862  0.0539 -0.0606
 2510TIP3    H129021   0.444   1.768   6.205  0.2092 -0.1573 -0.6141
 2510TIP3    H229022   0.548   1.692   6.285 -0.8456 -1.0735 -0.0753
 2511TIP3   OH229023   1.657   4.449   0.625 -0.6194  0.0883  0.6877
 2511TIP3    H129024   1.610   4.521   0.667 -0.1154  0.5766  0.4263
 2511TIP3    H229025   1.615   4.440   0.539  0.3479  1.1471  0.0792
 2512TIP3   OH229026   0.478   5.662   5.616  0.4554 -0.0320  0.4617
 2512TIP3    H129027   0.409   5.706   5.666 -0.2841 -1.1850  0.4954
 2512TIP3    H229028   0.431   5.605   5.556  1.3729  0.3165 -0.6055
 2513TIP3   OH229029   2.167   3.760  14.834  0.2619 -0.7856 -0.1032
 2513TIP3    H129030   2.144   3.705  14.759 -3.9289 -1.3338  1.2957
 2513TIP3    H229031   2.232   3.710  14.883  3.4306 -0.2412 -3.3326
 2514TIP3   OH229032   4.388   1.842  13.238 -0.0943 -0.1412 -0.3545
 2514TIP3    H129033   4.455   1.836  13.170  0.8026  1.2543  0.3602
 2514TIP3    H229034   4.353   1.753  13.244  1.2941 -0.7884 -1.1387
 2515TIP3   OH229035   0.360   1.137  12.831  0.6328  0.0519 -0.3128
 2515TIP3    H129036   0.441   1.139  12.780  0.3072  0.2526 -0.8319
 2515TIP3    H229037   0.314   1.218  12.806  1.0405  0.7982  1.2429
 2516TIP3   OH229038   5.317   5.441  13.823 -0.3827  1.0096  0.2147
 2516TIP3    H129039   5.353   5.530  13.822 -1.8775  1.6809  1.8110
 2516TIP3    H229040   5.382   5.390  13.872  0.0706  1.4277  0.0565
 2517TIP3   OH229041   2.077   3.940  12.464 -0.3059 -0.0148  0.2696
 2517TIP3    H129042   2.123   3.868  12.421 -0.6297 -0.4748  0.6744
 2517TIP3    H229043   2.078   4.011  12.401  0.4674 -0.2067  0.0553
 2518TIP3   OH229044   3.494   0.368  12.768 -0.5099 -0.6397 -0.4113
 2518TIP3    H129045   3.535   0.336  12.848 -0.9994 -1.8995 -0.6369
 2518TIP3    H229046   3.562   0.419  12.724 -0.1121 -0.2844  0.5932
 2519TIP3   OH229047   5.099   1.022   1.368  0.0908 -0.0232 -0.3582
 2519TIP3    H129048   5.183   0.980   1.388  0.3373 -0.6554 -2.4344
 2519TIP3    H229049   5.098   1.027   1.272 -2.3329 -0.2252 -0.3955
 2520TIP3   OH229050   1.126   2.511   2.725  0.0913 -0.5867  0.9494
 2520TIP3    H129051   1.200   2.456   2.698 -0.1232 -1.4050  1.9537
 2520TIP3    H229052   1.153   2.600   2.703  1.8548 -0.7462  2.2551
 2521TIP3   OH229053   6.088   0.321   2.299  0.6157  0.3424  0.5381
 2521TIP3    H129054   6.008   0.356   2.338 -0.4600 -0.8199 -0.5174
 2521TIP3    H229055   6.132   0.397   2.261  0.5122  1.1306  1.9497
 2522TIP3   OH229056   0.377   4.452   1.497  0.2328 -0.4366  0.4705
 2522TIP3    H129057   0.453   4.397   1.516 -0.1098 -0.6939  1.1057
 2522TIP3    H229058   0.315   4.434   1.568  0.3030  1.1250  0.9693
 2523TIP3   OH229059   2.246   4.386   0.288  0.5947 -0.1772 -0.4457
 2523TIP3    H129060   2.158   4.423   0.292  0.7073  0.1862 -1.1959
 2523TIP3    H229061   2.243   4.311   0.347  0.3302  0.9699  1.0537
 2524TIP3   OH229062   5.928   3.112  12.763 -0.0021 -0.0177  0.1959
 2524TIP3    H129063   5.914   3.206  12.764  1.1119  0.1739  1.9190
 2524TIP3    H229064   5.986   3.097  12.688  0.0789  0.7096  0.1078
 2525TIP3   OH229065   6.194   4.902   3.193  0.0219 -0.6722  0.5545
 2525TIP3    H129066   6.116   4.867   3.237 -0.1385  0.3200  1.1108
 2525TIP3    H229067   6.208   4.845   3.118 -1.6573 -0.4641  0.0542
 2526TIP3   OH229068   3.552   6.201  13.061 -0.1393  0.9195  0.1656
 2526TIP3    H129069   3.597   6.252  13.128  0.3662  0.6145  0.0665
 2526TIP3    H229070   3.532   6.117  13.105  0.3965  0.6340 -0.1293
 2527TIP3   OH229071   6.342   3.431  14.400 -0.3177  0.8225 -0.5357
 2527TIP3    H129072   6.400   3.507  14.390  1.6336 -0.2924  1.2332
 2527TIP3    H229073   6.322   3.429  14.494 -1.1369 -0.2979 -0.7178
 2528TIP3   OH229074   0.907   4.267   1.032  0.5743 -0.1495  0.5923
 2528TIP3    H129075   0.851   4.344   1.046  0.9882 -0.0709  1.9496
 2528TIP3    H229076   0.989   4.289   1.075  1.4363 -0.5531 -0.7777
 2529TIP3   OH229077   3.325   6.630   1.454  0.0042  0.2821  0.4286
 2529TIP3    H129078   3.304   6.716   1.418 -0.0838  0.2641  0.4353
 2529TIP3    H229079   3.293   6.568   1.388  1.8348  0.2784 -0.5057
 2530TIP3   OH229080   0.249   1.858  13.917 -0.2239 -0.1162  0.2826
 2530TIP3    H129081   0.244   1.927  13.983  0.1510  0.2850 -0.0971
 2530TIP3    H229082   0.243   1.905  13.833  0.1078 -0.5352  0.0170
 2531TIP3   OH229083   1.298   2.168  15.447 -0.2122  0.2858  0.0071
 2531TIP3    H129084   1.260   2.122  15.373 -1.1865 -0.1755  0.7586
 2531TIP3    H229085   1.340   2.099  15.499  0.5016  0.6093 -0.1273
 2532TIP3   OH229086   6.563   0.904  12.136 -0.0523 -0.7374 -0.1607
 2532TIP3    H129087   6.653   0.892  12.165 -0.8278 -3.3090  1.4476
 2532TIP3    H229088   6.556   0.853  12.056 -0.5312 -2.2956  0.8193
 2533TIP3   OH229089   6.489   4.099   1.213 -0.0553 -0.2792  0.1130
 2533TIP3    H129090   6.523   4.156   1.283  2.8906 -0.3232 -1.1411
 2533TIP3    H229091   6.458   4.160   1.146 -0.6860 -0.2192  0.4514
 2534TIP3   OH229092   5.093   2.169   4.922  0.1937  0.2820  0.0409
 2534TIP3    H129093   5.000   2.147   4.913  0.2809 -0.1092  0.0668
 2534TIP3    H229094   5.101   2.198   5.013  0.7720 -3.2670  1.2983
 2535TIP3   OH229095   3.139   0.169   2.122 -0.3770 -0.2735 -0.8338
 2535TIP3    H129096   3.228   0.161   2.157 -0.5797 -0.2673 -0.3013
 2535TIP3    H229097   3.088   0.205   2.195 -0.5296  1.0603 -1.5763
 2536TIP3   OH229098   3.176   1.399   1.718  0.6703  0.3371 -0.4545
 2536TIP3    H129099   3.109   1.465   1.697  1.0886  0.6393 -0.8550
 2536TIP3    H229100   3.212   1.428   1.802  0.5957  0.4130 -0.4479
 2537TIP3   OH229101   0.916   5.033   2.553  0.0958  0.3544 -0.1387
 2537TIP3    H129102   0.961   5.013   2.470  0.8340 -1.2370  0.5961
 2537TIP3    H229103   0.987   5.038   2.617 -0.6295 -1.0046  0.8305
 2538TIP3   OH229104   3.752   0.020  14.848  0.2951  0.0688 -0.1087
 2538TIP3    H129105   3.731   0.062  14.932 -1.4954 -0.5942 -0.2030
 2538TIP3    H229106   3.817   0.078  14.809  2.0503 -0.1731  2.2094
 2539TIP3   OH229107   0.925   2.810  15.250 -0.1836  0.6039 -0.7198
 2539TIP3    H129108   0.906   2.873  15.180 -0.3955  0.1285 -1.0963
 2539TIP3    H229109   1.020   2.808  15.255 -0.0168 -1.4199 -2.9382
 2540TIP3   OH229110   5.488   1.888  16.371 -0.4797  0.7144 -0.5429
 2540TIP3    H129111   5.532   1.803  16.378  0.1571  1.1241  0.7163
 2540TIP3    H229112   5.402   1.874  16.409 -0.4295  0.5976 -0.4731
 2541TIP3   OH229113   0.698   4.470   1.246 -0.1529  0.1923  0.0465
 2541TIP3    H129114   0.760   4.454   1.317 -0.8776  0.7208  0.8292
 2541TIP3    H229115   0.688   4.386   1.203  2.0462  0.3617 -0.8971
 2542TIP3   OH229116   4.240   2.304   6.255  0.2407  0.8169 -0.5052
 2542TIP3    H129117   4.155   2.262   6.243  0.6071  0.1049 -0.6451
 2542TIP3    H229118   4.263   2.287   6.346  0.4424  0.6200 -0.5937
 2543TIP3   OH229119   2.181   1.178   6.065 -0.4024 -0.0874 -0.8591
 2543TIP3    H129120   2.108   1.116   6.066 -0.2803 -0.2455  1.4101
 2543TIP3    H229121   2.163   1.239   6.136  1.5376  0.0114 -0.3835
 2544TIP3   OH229122   4.931   0.335  17.009  0.2634  0.2709  0.1325
 2544TIP3    H129123   4.928   0.239  17.017  0.9707  0.1747 -0.6827
 2544TIP3    H229124   4.992   0.363  17.077  0.2528  0.1246  0.2037
 2545TIP3   OH229125   2.575   3.427   3.158 -0.0671 -0.0971 -0.2258
 2545TIP3    H129126   2.596   3.520   3.153 -0.2617 -0.0596 -0.3487
 2545TIP3    H229127   2.517   3.420   3.234 -0.2508 -0.0802 -0.3635
 2546TIP3   OH229128   1.244   5.943   1.081 -0.2462  0.1294 -0.2153
 2546TIP3    H129129   1.271   5.852   1.097 -0.1424 -0.1313 -1.7062
 2546TIP3    H229130   1.236   5.949   0.986 -0.3490  1.6715 -0.1336
 2547TIP3   OH229131   1.595   6.109   2.233 -0.5329  0.0698  0.0896
 2547TIP3    H129132   1.533   6.173   2.199  1.0352  1.2451 -0.6965
 2547TIP3    H229133   1.581   6.109   2.328 -1.5391  0.4899 -0.0495
 2548TIP3   OH229134   5.677   1.537  14.701  0.0850  0.4178  0.9191
 2548TIP3    H129135   5.591   1.532  14.743 -0.8172 -0.0344 -0.8540
 2548TIP3    H229136   5.697   1.446  14.678  0.1597  0.7192 -0.2957
 2549TIP3   OH229137   5.551   0.849   5.516  0.1135 -0.0094 -0.5834
 2549TIP3    H129138   5.608   0.775   5.491  1.3460  0.7766 -0.2029
 2549TIP3    H229139   5.610   0.924   5.519 -0.8948  0.7723  0.1938
 2550TIP3   OH229140   3.835   0.610  11.430  0.3816 -0.7943  0.6103
 2550TIP3    H129141   3.787   0.533  11.460  2.0504 -2.5072 -0.8877
 2550TIP3    H229142   3.818   0.614  11.336  0.7939  0.3378  0.5674
 2551TIP3   OH229143   2.553   0.170  14.958  0.0038 -0.1682  0.3433
 2551TIP3    H129144   2.585   0.224  14.886 -0.2038  0.1138  0.4604
 2551TIP3    H229145   2.589   0.211  15.037  2.0601 -1.7321  0.2992
 2552TIP3   OH229146   1.884   4.008   1.144 -0.1001  0.1472 -0.2415
 2552TIP3    H129147   1.875   4.098   1.174 -0.6443  0.2666 -0.7551
 2552TIP3    H229148   1.808   3.963   1.179  2.0069 -1.0624  3.2683
 2553TIP3   OH229149   4.094   5.334  15.039  0.1238  0.8065 -0.3190
 2553TIP3    H129150   4.082   5.244  15.069  0.0920 -0.1711 -2.9897
 2553TIP3    H229151   4.007   5.374  15.048 -0.1594  0.1840 -0.2455
 2554TIP3   OH229152   3.092   5.436  11.425  0.9613 -0.4937  0.2129
 2554TIP3    H129153   2.998   5.446  11.406  1.3165  1.5913 -0.6212
 2554TIP3    H229154   3.136   5.467  11.347  2.3764 -1.0022  0.7832
 2555TIP3   OH229155   3.214   5.516   3.900 -0.8849  0.1964  0.1179
 2555TIP3    H129156   3.285   5.552   3.847 -0.3023 -2.6835 -1.2280
 2555TIP3    H229157   3.203   5.426   3.869 -2.8617 -0.5523  2.6032
 2556TIP3   OH229158   3.858   0.455   3.753 -0.1008 -0.4508  0.4975
 2556TIP3    H129159   3.864   0.392   3.825  1.2151 -0.8086  0.1093
 2556TIP3    H229160   3.766   0.481   3.752 -0.2979 -0.9909  1.8290
 2557TIP3   OH229161   0.497   6.386   4.885 -0.0084 -0.3294 -0.1436
 2557TIP3    H129162   0.507   6.477   4.911  1.0853 -0.5576  0.2975
 2557TIP3    H229163   0.419   6.356   4.934  1.4011 -0.4706  2.1833
 2558TIP3   OH229164   4.441   6.036   2.525  0.1514 -0.9557  0.6606
 2558TIP3    H129165   4.527   6.071   2.550 -0.7504  0.6360  1.7405
 2558TIP3    H229166   4.446   5.943   2.548  1.9024 -1.1208 -0.2405
 2559TIP3   OH229167   2.968   4.568  15.918 -0.4566  0.7474  0.5298
 2559TIP3    H129168   2.883   4.545  15.955  0.6363  0.4197  3.0620
 2559TIP3    H229169   2.960   4.660  15.893 -1.7540  0.5144  0.0171
 2560TIP3   OH229170   3.663   2.049   4.817  0.1118  0.3702  0.8217
 2560TIP3    H129171   3.601   2.116   4.787  0.4806  0.5731  0.4900
 2560TIP3    H229172   3.708   2.022   4.737 -1.4721 -1.8105  0.5888
 2561TIP3   OH229173   6.612   1.332  16.445 -0.1287 -0.3479 -0.3828
 2561TIP3    H129174   6.705   1.311  16.456 -0.7803 -2.8120  1.3243
 2561TIP3    H229175   6.588   1.379  16.525 -0.4594 -0.1230 -0.6080
 2562TIP3   OH229176   2.496   4.947  14.370 -0.3865  0.1931 -0.1250
 2562TIP3    H129177   2.420   4.902  14.406 -0.2146 -2.0355 -2.2813
 2562TIP3    H229178   2.513   4.903  14.286  1.8306  2.1942 -0.8569
 2563TIP3   OH229179   2.871   3.280   2.563 -0.5043 -0.3032 -0.2087
 2563TIP3    H129180   2.803   3.347   2.550 -1.5308 -1.3408 -0.3429
 2563TIP3    H229181   2.853   3.215   2.496 -0.3083 -1.3335  0.7086
 2564TIP3   OH229182   1.955   0.167   2.062  0.0535 -0.4138 -0.2201
 2564TIP3    H129183   1.961   0.231   1.991  0.0241  0.3891  0.4917
 2564TIP3    H229184   1.977   0.083   2.020 -1.8707 -0.2831 -1.6136
 2565TIP3   OH229185   4.273   1.441   6.792 -0.5916 -0.4109 -0.3317
 2565TIP3    H129186   4.337   1.502   6.756  1.9039 -2.4963  0.2175
 2565TIP3    H229187   4.235   1.487   6.867 -0.0578  1.0685 -0.9444
 2566TIP3   OH229188   3.635   0.772   2.596  0.0942 -0.3862  0.4254
 2566TIP3    H129189   3.686   0.801   2.672  0.5490 -1.9932  0.7548
 2566TIP3    H229190   3.600   0.853   2.559  1.7673  0.6339  0.9822
 2567TIP3   OH229191   4.616   2.204   2.256 -0.1796 -0.2261 -0.2708
 2567TIP3    H129192   4.635   2.297   2.253 -0.2484 -0.2316 -2.9667
 2567TIP3    H229193   4.554   2.194   2.328  0.0279  1.7497  0.2209
 2568TIP3   OH229194   3.933   5.041   0.198 -0.1825  0.1574  0.6527
 2568TIP3    H129195   3.853   5.009   0.239 -0.6832  0.3227 -0.1728
 2568TIP3    H229196   4.003   5.007   0.254 -0.7860 -0.7091  0.9140
 2569TIP3   OH229197   5.168   0.349  15.993  0.5840  0.1153 -0.3228
 2569TIP3    H129198   5.153   0.441  15.973  0.4846  0.1352 -0.1559
 2569TIP3    H229199   5.241   0.349  16.055  1.3457  0.0154 -1.1898
 2570TIP3   OH229200   4.589   2.048  15.137  0.5285 -0.6578  0.1328
 2570TIP3    H129201   4.548   1.966  15.165 -0.7722 -0.0355  0.1375
 2570TIP3    H229202   4.537   2.076  15.062 -0.4556  1.2537  1.4580
 2571TIP3   OH229203   1.873   0.671   3.705  0.4411 -0.2817  0.4591
 2571TIP3    H129204   1.866   0.728   3.629  1.1665 -1.1314 -0.2654
 2571TIP3    H229205   1.865   0.582   3.670  0.3735 -0.6747  1.4230
 2572TIP3   OH229206   3.887   1.275   5.420  0.4251 -0.3199  0.0377
 2572TIP3    H129207   3.875   1.326   5.340 -0.3610 -0.2925  0.1641
 2572TIP3    H229208   3.898   1.185   5.388  0.3505 -0.2759 -0.1157
 2573TIP3   OH229209   4.675   3.046   5.844 -0.5089 -0.1072  0.0231
 2573TIP3    H129210   4.722   3.129   5.839 -1.2188  0.4084  1.2257
 2573TIP3    H229211   4.722   2.995   5.910  0.0571 -0.7819 -0.8684
 2574TIP3   OH229212   1.206   1.372   2.528  0.1443  0.2392  0.0934
 2574TIP3    H129213   1.250   1.367   2.613  1.4815  0.5885 -0.5473
 2574TIP3    H229214   1.242   1.299   2.479 -0.9585 -0.2271 -0.0398
 2575TIP3   OH229215   3.859   4.348   6.666 -0.4365 -0.3235 -0.3641
 2575TIP3    H129216   3.922   4.398   6.613  0.0476 -0.3155  0.2043
 2575TIP3    H229217   3.900   4.263   6.678 -1.1523 -0.7886 -1.1211
 2576TIP3   OH229218   1.771   0.118   4.901 -0.1824  0.6132 -0.0396
 2576TIP3    H129219   1.789   0.162   4.818  1.0418 -0.5106 -0.4053
 2576TIP3    H229220   1.683   0.083   4.892 -0.2410  0.9218 -0.6757
 2577TIP3   OH229221   6.667   1.573   4.259  0.0323 -0.0569 -0.1155
 2577TIP3    H129222   6.744   1.626   4.281 -0.3350 -0.2639  1.8551
 2577TIP3    H229223   6.594   1.635   4.264 -0.2774 -0.4962  1.1877
 2578TIP3   OH229224   6.412   0.279   2.034  0.2995  0.2452 -0.0121
 2578TIP3    H129225   6.368   0.313   1.956  1.5904 -0.0157 -0.8948
 2578TIP3    H229226   6.393   0.185   2.033  2.5621 -0.2917 -1.6503
 2579TIP3   OH229227   0.724   5.240   6.078 -0.2115  0.2036 -0.5250
 2579TIP3    H129228   0.723   5.296   6.000 -0.1772  0.0876 -0.6088
 2579TIP3    H229229   0.800   5.270   6.127  1.4545 -1.5410 -1.8726
 2580TIP3   OH229230   0.578   5.080  10.931  0.4274 -0.3065  0.0465
 2580TIP3    H129231   0.589   4.988  10.904  0.8186 -0.7974  1.7611
 2580TIP3    H229232   0.613   5.130  10.858  1.2061 -1.5532 -0.4712
 2581TIP3   OH229233   3.475   3.529  12.296 -0.3287 -0.5619 -0.4220
 2581TIP3    H129234   3.449   3.479  12.374  0.3587  0.0707  0.2362
 2581TIP3    H229235   3.526   3.602  12.331  0.5581 -0.6305 -1.5095
 2582TIP3   OH229236   0.371   0.301   1.836  0.4156  0.2397 -0.2660
 2582TIP3    H129237   0.434   0.283   1.906  0.4780 -2.5782 -0.9134
 2582TIP3    H229238   0.425   0.317   1.759  0.3387  2.7796  0.1529
 2583TIP3   OH229239   0.891   2.297   4.435  0.2535  0.6850 -0.2818
 2583TIP3    H129240   0.916   2.245   4.511 -0.7953 -0.6486 -0.7850
 2583TIP3    H229241   0.892   2.388   4.465 -0.4883  0.1669  1.4379
 2584TIP3   OH229242   4.796   1.328   2.699  0.0653 -0.3493  0.0107
 2584TIP3    H129243   4.786   1.291   2.787  0.3639  0.6538  0.4770
 2584TIP3    H229244   4.714   1.305   2.655 -0.2973 -0.4478  0.7075
 2585TIP3   OH229245   6.460   3.664   0.432  0.4691  0.1975  0.7978
 2585TIP3    H129246   6.462   3.569   0.445  1.9552  0.1353  0.3463
 2585TIP3    H229247   6.369   3.689   0.446  0.2641 -1.1418  2.0030
 2586TIP3   OH229248   5.836   6.777  16.809  0.2332 -0.3952 -0.3444
 2586TIP3    H129249   5.922   6.819  16.808 -0.4329  1.1158  0.8351
 2586TIP3    H229250   5.795   6.803  16.727  1.2232 -1.9466 -1.3837
 2587TIP3   OH229251   5.840   4.132  13.125  0.0660 -0.1245  0.1316
 2587TIP3    H129252   5.764   4.167  13.172  0.5478 -1.2198  1.8394
 2587TIP3    H229253   5.904   4.114  13.194  0.7491 -1.9766 -0.9170
 2588TIP3   OH229254   2.032   5.768  12.843 -0.2086 -0.6940  0.1226
 2588TIP3    H129255   2.045   5.862  12.850 -2.5478 -0.4229  1.9824
 2588TIP3    H229256   2.105   5.730  12.892  1.0994  0.0647 -1.1560
 2589TIP3   OH229257   6.575   0.016  14.195 -0.3204 -0.0808  0.5066
 2589TIP3    H129258   6.669   0.020  14.181 -0.3912 -1.6714 -0.6088
 2589TIP3    H229259   6.548   0.108  14.204  1.0486  0.5338 -1.1459
 2590TIP3   OH229260   2.353   3.486   2.156  0.3928  0.3795 -0.0465
 2590TIP3    H129261   2.308   3.555   2.205  0.4392 -0.7523  1.7029
 2590TIP3    H229262   2.417   3.532   2.103 -2.1669  1.9760 -1.9622
 2591TIP3   OH229263   0.090   0.853   0.700 -0.3499  0.3732 -0.2325
 2591TIP3    H129264   0.167   0.904   0.726 -0.0052 -0.5276  0.6021
 2591TIP3    H229265   0.072   0.880   0.610  0.9906  0.5622 -0.4683
 2592TIP3   OH229266   4.696   1.825   1.109 -0.0195 -0.1323  0.8087
 2592TIP3    H129267   4.693   1.730   1.103 -0.5616 -0.1028  0.4156
 2592TIP3    H229268   4.785   1.849   1.084 -0.4798 -0.4207 -1.2567
 2593TIP3   OH229269   4.192   2.253  10.502  0.2351 -0.2666  0.2005
 2593TIP3    H129270   4.097   2.250  10.510  0.2441  0.9265  0.9541
 2593TIP3    H229271   4.212   2.345  10.488  1.3636 -0.3309  1.2412
 2594TIP3   OH229272   3.014   0.249  14.895 -0.4114  0.1281  0.0580
 2594TIP3    H129273   3.042   0.213  14.810  1.8285  1.1508  0.2873
 2594TIP3    H229274   3.001   0.172  14.950  0.5297 -0.4908 -0.5394
 2595TIP3   OH229275   2.948   2.148  11.905  0.1918  0.5309 -0.6876
 2595TIP3    H129276   3.037   2.165  11.875  0.5514 -1.1331 -0.6470
 2595TIP3    H229277   2.948   2.055  11.927 -1.3212  0.7047  0.1411
 2596TIP3   OH229278   4.183   5.375   3.987  0.1809 -0.6726  0.2789
 2596TIP3    H129279   4.093   5.353   4.009 -0.3481  0.5769 -0.5186
 2596TIP3    H229280   4.201   5.328   3.906  0.2244 -0.8509  0.3906
 2597TIP3   OH229281   6.292   6.482   0.565 -0.9363  0.1301  0.1492
 2597TIP3    H129282   6.286   6.429   0.644  0.9761  1.8077  1.5397
 2597TIP3    H229283   6.222   6.547   0.575 -1.5390 -0.4419 -0.2290
 2598TIP3   OH229284   6.298   6.598  11.646 -0.2988 -0.3693  0.1538
 2598TIP3    H129285   6.268   6.636  11.729 -1.0619 -0.6490  0.0145
 2598TIP3    H229286   6.380   6.643  11.627  0.1400 -0.6422  1.3119
 2599TIP3   OH229287   1.071   3.157  10.777 -0.4893 -0.2056 -0.6331
 2599TIP3    H129288   1.108   3.076  10.740 -1.3916 -0.1470 -1.7228
 2599TIP3    H229289   1.107   3.161  10.866  2.5872  0.1447 -1.7657
 2600TIP3   OH229290   1.360   6.443  15.153  0.2397 -0.1667 -0.3200
 2600TIP3    H129291   1.349   6.523  15.206  0.0165  0.1071 -0.7734
 2600TIP3    H229292   1.316   6.375  15.204  0.0870  0.0797 -0.1162
 2601TIP3   OH229293   5.122   1.240  15.034  0.4057  0.5642 -0.1658
 2601TIP3    H129294   5.180   1.291  15.090  0.3993  1.0032 -0.5578
 2601TIP3    H229295   5.057   1.203  15.095  1.3111 -0.2497  0.3276
 2602TIP3   OH229296   3.966   3.022   1.393 -0.2083 -0.6858 -0.3962
 2602TIP3    H129297   3.916   3.099   1.421  2.0468  0.2319  1.4671
 2602TIP3    H229298   3.912   2.947   1.416 -1.5473  0.2887 -0.2868
 2603TIP3   OH229299   5.802   2.684  16.827  0.4483 -0.2987 -0.0872
 2603TIP3    H129300   5.721   2.732  16.812 -0.1673 -1.3681 -0.2396
 2603TIP3    H229301   5.786   2.632  16.905 -0.6077 -3.7495 -2.3682
 2604TIP3   OH229302   1.523   2.495  15.974  0.0139  0.5864 -0.6758
 2604TIP3    H129303   1.528   2.529  15.885 -1.6772  0.7296 -0.7429
 2604TIP3    H229304   1.473   2.414  15.965 -0.5291  0.8179  0.2011
 2605TIP3   OH229305   5.863   0.967   1.309  0.3298 -0.5932 -0.1512
 2605TIP3    H129306   5.888   0.912   1.234  0.5617 -0.4393 -0.1866
 2605TIP3    H229307   5.836   1.049   1.269 -0.0539 -0.6916 -0.1000
 2606TIP3   OH229308   4.892   4.483   5.422  0.1763  0.6922 -0.2115
 2606TIP3    H129309   4.933   4.460   5.339  0.2430  0.9333 -0.2453
 2606TIP3    H229310   4.807   4.439   5.419  1.8880 -3.2694  1.5442
 2607TIP3   OH229311   6.240   1.268   3.618 -0.4120  0.6088 -0.8569
 2607TIP3    H129312   6.263   1.280   3.710  0.0945  0.6117 -0.9817
 2607TIP3    H229313   6.318   1.229   3.579 -0.8555 -0.0184 -1.1459
 2608TIP3   OH229314   3.128   6.087   0.239 -0.3269 -0.7535 -0.2650
 2608TIP3    H129315   3.170   6.141   0.307 -0.6849 -0.8851  0.0678
 2608TIP3    H229316   3.083   6.018   0.288  1.0171 -2.0032 -0.7305
 2609TIP3   OH229317   1.090   0.169  15.921 -0.0344  0.2834 -0.0940
 2609TIP3    H129318   1.006   0.174  15.968 -0.9117 -1.2338 -1.3897
 2609TIP3    H229319   1.065   0.163  15.829  1.5824  1.1120 -0.6249
 2610TIP3   OH229320   0.856   1.007   2.737 -0.2970 -0.0709  0.2499
 2610TIP3    H129321   0.930   1.040   2.686  0.7705 -0.6616  1.3610
 2610TIP3    H229322   0.791   1.078   2.733  0.4415  0.5921 -0.4981
 2611TIP3   OH229323   3.423   3.745  13.302  0.2436  0.1008  0.1921
 2611TIP3    H129324   3.476   3.666  13.304 -0.4531 -0.3659  0.6449
 2611TIP3    H229325   3.365   3.738  13.378 -0.8749  0.3074 -0.6075
 2612TIP3   OH229326   1.114   3.045  12.742 -0.3378  0.7470 -0.4433
 2612TIP3    H129327   1.085   3.076  12.656 -0.3122 -0.2757 -0.8400
 2612TIP3    H229328   1.045   2.984  12.769  1.0647 -1.1957 -1.0865
 2613TIP3   OH229329   6.669   6.803   1.996  0.1046 -0.3102 -0.1814
 2613TIP3    H129330   6.579   6.793   2.025 -0.5339  1.7588 -1.2367
 2613TIP3    H229331   6.684   6.729   1.938 -1.1024 -0.3723 -0.4408
 2614TIP3   OH229332   4.231   5.582  11.501 -0.1777 -0.1233  0.1180
 2614TIP3    H129333   4.267   5.512  11.446 -0.3233  0.3866 -0.6398
 2614TIP3    H229334   4.291   5.588  11.574  1.2110  0.6044 -1.0395
 2615TIP3   OH229335   6.310   0.834   5.719  0.2759 -0.0807  0.0875
 2615TIP3    H129336   6.337   0.877   5.800  1.0537 -1.8300  0.8088
 2615TIP3    H229337   6.372   0.865   5.653  0.9888 -0.2913  0.6490
 2616TIP3   OH229338   0.361   1.007   5.348  0.5043  0.7240 -0.2528
 2616TIP3    H129339   0.297   1.050   5.405  0.3831 -0.1042  0.2475
 2616TIP3    H229340   0.373   1.069   5.276 -0.0713  1.3577  0.1739
 2617TIP3   OH229341   1.470   0.423  12.420  0.2005 -0.0468  0.4699
 2617TIP3    H129342   1.536   0.369  12.462  1.0140  0.5251 -0.0467
 2617TIP3    H229343   1.518   0.498  12.385 -0.5380 -0.2196 -0.9856
 2618TIP3   OH229344   6.694   1.511   5.471 -0.1091 -0.0409  0.2996
 2618TIP3    H129345   6.653   1.425   5.464  1.5529 -0.8956  0.5525
 2618TIP3    H229346   6.643   1.557   5.538 -0.8922 -0.9000  0.3138
 2619TIP3   OH229347   2.567   0.014   0.749 -0.3518 -0.7210  0.0276
 2619TIP3    H129348   2.597   0.083   0.691  1.1391 -0.1424  1.4023
 2619TIP3    H229349   2.597  -0.068   0.709 -1.8980 -0.6010 -1.4693
 2620TIP3   OH229350   2.593   6.224   5.346  0.0679 -0.3302 -0.3269
 2620TIP3    H129351   2.523   6.184   5.296 -1.0550 -0.0494  0.9706
 2620TIP3    H229352   2.598   6.314   5.314  0.3775 -0.5563 -0.9437
 2621TIP3   OH229353   4.186   6.367   1.070  0.0242 -0.2495 -0.0859
 2621TIP3    H129354   4.255   6.343   1.007 -0.3781  0.5944 -0.8630
 2621TIP3    H229355   4.110   6.386   1.016 -0.1400  1.1704  0.6051
 2622TIP3   OH229356   4.820   2.881  16.925  0.0812 -0.3798  0.1676
 2622TIP3    H129357   4.759   2.835  16.982 -0.3851  0.0330 -0.0001
 2622TIP3    H229358   4.833   2.821  16.851  1.1636 -1.1872  0.9754
 2623TIP3   OH229359   6.342   5.622   6.519  0.2430  0.2364  0.2285
 2623TIP3    H129360   6.291   5.573   6.584 -0.7339  0.8045 -0.0767
 2623TIP3    H229361   6.287   5.619   6.440  1.7054 -1.0502 -0.8153
 2624TIP3   OH229362   1.443   0.706  12.077 -0.1130  0.7958 -0.6984
 2624TIP3    H129363   1.462   0.649  12.002 -1.7600 -0.3021 -0.3194
 2624TIP3    H229364   1.507   0.679  12.143  0.1627  0.4894 -1.0797
 2625TIP3   OH229365   3.588   2.191  15.434 -0.0586  0.0300 -0.4056
 2625TIP3    H129366   3.572   2.103  15.401 -3.2988 -0.1203  1.1728
 2625TIP3    H229367   3.521   2.245  15.392 -0.5882  0.9257  1.4618
 2626TIP3   OH229368   0.040   4.735   0.334  0.1608  0.0654  0.1660
 2626TIP3    H129369   0.083   4.816   0.307  0.8644 -0.8273 -1.6128
 2626TIP3    H229370   0.015   4.693   0.251 -0.0243 -1.6142  1.0329
 2627TIP3   OH229371   1.463   6.044   3.906 -0.2250 -0.1413  0.9660
 2627TIP3    H129372   1.421   5.984   3.968  0.4132 -1.5024  0.1288
 2627TIP3    H229373   1.554   6.015   3.901 -1.0660 -3.1034 -3.8459
 2628TIP3   OH229374   0.029   1.878   5.347  0.3474  0.0554 -0.2517
 2628TIP3    H129375   0.108   1.852   5.299  0.0497  0.5794 -1.0573
 2628TIP3    H229376   0.048   1.858   5.438  2.1709  1.8911 -0.1503
 2629TIP3   OH229377   6.270   6.300  16.798 -0.3554 -0.5082 -0.6397
 2629TIP3    H129378   6.203   6.247  16.840 -0.6570  0.5325  0.2345
 2629TIP3    H229379   6.335   6.237  16.767 -2.0576 -1.6127 -2.1685
 2630TIP3   OH229380   0.576   3.808  17.020 -0.0982 -0.1837  0.1020
 2630TIP3    H129381   0.516   3.861  17.071  0.1597  1.5048 -1.2248
 2630TIP3    H229382   0.644   3.782  17.082  0.5710  2.3483  0.5737
 2631TIP3   OH229383   6.609   0.808  16.646 -0.3105 -0.4724  0.5880
 2631TIP3    H129384   6.640   0.748  16.579  0.8871  0.1774  0.5367
 2631TIP3    H229385   6.678   0.809  16.712 -0.6476  0.2688  0.9487
 2632TIP3   OH229386   0.618   0.656  15.446  0.1336  0.0803  0.5501
 2632TIP3    H129387   0.665   0.715  15.506  0.7789  0.4089 -0.2611
 2632TIP3    H229388   0.686   0.620  15.389 -0.5643  0.4896 -0.5855
 2633TIP3   OH229389   2.292   1.817   3.146  0.2520  0.2057 -0.9392
 2633TIP3    H129390   2.380   1.816   3.182 -0.4563  0.3714  0.9171
 2633TIP3    H229391   2.277   1.909   3.122 -0.2684  0.7182  1.1275
 2634TIP3   OH229392   5.427   3.754  14.461 -0.2851  0.1538  0.2999
 2634TIP3    H129393   5.479   3.784  14.535  0.1621  1.8814 -0.6761
 2634TIP3    H229394   5.346   3.805  14.467 -0.4484 -0.0529 -0.1290
 2635TIP3   OH229395   6.632   5.978  15.739  0.3194 -0.3151 -0.2077
 2635TIP3    H129396   6.583   5.899  15.762 -2.9296  2.2610  2.9824
 2635TIP3    H229397   6.716   5.967  15.782 -1.2233 -0.8554  2.9443
 2636TIP3   OH229398   0.641   4.546  16.413 -0.2999  0.1154 -0.0570
 2636TIP3    H129399   0.621   4.463  16.370  0.6968  0.0557 -0.4352
 2636TIP3    H229400   0.643   4.525  16.506  0.8646 -0.5047 -0.2005
 2637TIP3   OH229401   0.679   4.819  16.484  0.0204 -0.0510 -0.5920
 2637TIP3    H129402   0.739   4.809  16.558  0.8239 -1.1864 -1.3528
 2637TIP3    H229403   0.648   4.730  16.467  0.2946  0.0979 -1.9762
 2638TIP3   OH229404   5.604   2.028   3.677  0.4862 -0.0492 -0.1426
 2638TIP3    H129405   5.670   2.080   3.631  0.8833 -0.2772  0.1703
 2638TIP3    H229406   5.645   1.942   3.688 -0.0977 -0.3843 -0.5005
 2639TIP3   OH229407   4.392   3.188  15.776 -0.0802 -0.1979 -0.3583
 2639TIP3    H129408   4.437   3.214  15.857  0.2445  0.7401 -0.8254
 2639TIP3    H229409   4.450   3.218  15.706 -0.0094 -1.6296 -0.9527
 2640TIP3   OH229410   2.263   2.852  11.404  0.1207 -0.3277 -0.0632
 2640TIP3    H129411   2.329   2.783  11.420  0.7847 -0.1590 -1.8637
 2640TIP3    H229412   2.299   2.929  11.447  0.5424 -0.5158 -0.0725
 2641TIP3   OH229413   0.874   4.138  16.045  0.1625 -0.2771  0.0490
 2641TIP3    H129414   0.818   4.068  16.077 -1.1597  0.2951 -0.9034
 2641TIP3    H229415   0.883   4.197  16.119  0.1924 -0.7917  0.4608
 2642TIP3   OH229416   3.003   3.024  15.369 -0.0193 -0.2373 -0.2995
 2642TIP3    H129417   2.935   3.041  15.304 -1.2199  1.5332  1.3191
 2642TIP3    H229418   3.035   3.110  15.394  1.9114 -0.9732 -0.0301
 2643TIP3   OH229419   1.660   0.746   0.752  0.1919 -0.5129 -0.3481
 2643TIP3    H129420   1.580   0.718   0.797 -0.5773 -0.5331 -1.7040
 2643TIP3    H229421   1.670   0.838   0.778 -0.8745 -0.1945 -1.0118
 2644TIP3   OH229422   0.939   6.668  16.423 -0.5254 -0.6016 -0.0064
 2644TIP3    H129423   0.871   6.601  16.428 -2.2411  1.0297 -0.3700
 2644TIP3    H229424   0.960   6.674  16.330 -1.0629  0.0249 -0.0867
 2645TIP3   OH229425   2.734   6.540  12.538 -0.1577 -0.3691  0.1029
 2645TIP3    H129426   2.753   6.634  12.545 -0.1873 -0.2068 -1.6393
 2645TIP3    H229427   2.638   6.536  12.530 -0.1648 -0.5619  0.2804
 2646TIP3   OH229428   4.563   4.948   3.543  0.5205 -0.2662  1.1323
 2646TIP3    H129429   4.510   4.956   3.623  1.1746 -0.3336  1.5773
 2646TIP3    H229430   4.499   4.953   3.472  0.0052  0.5971  1.6313
 2647TIP3   OH229431   6.591   0.796   2.769  0.3161  0.5655  0.3588
 2647TIP3    H129432   6.565   0.821   2.680  0.7445 -0.2151  0.0015
 2647TIP3    H229433   6.556   0.866   2.825 -2.5099 -0.3709 -0.0618
 2648TIP3   OH229434   3.920   4.919   1.749  0.2871 -0.7753 -0.1199
 2648TIP3    H129435   3.922   4.923   1.653  0.0274  0.1355 -0.0944
 2648TIP3    H229436   3.992   4.976   1.777 -0.8122  0.4932  0.2360
 2649TIP3   OH229437   3.341   0.401  14.679  0.1834 -0.3948 -0.3718
 2649TIP3    H129438   3.417   0.393  14.737  0.6260 -1.4131 -1.0601
 2649TIP3    H229439   3.337   0.494  14.657 -0.1778  0.0654  1.4994
 2650TIP3   OH229440   4.037   0.239  11.056 -0.2348 -0.0473  0.2450
 2650TIP3    H129441   4.068   0.222  10.967 -0.2608  1.1560 -0.0110
 2650TIP3    H229442   3.949   0.274  11.044 -0.0099  0.6853  0.7046
 2651TIP3   OH229443   0.759   2.594   1.456  0.2825  0.3224  0.3397
 2651TIP3    H129444   0.757   2.672   1.401  0.0540  0.2118  0.1902
 2651TIP3    H229445   0.734   2.624   1.543  2.4340  0.8553  0.8317
 2652TIP3   OH229446   5.893   5.526   2.630  0.0283  0.2106 -0.1294
 2652TIP3    H129447   5.942   5.555   2.707 -2.4741  1.8860  0.9605
 2652TIP3    H229448   5.882   5.432   2.643 -2.1510  0.7211  2.8278
 2653TIP3   OH229449   5.677   3.151  11.964 -0.1499  0.1796 -0.2241
 2653TIP3    H129450   5.764   3.121  11.938 -0.4072 -0.6236 -0.1847
 2653TIP3    H229451   5.692   3.209  12.038  0.2652 -0.9845  0.6311
 2654TIP3   OH229452   6.702   5.510  14.124  0.0079 -0.0910 -0.4678
 2654TIP3    H129453   6.643   5.495  14.050 -0.8883  1.0733 -0.0218
 2654TIP3    H229454   6.741   5.596  14.106  0.0235  0.0572  0.2534
 2655TIP3   OH229455   3.927   4.226  14.737 -0.2446 -0.1646 -0.1413
 2655TIP3    H129456   3.867   4.159  14.704  0.8197 -0.5602 -1.3642
 2655TIP3    H229457   3.957   4.193  14.821 -1.7066  0.0378  0.4861
 2656TIP3   OH229458   1.935   2.567  14.181 -0.3425  0.3048  0.2865
 2656TIP3    H129459   2.013   2.605  14.141 -0.7166  0.5176 -0.2692
 2656TIP3    H229460   1.862   2.615  14.140 -0.7525  0.2784  0.9686
 2657TIP3   OH229461   0.155   1.040  16.925  0.2301  0.2325  0.6530
 2657TIP3    H129462   0.222   1.103  16.901 -0.1039  0.5399  0.5295
 2657TIP3    H229463   0.151   1.045  17.020 -0.5615  1.1938  0.5853
 2658TIP3   OH229464   4.947   0.721   3.285 -0.0435 -0.2711  0.5990
 2658TIP3    H129465   4.924   0.757   3.371  1.9724 -2.0677  2.0156
 2658TIP3    H229466   5.010   0.783   3.249  0.7154 -0.5578  1.4070
 2659TIP3   OH229467   1.099   0.282  14.880 -0.2683 -0.1439 -0.1392
 2659TIP3    H129468   1.060   0.249  14.961  1.1474  1.2301  1.1978
 2659TIP3    H229469   1.189   0.249  14.881 -0.6588 -1.3484 -1.9552
 2660TIP3   OH229470   6.656   0.774  13.370  0.1989 -0.4817  0.2645
 2660TIP3    H129471   6.744   0.803  13.394  0.4550 -0.5623 -0.5270
 2660TIP3    H229472   6.606   0.856  13.360  0.2912 -0.4187  0.3191
 2661TIP3   OH229473   0.716   0.251  15.817  0.1534 -0.6874 -0.2463
 2661TIP3    H129474   0.653   0.220  15.752  1.2318 -1.1975 -1.0808
 2661TIP3    H229475   0.801   0.241  15.775  0.7464  0.8931  0.4711
 2662TIP3   OH229476   6.002   0.340   1.984  0.1463 -0.6681  0.2091
 2662TIP3    H129477   6.053   0.411   2.023 -2.4291  1.4431  0.0277
 2662TIP3    H229478   5.980   0.372   1.896 -2.5020 -0.8596  0.7296
 2663TIP3   OH229479   1.070   5.010  16.418  0.7007 -0.4599  0.8101
 2663TIP3    H129480   1.034   4.922  16.407 -1.6866  0.3736  1.2621
 2663TIP3    H229481   1.110   5.008  16.505  1.6302 -1.3755  0.3784
 2664TIP3   OH229482   2.654   2.655  15.078 -0.3247  0.4092  0.2209
 2664TIP3    H129483   2.563   2.624  15.077 -0.7459  1.5836  0.5904
 2664TIP3    H229484   2.671   2.684  14.989 -0.4534  0.6006  0.2597
 2665TIP3   OH229485   1.400   1.327   4.364 -0.3107  0.2879 -0.6571
 2665TIP3    H129486   1.436   1.292   4.283 -0.3662 -1.3900  0.0099
 2665TIP3    H229487   1.476   1.347   4.418 -0.2730 -1.3358 -0.0398
 2666TIP3   OH229488   3.265   1.192   4.048  0.5757  0.9935 -0.1378
 2666TIP3    H129489   3.326   1.266   4.053  1.6438  0.1478 -0.2929
 2666TIP3    H229490   3.227   1.198   3.961 -1.2026  2.7560  0.6953
 2667TIP3   OH229491   0.066   5.783  16.512 -0.2094 -0.4658 -0.0547
 2667TIP3    H129492  -0.008   5.786  16.573 -0.5800 -1.0752 -0.4649
 2667TIP3    H229493   0.027   5.803  16.427  0.7172  3.1194  0.2135
 2668TIP3   OH229494   0.369   4.032  10.438  0.0126 -0.4361 -0.3230
 2668TIP3    H129495   0.370   4.123  10.408 -1.5646 -0.5687 -0.8416
 2668TIP3    H229496   0.387   3.981  10.358  0.4103 -0.6020 -0.1284
 2669TIP3   OH229497   6.812   1.101  13.114  0.1429 -0.2583  0.3791
 2669TIP3    H129498   6.873   1.142  13.175  0.2549 -0.8846  0.7051
 2669TIP3    H229499   6.738   1.073  13.169 -0.1592 -0.0521  0.0852
 2670TIP3   OH229500   0.401   2.113   3.616  0.2636 -0.0681  0.8750
 2670TIP3    H129501   0.439   2.066   3.690  0.3485  1.3420  1.7681
 2670TIP3    H229502   0.306   2.102   3.628  0.2502  0.7345  1.6173
 2671TIP3   OH229503   1.027   4.374   4.943 -0.1858  0.0979 -0.0270
 2671TIP3    H129504   1.038   4.467   4.959  0.3527  0.0016  0.2086
 2671TIP3    H229505   0.936   4.356   4.964 -1.0422  1.0530 -2.6056
 2672TIP3   OH229506   3.617   6.500  17.120 -0.4265 -0.3690 -0.1275
 2672TIP3    H129507   3.631   6.535  17.208 -1.6827 -0.3875  0.1064
 2672TIP3    H229508   3.574   6.415  17.135 -1.2823 -0.0608 -0.7501
 2673TIP3   OH229509   6.783   4.627  13.441 -0.3685  0.1456  0.2918
 2673TIP3    H129510   6.855   4.611  13.502 -0.6308  2.1584  1.1825
 2673TIP3    H229511   6.755   4.717  13.458 -2.2046 -0.1167 -0.9835
 2674TIP3   OH229512   3.053   4.667   2.089  0.0741  0.1898  0.4030
 2674TIP3    H129513   2.975   4.689   2.140 -0.2297  3.3265 -1.1360
 2674TIP3    H229514   3.126   4.696   2.144 -0.1910  2.3244 -0.2651
 2675TIP3   OH229515   2.033   2.651  16.419 -0.8442  0.1929 -0.0685
 2675TIP3    H129516   2.085   2.670  16.497 -0.9008  1.1446 -0.2478
 2675TIP3    H229517   2.097   2.622  16.354 -0.6457  0.5018 -0.0143
 2676TIP3   OH229518   4.418   2.536   0.869 -0.3011 -0.5169 -0.2725
 2676TIP3    H129519   4.393   2.626   0.849  1.5030  0.2958  0.8324
 2676TIP3    H229520   4.423   2.493   0.783  0.4901  0.9307 -1.0041
 2677TIP3   OH229521   6.098   0.542   2.721 -0.4059  0.0244  0.0574
 2677TIP3    H129522   6.154   0.475   2.761  0.5188 -0.1230 -1.3777
 2677TIP3    H229523   6.097   0.613   2.784  0.1957 -0.5771  0.7720
 2678TIP3   OH229524   2.100   0.682  10.676 -0.4722 -0.0971  0.5372
 2678TIP3    H129525   2.032   0.742  10.706 -0.1627 -0.3511  1.8074
 2678TIP3    H229526   2.098   0.610  10.739  1.8096  0.4929  1.3942
 2679TIP3   OH229527   4.497   2.761   1.238 -0.3691  0.2073  0.0827
 2679TIP3    H129528   4.463   2.804   1.160 -3.5691 -1.2333  0.5473
 2679TIP3    H229529   4.516   2.671   1.210 -1.8119 -0.4057  0.9618
 2680TIP3   OH229530   2.641   1.624   3.128  0.3005  0.0564  0.3130
 2680TIP3    H129531   2.713   1.670   3.086 -0.0594  1.1633  0.8760
 2680TIP3    H229532   2.681   1.579   3.203  0.7529 -1.0631 -0.5680
 2681TIP3   OH229533   5.577   2.856   6.349  0.0678 -0.3933  0.5404
 2681TIP3    H129534   5.580   2.783   6.287  2.1750 -1.1048  1.3657
 2681TIP3    H229535   5.489   2.852   6.386 -0.9275 -0.5362 -1.6447
 2682TIP3   OH229536   0.904   6.001  14.193 -0.5459  1.0873  0.6100
 2682TIP3    H129537   0.922   6.095  14.194  0.6145  0.8789  0.3069
 2682TIP3    H229538   0.901   5.976  14.285  1.4720  1.0183  0.6979
 2683TIP3   OH229539   5.902   6.272  14.110  0.1706  0.8564 -0.2194
 2683TIP3    H129540   5.897   6.179  14.133  1.0396  1.2009  1.5573
 2683TIP3    H229541   5.895   6.273  14.014 -1.9409 -0.8498 -0.1644
 2684TIP3   OH229542   3.334   5.576  15.289  0.1911  0.1834  0.0213
 2684TIP3    H129543   3.389   5.524  15.348  0.3337  1.2718  0.8799
 2684TIP3    H229544   3.383   5.657  15.277 -0.3716  0.4227 -0.7123
 2685TIP3   OH229545   3.945   5.101  12.838  0.7005 -0.2316  0.0877
 2685TIP3    H129546   3.992   5.182  12.854 -0.8072  1.1877 -2.1140
 2685TIP3    H229547   3.903   5.114  12.753 -0.2866 -3.0098  0.0423
 2686TIP3   OH229548   0.563   1.521  13.894 -0.0469 -0.0024 -0.2583
 2686TIP3    H129549   0.587   1.523  13.802 -1.2329 -1.0242 -0.6187
 2686TIP3    H229550   0.631   1.469  13.936  0.9636  1.1760 -0.3750
 2687TIP3   OH229551   2.772   6.614   3.426 -0.3279  0.2689 -0.5099
 2687TIP3    H129552   2.776   6.524   3.393 -1.5200 -0.5243  1.3931
 2687TIP3    H229553   2.686   6.646   3.399  0.1218  0.8963 -1.2474
 2688TIP3   OH229554   3.751   1.592  14.508 -0.3648 -0.2934  0.4357
 2688TIP3    H129555   3.665   1.632  14.523 -0.8618 -0.9703 -0.5047
 2688TIP3    H229556   3.745   1.506  14.551 -1.2249 -1.5626 -2.0508
 2689TIP3   OH229557   2.457   4.250   0.127  0.1159  0.2012  0.3451
 2689TIP3    H129558   2.418   4.207   0.051  0.9485  0.2847 -0.1427
 2689TIP3    H229559   2.388   4.307   0.160 -0.4255 -0.2083 -0.0418
 2690TIP3   OH229560   3.546   4.696   0.942  0.1678 -0.1512 -0.1169
 2690TIP3    H129561   3.523   4.636   1.013 -1.7568 -0.2859 -0.8125
 2690TIP3    H229562   3.528   4.783   0.978 -0.8959 -0.2245 -0.4624
 2691TIP3   OH229563   5.252   2.225  14.219  0.6611  0.1409 -0.2413
 2691TIP3    H129564   5.183   2.229  14.153 -0.0652  0.1279  0.5067
 2691TIP3    H229565   5.289   2.138  14.210 -2.7769 -1.8926  2.6363
 2692TIP3   OH229566   2.447   1.383  15.471  0.6168  0.1952  0.2421
 2692TIP3    H129567   2.356   1.388  15.443  0.7447 -1.6322 -0.6614
 2692TIP3    H229568   2.476   1.474  15.474 -1.3755  0.8430  1.1043
 2693TIP3   OH229569   2.936   0.008   0.539 -0.0697  0.6255  0.1462
 2693TIP3    H129570   2.964   0.011   0.631 -0.6121  1.0946  0.3048
 2693TIP3    H229571   2.884   0.088   0.528 -1.0103 -0.0254 -0.2422
 2694TIP3   OH229572   0.099   4.408   2.849 -0.0873 -0.3053  0.4057
 2694TIP3    H129573   0.129   4.390   2.760  0.6092 -0.9835  0.7632
 2694TIP3    H229574   0.107   4.324   2.895 -0.4157  0.0378  1.1178
 2695TIP3   OH229575   5.855   6.130  14.609 -0.5419  0.4258  0.8471
 2695TIP3    H129576   5.800   6.183  14.552 -0.2556  1.2143  1.2935
 2695TIP3    H229577   5.860   6.179  14.691  0.5989  0.2369  0.9100
 2696TIP3   OH229578   3.844   6.388   4.901  0.1667  0.4297  0.0560
 2696TIP3    H129579   3.869   6.305   4.861 -2.6969  0.4413 -2.0508
 2696TIP3    H229580   3.917   6.447   4.881  0.7453 -0.7122 -1.4140
 2697TIP3   OH229581   6.256   3.821  11.558 -0.0984 -0.1154  0.2988
 2697TIP3    H129582   6.199   3.760  11.511 -1.3970  1.6176 -0.5240
 2697TIP3    H229583   6.247   3.796  11.650  0.7443 -2.1793 -0.1344
 2698TIP3   OH229584   0.279   2.099  16.361 -0.2383  0.1334 -0.3347
 2698TIP3    H129585   0.236   2.052  16.290  0.6414 -0.1349 -0.7092
 2698TIP3    H229586   0.233   2.183  16.366 -0.6556 -0.0598 -0.8624
 2699TIP3   OH229587   1.377   1.186   2.159 -0.4788  0.1198  0.2151
 2699TIP3    H129588   1.441   1.187   2.087 -0.5489  0.3077  0.1549
 2699TIP3    H229589   1.332   1.102   2.150 -0.5654  0.1919 -0.0298
 2700TIP3   OH229590   5.122   5.975   2.467  0.5956  0.1910 -0.2290
 2700TIP3    H129591   5.186   6.017   2.410 -1.4698  2.7179 -0.8980
 2700TIP3    H229592   5.174   5.928   2.532  3.0554  0.3894 -1.9397
 2701TIP3   OH229593   1.908   2.362  17.056  0.2380 -0.4921 -0.6023
 2701TIP3    H129594   1.939   2.308  17.128  0.6413 -0.8999 -1.0829
 2701TIP3    H229595   1.873   2.441  17.099 -0.3763 -1.1273  0.1014
 2702TIP3   OH229596   5.315   0.804   2.271 -0.6468 -0.5174  0.5502
 2702TIP3    H129597   5.327   0.785   2.365  0.2077  0.8649  0.7392
 2702TIP3    H229598   5.220   0.817   2.262 -0.6810 -0.1365  1.3264
 2703TIP3   OH229599   2.795   5.102  13.927 -0.1253 -0.3720 -0.4431
 2703TIP3    H129600   2.757   5.147  13.851 -0.4176  0.1998  0.0376
 2703TIP3    H229601   2.818   5.172  13.988 -0.7845 -0.8704  0.4104
 2704TIP3   OH229602   2.878   4.729  14.561  0.2870  0.2663 -0.1114
 2704TIP3    H129603   2.944   4.770  14.616 -0.5499 -0.3127  1.3958
 2704TIP3    H229604   2.796   4.741  14.610 -0.4819 -0.2832 -1.2322
 2705TIP3   OH229605   0.523   4.490  15.888 -0.3799 -0.5999  0.2837
 2705TIP3    H129606   0.561   4.528  15.967 -0.0871 -1.3876  0.5265
 2705TIP3    H229607   0.493   4.566  15.837 -2.2382 -0.1279  1.9665
 2706TIP3   OH229608   0.417   3.853  12.066 -0.3566  0.8105  0.2035
 2706TIP3    H129609   0.508   3.880  12.075  0.1815 -0.7487 -0.3685
 2706TIP3    H229610   0.401   3.852  11.972 -0.4985 -0.3603  0.2249
 2707TIP3   OH229611   3.139   1.129   6.371 -0.2645  0.0091 -0.5144
 2707TIP3    H129612   3.199   1.086   6.432  0.4322  2.4164  0.6029
 2707TIP3    H229613   3.056   1.083   6.383  0.6242 -1.5225  0.0164
 2708TIP3   OH229614   4.631   5.580  16.340  0.2889 -0.5044  0.0501
 2708TIP3    H129615   4.594   5.656  16.386 -1.0261 -0.3787 -1.1256
 2708TIP3    H229616   4.554   5.528  16.315  1.2083 -3.7097  3.1296
 2709TIP3   OH229617   4.333   5.655   2.049 -0.0322 -0.4676 -0.1261
 2709TIP3    H129618   4.239   5.672   2.048 -0.1505 -0.9664  1.2918
 2709TIP3    H229619   4.373   5.738   2.021 -0.8315  0.2397  0.7789
 2710TIP3   OH229620   4.972   4.537  14.973 -0.4354 -0.4013  0.4898
 2710TIP3    H129621   5.064   4.541  14.999 -0.2669 -0.3600 -0.1038
 2710TIP3    H229622   4.965   4.600  14.901 -1.0280 -0.0773  0.8230
 2711TIP3   OH229623   3.310   4.408   1.300 -0.1409  0.2772 -1.0556
 2711TIP3    H129624   3.321   4.314   1.308  1.4935  0.4997 -0.2301
 2711TIP3    H229625   3.240   4.430   1.361  0.2548 -0.2708 -0.3921
 2712TIP3   OH229626   3.427   1.205  15.708 -0.0806  1.0611 -0.1465
 2712TIP3    H129627   3.486   1.148  15.659  1.1423  0.6629  1.6865
 2712TIP3    H229628   3.485   1.255  15.765 -1.5301 -1.0449  3.5093
 2713TIP3   OH229629   1.903   1.631   4.564 -1.0159  0.1471 -0.8816
 2713TIP3    H129630   1.894   1.677   4.481 -2.0722  1.0606 -0.2950
 2713TIP3    H229631   1.894   1.699   4.631 -0.1265 -0.5573 -0.0065
 2714TIP3   OH229632   3.928   4.861  15.748  0.2396  0.5818  0.3679
 2714TIP3    H129633   3.956   4.805  15.675  0.5263  1.4359 -0.1830
 2714TIP3    H229634   3.869   4.805  15.799 -0.2330  0.0768 -0.7043
 2715TIP3   OH229635   0.891   3.529  14.933 -0.3221  0.2093  0.4946
 2715TIP3    H129636   0.840   3.530  14.851 -0.6637 -0.2705  0.6988
 2715TIP3    H229637   0.933   3.615  14.935 -0.8685  0.4931  0.1570
 2716TIP3   OH229638   6.361   6.737   1.626  0.1983 -0.5968 -0.0820
 2716TIP3    H129639   6.431   6.692   1.674  0.9041  2.5111  2.1028
 2716TIP3    H229640   6.408   6.797   1.568 -0.3465  3.3613  3.1936
 2717TIP3   OH229641   1.235   1.702   1.723 -0.2824  0.4239  0.1088
 2717TIP3    H129642   1.256   1.620   1.679  2.1589  1.5341 -1.0504
 2717TIP3    H229643   1.272   1.693   1.811 -2.5381 -0.6968  1.0079
 2718TIP3   OH229644   3.556   2.685  14.657  0.0234 -0.0146 -0.1283
 2718TIP3    H129645   3.604   2.765  14.675 -0.8525  0.8556 -1.4577
 2718TIP3    H229646   3.615   2.634  14.601 -0.3747  0.8620 -1.4028
 2719TIP3   OH229647   3.931   0.472   0.872 -0.6453  0.4379 -0.1116
 2719TIP3    H129648   3.903   0.521   0.950 -0.9255  0.7377 -0.4005
 2719TIP3    H229649   3.858   0.479   0.811 -0.0675  0.9877 -0.7564
 2720TIP3   OH229650   6.042   5.268   4.064 -0.4283  0.6440 -0.5534
 2720TIP3    H129651   6.070   5.314   3.985 -1.9209  0.9708 -0.9053
 2720TIP3    H229652   5.952   5.295   4.078 -0.5276 -0.2198  0.6858
 2721TIP3   OH229653   1.598   3.333   5.642 -0.2845  0.2784 -0.3622
 2721TIP3    H129654   1.589   3.261   5.579  0.7572 -1.3791  1.2775
 2721TIP3    H229655   1.548   3.305   5.718  1.0796  0.7176  0.7433
 2722TIP3   OH229656   2.063   2.122   0.490 -0.1767 -0.0333 -0.0159
 2722TIP3    H129657   2.055   2.046   0.547 -0.7235  1.0909  1.5008
 2722TIP3    H229658   2.131   2.099   0.427  0.3515 -1.3933  1.0182
 2723TIP3   OH229659   0.049   4.074   5.998  0.1170 -0.6155 -0.2079
 2723TIP3    H129660   0.122   4.127   6.031  0.8998 -0.3250 -2.2517
 2723TIP3    H229661  -0.001   4.133   5.943 -0.0908 -1.4959 -0.9970
 2724TIP3   OH229662   3.876   4.609   2.105 -0.6342  0.3176 -0.1604
 2724TIP3    H129663   3.961   4.635   2.070  0.3831 -0.6283  1.4254
 2724TIP3    H229664   3.897   4.570   2.190 -2.5810 -0.7116 -0.0941
 2725TIP3   OH229665   2.878   5.716   2.059 -0.0827 -0.9595 -0.3110
 2725TIP3    H129666   2.952   5.775   2.051  0.1326 -1.1192  0.4561
 2725TIP3    H229667   2.815   5.764   2.113 -1.0037 -0.3878 -1.8310
 2726TIP3   OH229668   5.149   1.824   3.136  0.1372  0.2671  0.4835
 2726TIP3    H129669   5.085   1.806   3.067  0.5412 -0.5115  0.2912
 2726TIP3    H229670   5.102   1.805   3.217  0.4474 -1.5143  0.3002
 2727TIP3   OH229671   6.644   0.409  13.754  0.2627 -0.2904 -0.3344
 2727TIP3    H129672   6.734   0.378  13.762  0.1122 -0.9773 -1.2345
 2727TIP3    H229673   6.646   0.472  13.682  0.0167 -0.3146 -0.3650
 2728TIP3   OH229674   3.268   6.289   2.668 -0.1783  0.4102 -0.1877
 2728TIP3    H129675   3.175   6.296   2.646 -0.1377  1.9109  0.0360
 2728TIP3    H229676   3.313   6.334   2.597  0.3297  0.4531  0.1607
 2729TIP3   OH229677   3.328   5.910  11.524 -0.2422 -0.1880  0.9079
 2729TIP3    H129678   3.236   5.894  11.504 -0.0474  1.5793 -1.8449
 2729TIP3    H229679   3.328   5.930  11.618 -2.3092 -2.2055  1.4449
 2730TIP3   OH229680   5.443   4.758   4.329  0.7146 -0.2041 -0.0685
 2730TIP3    H129681   5.453   4.782   4.237 -1.1271 -2.1335 -0.8644
 2730TIP3    H229682   5.481   4.670   4.335 -0.4708 -0.6950  0.6245
 2731TIP3   OH229683   0.982   0.621  12.686 -0.2270  0.2338 -0.2944
 2731TIP3    H129684   0.939   0.638  12.603 -1.1056  0.8557  0.2688
 2731TIP3    H229685   0.986   0.526  12.693 -0.0316  0.1779 -1.0926
 2732TIP3   OH229686   4.385   0.292   5.106  0.1789 -0.3235 -0.2684
 2732TIP3    H129687   4.331   0.214   5.114 -0.8432  0.2769 -1.0674
 2732TIP3    H229688   4.452   0.269   5.041 -1.1666 -0.0125 -1.8301
 2733TIP3   OH229689   0.692   2.122  10.430 -0.1036  0.1567 -0.1147
 2733TIP3    H129690   0.648   2.093  10.350  0.6492 -0.5101 -0.3032
 2733TIP3    H229691   0.786   2.120  10.409  0.0964  0.1744  0.7160
 2734TIP3   OH229692   6.764   3.883  11.174  0.1026 -0.5049 -0.3740
 2734TIP3    H129693   6.767   3.799  11.219 -0.9694 -0.1697  0.3653
 2734TIP3    H229694   6.793   3.947  11.239 -2.7930  0.1599  0.3919
 2735TIP3   OH229695   0.252   2.814   0.599 -0.1623 -0.2536  0.3435
 2735TIP3    H129696   0.228   2.795   0.508 -0.0316 -0.7906  0.4206
 2735TIP3    H229697   0.251   2.729   0.642 -3.4098  0.3136  1.6357
 2736TIP3   OH229698   4.631   6.004   3.695  0.1467 -1.0311 -0.3286
 2736TIP3    H129699   4.691   5.933   3.676 -0.5350 -1.6082 -0.3642
 2736TIP3    H229700   4.587   5.978   3.776  1.4215  0.3638  0.8631
 2737TIP3   OH229701   4.542   6.602   0.792  0.4308 -0.0208 -0.2720
 2737TIP3    H129702   4.488   6.615   0.714  2.0955 -0.3176 -1.5247
 2737TIP3    H229703   4.545   6.689   0.833  0.1751  0.3206 -0.9599
 2738TIP3   OH229704   3.691   2.820   5.698 -0.0682 -0.1159  0.1223
 2738TIP3    H129705   3.734   2.904   5.681  0.9847 -0.2910  1.7092
 2738TIP3    H229706   3.604   2.831   5.661  0.3277  1.3630 -0.4820
 2739TIP3   OH229707   5.161   5.124   3.449 -0.7010 -0.4342 -0.4320
 2739TIP3    H129708   5.198   5.139   3.362  0.0861  3.2867  0.3765
 2739TIP3    H229709   5.144   5.211   3.483 -0.7614 -1.7339  3.2796
 2740TIP3   OH229710   1.424   4.011  16.814 -0.0176 -0.1404  0.0512
 2740TIP3    H129711   1.458   3.924  16.836  0.4098 -0.7782 -2.7002
 2740TIP3    H229712   1.499   4.057  16.776 -0.4873  1.1214  0.5951
 2741TIP3   OH229713   1.894   3.404  14.475 -0.2087  0.9979 -0.0826
 2741TIP3    H129714   1.926   3.326  14.520  0.6777  1.4265  0.0531
 2741TIP3    H229715   1.914   3.389  14.383  2.0189  1.9846  0.1785
 2742TIP3   OH229716   2.845   1.474   3.912 -0.4941 -0.5328  0.4310
 2742TIP3    H129717   2.858   1.438   3.825  0.1993  0.7549 -0.0200
 2742TIP3    H229718   2.869   1.402   3.971  0.1021 -1.0631 -0.4310
 2743TIP3   OH229719   4.250   2.599   6.227  0.4649 -0.4574  0.5383
 2743TIP3    H129720   4.165   2.614   6.268  0.8439  0.5391  0.9966
 2743TIP3    H229721   4.254   2.504   6.215 -1.4370 -0.3833 -1.1526
 2744TIP3   OH229722   6.107   6.234  16.556 -0.9279  0.3384 -0.1866
 2744TIP3    H129723   6.024   6.282  16.558 -1.5114 -0.6605  0.3187
 2744TIP3    H229724   6.098   6.169  16.626 -0.4775 -1.0374 -1.3731
 2745TIP3   OH229725   5.052   1.533  14.129  0.3318  0.0002 -0.1711
 2745TIP3    H129726   5.048   1.615  14.179  0.5421 -0.5371  0.7399
 2745TIP3    H229727   4.965   1.525  14.089 -0.1752 -0.0597  0.9178
 2746TIP3   OH229728   1.536   4.975   0.261  0.1154 -0.5114  0.6606
 2746TIP3    H129729   1.534   5.051   0.319 -0.6666 -0.2658  0.3336
 2746TIP3    H229730   1.483   5.001   0.185 -2.1349 -2.1295  1.5299
 2747TIP3   OH229731   2.015   5.549   4.033  0.4948  0.0690  0.0317
 2747TIP3    H129732   1.997   5.474   3.976  1.4403 -1.1783  1.2755
 2747TIP3    H229733   1.932   5.595   4.040 -0.7038 -2.0564  0.8405
 2748TIP3   OH229734   1.727   2.677   4.147 -0.0054 -0.3551 -0.4362
 2748TIP3    H129735   1.778   2.714   4.075  1.9317 -4.2298 -1.3246
 2748TIP3    H229736   1.645   2.650   4.107 -0.0224 -0.0963 -0.5778
 2749TIP3   OH229737   4.270   0.559   3.843  1.1401 -0.0828  0.0665
 2749TIP3    H129738   4.337   0.625   3.864 -0.3313  1.1023  1.3252
 2749TIP3    H229739   4.191   0.593   3.885  0.3551 -2.7735  0.9401
 2750TIP3   OH229740   4.825   0.578  11.217  0.4486  0.5821 -0.3206
 2750TIP3    H129741   4.842   0.486  11.239 -3.7090 -0.1894  0.5395
 2750TIP3    H229742   4.749   0.574  11.159 -0.8241  3.5351  1.0085
 2751TIP3   OH229743   4.368   4.029  15.041 -0.4403  0.5483  0.5708
 2751TIP3    H129744   4.375   3.959  14.977  0.7043  0.2105  1.0419
 2751TIP3    H229745   4.442   4.087  15.022 -0.4284  0.7588  1.2024
 2752TIP3   OH229746   1.264   6.621  13.648  0.0865  0.0657  0.0225
 2752TIP3    H129747   1.282   6.555  13.715  0.1289  0.6293  0.5756
 2752TIP3    H229748   1.170   6.614  13.632  0.3027 -0.9765 -0.8315
 2753TIP3   OH229749   2.236   6.662   3.639 -0.0290 -0.4686  0.1379
 2753TIP3    H129750   2.266   6.597   3.576 -0.2484 -0.8148  0.3862
 2753TIP3    H229751   2.317   6.703   3.671  0.0704 -0.1511 -0.5086
 2754TIP3   OH229752   3.011   2.995   4.206  0.1958 -0.4996  0.5208
 2754TIP3    H129753   3.092   2.970   4.248 -0.4916 -2.7001  0.6595
 2754TIP3    H229754   2.985   3.076   4.250  2.1256  0.0922  0.6601
 2755TIP3   OH229755   1.996   2.115  13.906  0.1226 -0.0562  0.0084
 2755TIP3    H129756   2.061   2.064  13.857  1.2733  1.1543  0.2059
 2755TIP3    H229757   1.914   2.068  13.894  0.4442 -0.0610 -2.6966
 2756TIP3   OH229758   5.643   3.980   3.698  0.0054  0.5441  0.1696
 2756TIP3    H129759   5.647   4.055   3.638 -1.3834  0.0027 -0.6420
 2756TIP3    H229760   5.566   3.996   3.752 -0.2685 -0.2716  0.0303
 2757TIP3   OH229761   1.565   1.046  15.010  0.5731  0.4328 -0.3726
 2757TIP3    H129762   1.502   1.093  15.064  0.9518  0.6302 -0.0976
 2757TIP3    H229763   1.554   1.083  14.922  0.0656  0.2215 -0.4011
 2758TIP3   OH229764   6.786   0.328   3.041 -0.0726  0.0072  0.4570
 2758TIP3    H129765   6.878   0.350   3.046 -0.2323  0.9381 -0.3433
 2758TIP3    H229766   6.741   0.402   3.082 -0.5501  0.5810 -1.0314
 2759TIP3   OH229767   6.222   2.113  16.352 -0.2448  0.7677  0.1003
 2759TIP3    H129768   6.302   2.167  16.352  0.1466  0.2026 -0.2773
 2759TIP3    H229769   6.167   2.152  16.420  1.2459 -0.1499  1.9180
 2760TIP3   OH229770   4.281   0.575  12.416  0.5780  0.1254 -0.0759
 2760TIP3    H129771   4.247   0.583  12.327 -0.3611 -1.2077  0.1422
 2760TIP3    H229772   4.375   0.563  12.405  0.6390  1.1314 -0.8154
 2761TIP3   OH229773   4.711   6.245   4.570 -0.0953  0.2988 -0.3067
 2761TIP3    H129774   4.799   6.236   4.535  0.4292  1.8017  0.5164
 2761TIP3    H229775   4.682   6.156   4.587  1.0283 -0.2454 -1.1534
 2762TIP3   OH229776   5.686   3.334  17.138 -0.5504  0.2171 -0.3606
 2762TIP3    H129777   5.774   3.298  17.130 -0.8069  0.0081 -2.9392
 2762TIP3    H229778   5.630   3.256  17.146 -0.5868  0.3178  0.4155
 2763TIP3   OH229779   0.753   6.117   4.128  0.3599  0.2794  0.0364
 2763TIP3    H129780   0.820   6.159   4.182 -0.5354  1.1245  0.5215
 2763TIP3    H229781   0.777   6.024   4.128  0.3650  0.2377  1.9740
 2764TIP3   OH229782   0.666   5.067  15.605  0.5526  0.9888 -0.1407
 2764TIP3    H129783   0.676   4.971  15.604 -0.5051  0.7899  2.1182
 2764TIP3    H229784   0.736   5.098  15.662 -0.1177  1.3756  0.4952
 2765TIP3   OH229785   1.408   6.750   2.967 -0.4224 -0.5893  0.1170
 2765TIP3    H129786   1.323   6.713   2.994 -0.9873  0.2631 -0.4539
 2765TIP3    H229787   1.404   6.842   2.994  0.8143 -0.8131  1.1679
 2766TIP3   OH229788   1.807   5.431   2.749 -0.0703 -0.2144  0.3722
 2766TIP3    H129789   1.729   5.474   2.712  0.6569  0.9264  0.1084
 2766TIP3    H229790   1.877   5.450   2.686  0.4076 -1.3238  0.5476
 2767TIP3   OH229791   6.653   0.705  12.400  0.1856  0.0356  0.0201
 2767TIP3    H129792   6.692   0.742  12.321  2.7367  0.5128  1.3943
 2767TIP3    H229793   6.631   0.615  12.376  0.7911  0.2071 -1.2619
 2768TIP3   OH229794   2.279   4.172  13.188  0.4933 -0.2052 -0.0116
 2768TIP3    H129795   2.352   4.144  13.133  1.3723 -1.0147  1.5065
 2768TIP3    H229796   2.250   4.093  13.232  1.0257  0.6879  2.0608
 2769TIP3   OH229797   2.150   6.662   5.493  0.2544 -0.0165  0.2916
 2769TIP3    H129798   2.133   6.653   5.400 -2.4740 -0.4627  0.7365
 2769TIP3    H229799   2.102   6.590   5.534  0.8708  0.5219  2.0926
 2770TIP3   OH229800   3.689   5.051  16.644  0.0140 -0.3445  0.6333
 2770TIP3    H129801   3.645   5.134  16.626 -2.1968 -1.2112  1.5819
 2770TIP3    H229802   3.745   5.069  16.719  0.5444  0.5790  0.0342
 2771TIP3   OH229803   5.380   5.446   4.840  0.4097 -0.3921  0.3218
 2771TIP3    H129804   5.338   5.367   4.874  1.5612 -0.7934  0.8602
 2771TIP3    H229805   5.405   5.496   4.917  0.7093 -0.0529  0.0119
 2772TIP3   OH229806   1.586   6.367  12.513 -0.0149 -0.4516  0.4622
 2772TIP3    H129807   1.533   6.311  12.456  0.6508 -1.5622  0.8992
 2772TIP3    H229808   1.522   6.419  12.561 -0.6375 -0.5485 -0.2386
 2773TIP3   OH229809   2.553   4.700   0.073 -0.0234  0.1682 -0.0086
 2773TIP3    H129810   2.520   4.638   0.138 -0.6197  1.7762  1.2704
 2773TIP3    H229811   2.517   4.669  -0.010 -3.9932  1.2000  1.1351
 2774TIP3   OH229812   5.844   5.321  14.656  0.1242 -0.1787  0.2047
 2774TIP3    H129813   5.787   5.349  14.728 -2.1168  0.8137 -1.7857
 2774TIP3    H229814   5.871   5.403  14.615 -0.0118 -0.7371 -1.0379
 2775TIP3   OH229815   1.283   0.529  14.472 -0.7527  0.1642 -0.0162
 2775TIP3    H129816   1.331   0.612  14.475 -2.4575  1.1871  0.5357
 2775TIP3    H229817   1.250   0.518  14.562 -0.0133 -1.4737  0.0927
 2776TIP3   OH229818   3.256   1.202  16.018 -0.1074  0.0598 -0.2200
 2776TIP3    H129819   3.282   1.288  15.984  0.9048 -0.9899 -2.2892
 2776TIP3    H229820   3.193   1.169  15.954 -0.5415 -0.7048  0.5844
 2777TIP3   OH229821   4.351   6.712  12.851  0.0014 -0.2654  0.2116
 2777TIP3    H129822   4.333   6.653  12.777 -1.0288  0.7015 -0.3315
 2777TIP3    H229823   4.272   6.764  12.860  0.4197  0.1791  1.5120
 2778TIP3   OH229824   0.008   5.472   3.824 -0.8762  0.5174  0.2697
 2778TIP3    H129825  -0.038   5.405   3.773  0.6429  0.5293 -1.2207
 2778TIP3    H229826  -0.061   5.514   3.875 -2.0179 -1.5379  0.5481
 2779TIP3   OH229827   0.019   1.831  15.895  0.1549  0.3625  0.5219
 2779TIP3    H129828   0.069   1.888  15.837  1.0572 -0.4517  0.4700
 2779TIP3    H229829   0.066   1.747  15.893  0.7104  0.5398  3.0813
 2780TIP3   OH229830   6.156   2.113  17.020  0.1162  0.2515 -0.0238
 2780TIP3    H129831   6.250   2.096  17.012  0.1590  0.6873 -0.5132
 2780TIP3    H229832   6.148   2.177  17.090  0.1602 -0.0087  0.2174
 2781TIP3   OH229833   2.702   4.511  11.436  0.4485 -0.1280 -0.2122
 2781TIP3    H129834   2.760   4.560  11.494 -0.6595  0.0172  0.8157
 2781TIP3    H229835   2.731   4.534  11.347  1.3102  0.7078  0.2684
 2782TIP3   OH229836   6.674   3.210   3.157  0.1575 -0.0138 -0.2629
 2782TIP3    H129837   6.722   3.215   3.074 -0.8962  0.2448 -0.8734
 2782TIP3    H229838   6.592   3.257   3.140  0.0029  0.2057  0.9872
 2783TIP3   OH229839   5.331   5.421  10.921  0.5502  0.3902  0.4081
 2783TIP3    H129840   5.313   5.384  10.835  0.9882  2.1887 -0.4986
 2783TIP3    H229841   5.245   5.429  10.962  0.1085  1.3547 -0.6682
 2784TIP3   OH229842   2.718   5.831   2.739 -0.1019 -0.2676  0.0107
 2784TIP3    H129843   2.667   5.750   2.734  0.5506 -0.6879  0.0768
 2784TIP3    H229844   2.806   5.806   2.712  0.2415  0.3009  0.5756
 2785TIP3   OH229845   3.224   1.891   6.836 -0.4046  0.0182 -0.2759
 2785TIP3    H129846   3.231   1.898   6.741 -1.4208 -2.0218 -0.5739
 2785TIP3    H229847   3.297   1.834   6.861  0.7009  1.6682  0.3899
 2786TIP3   OH229848   6.787   2.510   5.294  0.0859  0.3122  0.2217
 2786TIP3    H129849   6.737   2.480   5.219 -0.8324  1.0714  0.5073
 2786TIP3    H229850   6.803   2.431   5.346 -1.6200  0.1597  0.5763
 2787TIP3   OH229851   5.491   5.128  12.539  0.0460  0.4116 -0.2513
 2787TIP3    H129852   5.508   5.142  12.445 -0.9804 -0.0861 -0.5251
 2787TIP3    H229853   5.515   5.037  12.555  0.3140  0.5235  0.0040
 2788TIP3   OH229854   1.434   4.489  10.899  0.8222  0.2966 -0.2786
 2788TIP3    H129855   1.456   4.576  10.866 -1.4981  0.6021 -1.2270
 2788TIP3    H229856   1.397   4.505  10.986  1.0134  0.1769 -0.1740
 2789TIP3   OH229857   3.368   5.161   0.089 -0.1014 -0.1876  0.1399
 2789TIP3    H129858   3.390   5.193   0.002 -1.9799 -1.4261 -0.8255
 2789TIP3    H229859   3.341   5.070   0.077  0.0324 -0.5433  2.0821
 2790TIP3   OH229860   1.413   0.488  15.489  0.1471  0.0171  0.8791
 2790TIP3    H129861   1.338   0.429  15.477 -0.3286  0.3620  2.0001
 2790TIP3    H229862   1.472   0.440  15.547  0.3292  0.1436  0.7964
 2791TIP3   OH229863   5.451   5.600   2.920 -0.3962 -0.0529  0.0856
 2791TIP3    H129864   5.527   5.543   2.920  0.7491  1.3690 -1.5905
 2791TIP3    H229865   5.438   5.623   3.012  1.4091 -0.0771  0.3740
 2792TIP3   OH229866   4.099   4.853   1.502  0.3564  0.3832  0.7952
 2792TIP3    H129867   4.087   4.884   1.412 -0.7679  0.3433  0.9155
 2792TIP3    H229868   4.178   4.897   1.533  0.6601  0.5223 -0.1538
 2793TIP3   OH229869   0.725   3.264   5.604  0.3005  0.1039  0.0065
 2793TIP3    H129870   0.819   3.261   5.584  0.5809  0.3511  1.2210
 2793TIP3    H229871   0.685   3.300   5.524  0.7665 -3.2724 -1.9604
 2794TIP3   OH229872   1.237   1.271  14.204 -0.0540  0.7773  0.0545
 2794TIP3    H129873   1.180   1.313  14.140  0.4139  0.7580 -0.3799
 2794TIP3    H229874   1.309   1.333  14.216 -0.3539  0.9750  0.8883
 2795TIP3   OH229875   4.441   1.717   1.762 -0.1749  0.4579 -0.1130
 2795TIP3    H129876   4.434   1.794   1.707  1.5045  0.7838  0.0942
 2795TIP3    H229877   4.427   1.643   1.702  0.2043  0.8572 -0.7030
 2796TIP3   OH229878   0.504   2.044   2.186 -0.0999 -0.0090 -0.0104
 2796TIP3    H129879   0.486   2.071   2.096 -1.6635 -0.3003  0.1729
 2796TIP3    H229880   0.530   1.952   2.178 -0.0182  0.0275 -0.1831
 2797TIP3   OH229881   1.696   5.189   2.618  0.1009 -0.2743 -0.1949
 2797TIP3    H129882   1.702   5.258   2.684  1.0221  1.5098 -2.0561
 2797TIP3    H229883   1.604   5.163   2.619 -0.6883  2.2449 -0.6397
 2798TIP3   OH229884   1.066   1.136   3.105  0.3852  1.1645  0.0867
 2798TIP3    H129885   0.973   1.130   3.125  1.0621 -0.0743  3.5400
 2798TIP3    H229886   1.100   1.198   3.168  2.1328  0.5184 -0.1580
 2799TIP3   OH229887   3.385   1.427   4.075  0.2661  0.5516 -0.0946
 2799TIP3    H129888   3.426   1.485   4.011  2.2814  0.0534  0.6704
 2799TIP3    H229889   3.344   1.486   4.139  1.0458  1.1064 -0.0998
 2800TIP3   OH229890   3.855   5.721   5.165  0.1956 -0.1117  1.0217
 2800TIP3    H129891   3.788   5.742   5.100 -1.3493 -1.3048  2.1224
 2800TIP3    H229892   3.902   5.647   5.127  1.3248  1.0869 -0.0057
 2801TIP3   OH229893   0.994   4.611   2.031  0.4116  0.0073  0.0549
 2801TIP3    H129894   0.963   4.698   2.005  2.7860  0.7922 -0.3898
 2801TIP3    H229895   0.963   4.600   2.121 -0.3515  1.0856 -0.0548
 2802TIP3   OH229896   5.737   2.288   4.526  0.2721 -0.6039 -0.1101
 2802TIP3    H129897   5.644   2.277   4.548 -0.2212  3.0396  0.1791
 2802TIP3    H229898   5.777   2.317   4.608  1.2676 -0.2535 -0.7085
 2803TIP3   OH229899   3.711   1.041   1.691 -0.0842 -0.2976  0.2697
 2803TIP3    H129900   3.636   1.027   1.633 -0.1314 -0.0926  0.2808
 2803TIP3    H229901   3.778   0.981   1.659  0.0950  0.2293 -0.3646
 2804TIP3   OH229902   1.780   6.041   4.999 -0.7059  0.3941 -0.4209
 2804TIP3    H129903   1.704   6.012   4.949 -1.1969  0.6349  0.1608
 2804TIP3    H229904   1.853   6.038   4.938 -0.6300 -2.4477 -0.2903
 2805TIP3   OH229905   3.505   0.969  10.660 -0.4183  0.2083  0.1796
 2805TIP3    H129906   3.461   0.885  10.644 -2.0541  1.1625 -0.5598
 2805TIP3    H229907   3.434   1.033  10.661  0.8387  1.6452  0.3686
 2806TIP3   OH229908   0.693   3.262  15.632 -0.0517 -0.4904  0.6493
 2806TIP3    H129909   0.672   3.267  15.539 -0.2833 -3.0550  0.4888
 2806TIP3    H229910   0.622   3.310  15.675  0.7287  1.8243 -0.4879
 2807TIP3   OH229911   1.103   4.321  13.924  0.1551  1.1819 -0.1689
 2807TIP3    H129912   1.073   4.404  13.961 -0.1557  1.4582 -1.0050
 2807TIP3    H229913   1.034   4.297  13.862 -0.2203 -0.1922  0.7384
 2808TIP3   OH229914   2.231   2.978  13.755  0.1680 -0.3916  0.1307
 2808TIP3    H129915   2.159   2.930  13.713 -0.9091  0.6186  0.7700
 2808TIP3    H229916   2.310   2.942  13.714 -0.6793 -1.6118 -0.5091
 2809TIP3   OH229917   5.593   5.140   3.304  0.6960  0.4733 -0.3205
 2809TIP3    H129918   5.645   5.130   3.224 -0.3004 -1.3384 -0.7912
 2809TIP3    H229919   5.562   5.052   3.324  0.1476  1.0427  1.5585
 2810TIP3   OH229920   4.504   2.292   2.687  0.1588 -0.1682 -0.2578
 2810TIP3    H129921   4.590   2.310   2.725 -0.1244 -0.8736  0.7218
 2810TIP3    H229922   4.454   2.371   2.705  0.6734  0.3715 -1.0975
 2811TIP3   OH229923   5.079   3.987  15.735 -0.5659 -0.0813  0.2806
 2811TIP3    H129924   5.039   3.959  15.817  0.3536 -0.3181  0.6613
 2811TIP3    H229925   5.070   4.082  15.734 -2.8302 -0.2349 -0.5538
 2812TIP3   OH229926   4.990   5.260  16.118  0.1177  0.0734  0.2806
 2812TIP3    H129927   4.964   5.248  16.209  1.5747 -0.0240  0.7146
 2812TIP3    H229928   5.067   5.317  16.122 -0.1403  0.5417 -0.9366
 2813TIP3   OH229929   5.809   2.706  13.075  0.3561 -0.4033 -0.0405
 2813TIP3    H129930   5.886   2.653  13.097  1.6117  1.0355 -0.7661
 2813TIP3    H229931   5.787   2.751  13.157  1.7771  0.9459 -0.3385
 2814TIP3   OH229932   3.107   2.068  15.681  0.0413  0.2964 -0.4419
 2814TIP3    H129933   3.135   2.000  15.743  0.1962  0.6292 -0.1412
 2814TIP3    H229934   3.065   2.134  15.736 -0.8371  0.0672 -0.8294
 2815TIP3   OH229935   2.884   1.274  13.348  0.0806 -0.0945  0.9734
 2815TIP3    H129936   2.962   1.291  13.295  0.7685  0.4506  2.1180
 2815TIP3    H229937   2.877   1.178  13.351 -0.3925 -0.1394 -0.6577
 2816TIP3   OH229938   6.085   2.422   3.406 -0.2135 -0.4418  0.2340
 2816TIP3    H129939   6.067   2.481   3.333 -0.8665 -0.5214  0.3293
 2816TIP3    H229940   6.021   2.446   3.473 -1.0993 -1.8519 -0.0647
 2817TIP3   OH229941   3.291   3.319   1.121  0.3070 -0.6958  0.0445
 2817TIP3    H129942   3.219   3.342   1.062  0.9521 -1.5359 -1.1217
 2817TIP3    H229943   3.299   3.394   1.180  0.6971  0.9615 -1.9793
 2818TIP3   OH229944   3.220   6.773   0.451 -0.0542  0.0722  0.2389
 2818TIP3    H129945   3.134   6.773   0.494 -0.6571  2.4517 -0.8150
 2818TIP3    H229946   3.221   6.693   0.398 -1.0296 -0.6770  1.2976
 2819TIP3   OH229947   1.333   2.832   3.565  0.0721 -0.2588 -0.2800
 2819TIP3    H129948   1.400   2.878   3.514  0.1446 -0.2804 -0.2045
 2819TIP3    H229949   1.382   2.788   3.634 -0.0998  0.3589  0.2458
 2820TIP3   OH229950   4.370   1.001  12.391 -0.0541 -0.4410  0.4586
 2820TIP3    H129951   4.283   0.964  12.377 -0.9116  1.6674 -0.1708
 2820TIP3    H229952   4.372   1.025  12.484 -0.7115  0.7817  0.1758
 2821TIP3   OH229953   3.729   3.019  13.061 -0.2894  0.2402  0.1495
 2821TIP3    H129954   3.812   3.013  13.108  0.7521 -2.2165 -1.7985
 2821TIP3    H229955   3.662   3.026  13.129  1.3037 -0.9336  1.8985
 2822TIP3   OH229956   4.524   4.984   6.695  0.4074  0.3426  0.1339
 2822TIP3    H129957   4.457   4.923   6.725 -0.3531  1.0073 -0.1950
 2822TIP3    H229958   4.509   5.064   6.745  0.3092  0.8292 -0.6594
 2823TIP3   OH229959   1.004   4.059  11.026  0.1235  0.6046 -0.0183
 2823TIP3    H129960   1.077   4.006  10.995 -1.5966 -1.8867 -0.1163
 2823TIP3    H229961   0.969   4.100  10.947  0.4402  0.5448 -0.1915
 2824TIP3   OH229962   5.584   6.206   1.194 -0.1788 -0.6612 -0.2200
 2824TIP3    H129963   5.567   6.249   1.110  0.1200 -1.3762 -0.6673
 2824TIP3    H229964   5.543   6.262   1.259 -1.4058 -0.6772 -0.9474
 2825TIP3   OH229965   4.336   0.648  15.876  0.8427 -0.3174  0.0276
 2825TIP3    H129966   4.256   0.691  15.905  0.5064 -0.0583 -1.2199
 2825TIP3    H229967   4.405   0.714  15.888  0.1363  1.1583 -3.0943
 2826TIP3   OH229968   5.926   1.451   0.218  0.0818  0.6278 -0.3863
 2826TIP3    H129969   6.008   1.500   0.219 -0.1250  1.2557 -3.6694
 2826TIP3    H229970   5.933   1.394   0.141 -1.9412 -0.5111  0.1885
 2827TIP3   OH229971   6.397   0.943   4.971 -0.2391 -0.5518  0.3792
 2827TIP3    H129972   6.428   0.960   5.060  2.0929 -1.2030 -0.2382
 2827TIP3    H229973   6.474   0.910   4.924 -1.8693 -2.1130 -1.3810
 2828TIP3   OH229974   5.620   1.312  15.531  0.1670 -0.0766 -0.2898
 2828TIP3    H129975   5.587   1.385  15.583 -2.1099 -2.6522  2.2176
 2828TIP3    H229976   5.556   1.303  15.460  1.1366  1.0262 -1.3544
 2829TIP3   OH229977   3.184   4.529  15.716  0.2956 -0.5844  0.1372
 2829TIP3    H129978   3.106   4.580  15.740  0.8234  0.9682 -1.2782
 2829TIP3    H229979   3.229   4.515  15.799 -0.8474 -0.4393  0.8106
 2830TIP3   OH229980   1.942   1.410   3.189  0.3939  0.2235 -0.2501
 2830TIP3    H129981   1.981   1.489   3.228  0.4002 -0.9089  2.1897
 2830TIP3    H229982   1.996   1.394   3.111 -0.4410  3.3244 -1.6251
 2831TIP3   OH229983   5.422   1.870   3.225 -0.6022 -0.2839 -0.2582
 2831TIP3    H129984   5.336   1.836   3.200 -1.9123  1.9306  0.8927
 2831TIP3    H229985   5.442   1.827   3.308 -0.2123 -1.3846 -0.9117
 2832TIP3   OH229986   1.197   4.257  16.735  0.3934 -0.2559 -0.0415
 2832TIP3    H129987   1.273   4.225  16.689  1.1710  0.6144  0.5980
 2832TIP3    H229988   1.139   4.181  16.742  1.0298 -0.8287 -0.8602
 2833TIP3   OH229989   1.673   1.630  13.638 -0.0126 -0.4394 -0.4417
 2833TIP3    H129990   1.635   1.640  13.726  0.6053 -0.3625 -0.1763
 2833TIP3    H229991   1.765   1.655  13.649 -0.3363  1.3990 -1.5047
 2834TIP3   OH229992   1.857   0.205   0.179 -0.3730 -0.0592 -0.0770
 2834TIP3    H129993   1.841   0.129   0.235  0.3409  0.4303  0.8235
 2834TIP3    H229994   1.921   0.175   0.115 -0.6592 -0.4273 -0.1918
 2835TIP3   OH229995   5.743   2.843   4.630 -0.4844 -0.3467 -0.0505
 2835TIP3    H129996   5.766   2.935   4.614  0.5940 -0.6610 -0.3892
 2835TIP3    H229997   5.700   2.815   4.549  0.8682 -0.6513 -0.6837
 2836TIP3   OH229998   0.553   2.739  14.987  0.3151  0.1464 -0.3409
 2836TIP3    H129999   0.537   2.791  15.067  0.0540 -0.7849  0.2262
 2836TIP3    H230000   0.467   2.731  14.946  0.2123 -0.4827 -0.0160
 2837TIP3   OH230001   0.215   2.860   3.630 -0.7477  0.1476 -0.3461
 2837TIP3    H130002   0.293   2.911   3.608  1.9550 -2.1860  2.7541
 2837TIP3    H230003   0.144   2.923   3.627  1.1816  2.5124 -3.0675
 2838TIP3   OH230004   3.455   2.695  15.129  0.0391 -0.1172  0.2908
 2838TIP3    H130005   3.516   2.632  15.166  1.0900  0.8357  0.2177
 2838TIP3    H230006   3.502   2.734  15.055 -0.4861  0.9447  0.5019
 2839TIP3   OH230007   6.203   0.637  12.461  0.0095 -0.1949  0.6551
 2839TIP3    H130008   6.268   0.603  12.524 -1.3424 -1.4793  1.4139
 2839TIP3    H230009   6.247   0.711  12.420  1.8449 -0.8119  1.3737
 2840TIP3   OH230010   5.264   0.799  12.349 -0.4997 -0.4575 -0.7811
 2840TIP3    H130011   5.352   0.772  12.323  1.2976  2.0099  2.0971
 2840TIP3    H230012   5.251   0.883  12.306 -1.0311 -0.3316 -0.3777
 2841TIP3   OH230013   1.680   6.532   3.532 -0.1069 -0.2383 -0.7428
 2841TIP3    H130014   1.718   6.586   3.463  1.1516 -1.1189 -0.7838
 2841TIP3    H230015   1.755   6.500   3.582 -0.9120 -0.7231  0.2004
 2842TIP3   OH230016   1.938   4.235  12.816  0.0196  0.4031 -0.0355
 2842TIP3    H130017   1.916   4.290  12.891  0.6303 -0.3078  0.6783
 2842TIP3    H230018   2.027   4.261  12.793  0.9968 -1.4772  1.4276
 2843TIP3   OH230019   3.786   6.653  12.393 -0.1876 -0.4914  0.2975
 2843TIP3    H130020   3.820   6.566  12.416  1.3281  0.0137  0.0897
 2843TIP3    H230021   3.862   6.710  12.400 -0.8901  0.6056 -0.7936
 2844TIP3   OH230022   0.574   3.279  16.450 -0.2159 -0.1310 -0.3087
 2844TIP3    H130023   0.522   3.311  16.376 -0.2894 -0.0455 -0.2229
 2844TIP3    H230024   0.550   3.187  16.458  0.5690 -0.4096 -1.0375
 2845TIP3   OH230025   6.028   3.658   6.037 -0.1611 -0.3221 -0.5191
 2845TIP3    H130026   6.049   3.697   6.121 -0.3781  0.4898 -0.8259
 2845TIP3    H230027   5.968   3.587   6.057 -1.5301  0.9054 -0.1102
 2846TIP3   OH230028   3.290   6.347  10.958  0.4384  0.2611 -0.1746
 2846TIP3    H130029   3.315   6.370  10.868  2.4099 -0.4259  0.1344
 2846TIP3    H230030   3.256   6.258  10.952 -0.1491  0.4903 -0.3274
 2847TIP3   OH230031   1.356   1.433  14.967 -0.1416  0.4551  0.2650
 2847TIP3    H130032   1.342   1.478  15.050  0.2548  1.6410 -0.2934
 2847TIP3    H230033   1.387   1.501  14.907 -0.7892 -0.2938 -0.9685
 2848TIP3   OH230034   5.734   3.731   5.529  0.0353 -0.3418  0.3048
 2848TIP3    H130035   5.826   3.756   5.540 -0.1781  0.5119  0.2159
 2848TIP3    H230036   5.738   3.641   5.497  0.8547 -0.1316 -0.2191
 2849TIP3   OH230037   2.286   2.452  12.839  0.2960 -0.4168  0.2572
 2849TIP3    H130038   2.238   2.372  12.861  1.1695 -0.8341  0.7045
 2849TIP3    H230039   2.320   2.435  12.751  3.2549 -1.9779  1.5445
 2850TIP3   OH230040   3.522   2.251  12.940  0.2497  0.0944  0.6257
 2850TIP3    H130041   3.426   2.251  12.943  0.2134  0.2609 -0.3807
 2850TIP3    H230042   3.547   2.175  12.994 -0.5184 -0.9831 -0.4655
 2851TIP3   OH230043   3.195   5.173  17.048 -0.2080 -0.7236  0.5124
 2851TIP3    H130044   3.169   5.233  17.119 -2.0761  0.4918 -1.0881
 2851TIP3    H230045   3.280   5.206  17.020 -0.3316 -0.0181  0.9326
 2852TIP3   OH230046   6.352   3.694  15.644 -0.0289  0.6958  0.5149
 2852TIP3    H130047   6.292   3.709  15.571  0.8377 -0.5961 -0.5137
 2852TIP3    H230048   6.404   3.774  15.650  0.2242  0.6258 -0.6276
 2853TIP3   OH230049   2.578   1.897   1.217  0.1952 -0.0828  0.0522
 2853TIP3    H130050   2.609   1.865   1.133  0.6975  0.9686 -0.1801
 2853TIP3    H230051   2.640   1.861   1.281 -1.3954 -2.6626  0.2775
 2854TIP3   OH230052   3.873   0.791   0.468 -0.2762  0.0466  0.0120
 2854TIP3    H130053   3.926   0.756   0.539  0.6271 -1.4039 -1.2920
 2854TIP3    H230054   3.897   0.738   0.392 -0.7158  1.9466 -1.5402
 2855TIP3   OH230055   3.201   2.624   2.330  0.0671  0.7760  0.4318
 2855TIP3    H130056   3.170   2.636   2.420 -2.1723 -1.2298  0.0280
 2855TIP3    H230057   3.273   2.562   2.338  0.3927  1.2028  0.8994
 2856TIP3   OH230058   3.525   4.645   5.840  0.1320 -0.2156 -0.1869
 2856TIP3    H130059   3.506   4.735   5.813 -1.9922 -0.1826  1.1400
 2856TIP3    H230060   3.568   4.605   5.764  1.4363  1.9833 -0.6659
 2857TIP3   OH230061   2.135   0.046   5.816  0.4852 -0.0010  0.3969
 2857TIP3    H130062   2.180   0.128   5.795  0.4656 -0.3159 -0.9612
 2857TIP3    H230063   2.204  -0.012   5.849  0.3492  0.8240  2.2457
 2858TIP3   OH230064   5.627   6.065   2.437  0.1747 -0.2550 -0.8546
 2858TIP3    H130065   5.698   6.080   2.499  0.0211 -1.1364 -0.4444
 2858TIP3    H230066   5.658   5.994   2.381  0.5917  1.0045 -2.2626
 2859TIP3   OH230067   5.894   0.855  12.711  0.0212  0.2965 -0.4458
 2859TIP3    H130068   5.847   0.778  12.743 -0.8051  1.2419  0.7116
 2859TIP3    H230069   5.967   0.866  12.772 -0.2048  0.7702 -0.2583
 2860TIP3   OH230070   1.035   1.351  12.643 -0.3532  0.4235  0.2819
 2860TIP3    H130071   1.018   1.309  12.559 -0.3838 -0.6666  0.8054
 2860TIP3    H230072   1.105   1.413  12.626 -1.3975  1.3374 -0.8578
 2861TIP3   OH230073   6.779   5.073  13.893  0.0776  0.0364 -0.1578
 2861TIP3    H130074   6.733   4.997  13.929 -1.0980  0.7058 -0.1746
 2861TIP3    H230075   6.782   5.136  13.966 -1.1345  0.8886 -0.8029
 2862TIP3   OH230076   6.620   2.684  14.808 -0.2184  0.7134  0.0885
 2862TIP3    H130077   6.616   2.634  14.727 -1.1554  0.7994  0.0636
 2862TIP3    H230078   6.710   2.714  14.814 -0.0955  0.5484 -0.8251
 2863TIP3   OH230079   2.028   6.272  12.599 -0.0068 -0.3107 -0.4420
 2863TIP3    H130080   1.940   6.237  12.585  0.5564 -0.9802 -2.7247
 2863TIP3    H230081   2.017   6.367  12.596 -0.8765 -0.3210  1.1781
 2864TIP3   OH230082   6.453   5.256  14.552  0.1320 -0.0386 -0.8174
 2864TIP3    H130083   6.484   5.244  14.463 -0.5437  0.2526 -1.1031
 2864TIP3    H230084   6.361   5.227  14.549  0.0114  0.2783 -0.2987
 2865TIP3   OH230085   5.866   2.611   5.896 -0.7273 -0.1084 -0.4112
 2865TIP3    H130086   5.875   2.518   5.876  0.6729  0.4985 -2.9881
 2865TIP3    H230087   5.773   2.629   5.879 -1.4234 -1.2822  1.7084
 2866TIP3   OH230088   0.771   0.378   1.009 -0.1463 -0.2124 -0.2704
 2866TIP3    H130089   0.776   0.459   0.959  1.3984  0.2110  0.5184
 2866TIP3    H230090   0.681   0.376   1.043 -0.1647  1.2371 -0.1843
 2867TIP3   OH230091   3.934   5.899   1.991  0.2645  0.1868 -0.5642
 2867TIP3    H130092   3.986   5.823   2.017  0.5825 -0.3511 -2.6049
 2867TIP3    H230093   3.859   5.862   1.944 -0.2398  1.0846 -0.4820
 2868TIP3   OH230094   2.190   3.236   1.525  0.8724 -0.0173 -0.0099
 2868TIP3    H130095   2.181   3.163   1.464 -1.0640  0.4864 -0.4120
 2868TIP3    H230096   2.174   3.314   1.471 -2.1490  0.3862  1.2400
 2869TIP3   OH230097   4.261   4.868  14.538  0.3697  0.3976 -0.0502
 2869TIP3    H130098   4.291   4.796  14.593 -1.7493 -0.5739 -0.0647
 2869TIP3    H230099   4.242   4.939  14.599 -0.3375 -0.0857  0.3024
 2870TIP3   OH230100   0.227   2.574  16.706  0.0097  0.0108 -0.3675
 2870TIP3    H130101   0.254   2.483  16.701 -0.0231 -0.0366  0.2253
 2870TIP3    H230102   0.208   2.599  16.615  0.1693 -0.5212 -0.5489
 2871TIP3   OH230103   0.476   1.916   5.744  0.1847 -0.1275 -0.3604
 2871TIP3    H130104   0.424   1.996   5.751 -1.5633 -1.1809 -0.8213
 2871TIP3    H230105   0.475   1.894   5.651  3.0100  0.7577 -0.7009
 2872TIP3   OH230106   2.525   4.665   3.217 -0.5893  0.4664  0.3087
 2872TIP3    H130107   2.529   4.721   3.140 -0.3093  1.1685  0.8296
 2872TIP3    H230108   2.588   4.702   3.278 -1.5030  0.5020  1.2604
 2873TIP3   OH230109   1.821   5.300  12.557  0.2117 -0.0292  0.6494
 2873TIP3    H130110   1.907   5.290  12.597  0.3437  0.7657  0.5735
 2873TIP3    H230111   1.836   5.354  12.480 -0.5432  1.2089  1.3456
 2874TIP3   OH230112   4.184   1.068  17.183  0.1923  0.0289  0.0335
 2874TIP3    H130113   4.093   1.061  17.213  0.1162  0.5668 -0.0740
 2874TIP3    H230114   4.208   1.159  17.199  1.0140 -0.3259  0.9032
 2875TIP3   OH230115   4.864   2.028   1.768 -0.8046 -0.0366 -0.3073
 2875TIP3    H130116   4.820   2.028   1.853 -1.3570 -0.7981 -0.5856
 2875TIP3    H230117   4.808   1.974   1.712  0.9166 -1.8341 -0.4189
 2876TIP3   OH230118   4.639   0.896   1.887  0.3988  0.0620  0.3435
 2876TIP3    H130119   4.671   0.944   1.810  0.8481  0.2480  0.6453
 2876TIP3    H230120   4.647   0.804   1.861 -0.3529  0.1390 -0.1906
 2877TIP3   OH230121   1.169   2.177   5.724 -0.2567 -0.4600  0.2084
 2877TIP3    H130122   1.243   2.118   5.741 -1.2009 -1.9541 -0.5951
 2877TIP3    H230123   1.125   2.139   5.648 -0.9055  1.3415 -0.3739
 2878TIP3   OH230124   5.662   1.639  11.277  0.0613  0.5303  0.4415
 2878TIP3    H130125   5.684   1.559  11.324 -2.4401 -0.2762  0.4320
 2878TIP3    H230126   5.683   1.620  11.186  0.0932  0.1102  0.5352
 2879TIP3   OH230127   1.884   2.548   5.315 -0.1142  0.2347  0.1744
 2879TIP3    H130128   1.940   2.589   5.248  0.6966  1.2606  1.4276
 2879TIP3    H230129   1.861   2.463   5.278  1.1263  0.3691 -0.9938
 2880TIP3   OH230130   4.943   5.832   2.814  0.0297  0.4192  0.4062
 2880TIP3    H130131   4.939   5.835   2.910  0.3058 -3.2800  0.6858
 2880TIP3    H230132   5.020   5.777   2.796 -0.8967 -0.2188 -1.8788
 2881TIP3   OH230133   4.888   6.157   0.040  0.0172  0.2869 -0.9085
 2881TIP3    H130134   4.847   6.217   0.103 -0.3623 -1.7977  0.9375
 2881TIP3    H230135   4.944   6.214  -0.013 -1.6699  2.5233 -0.4508
 2882TIP3   OH230136   6.391   6.667  14.584 -0.0657 -0.0504 -0.7789
 2882TIP3    H130137   6.457   6.677  14.515  0.9285 -0.5165  0.0651
 2882TIP3    H230138   6.418   6.729  14.652 -0.2955 -0.4899 -0.2822
 2883TIP3   OH230139   5.032   0.078  10.623 -0.2550  0.3297 -0.0772
 2883TIP3    H130140   5.123   0.055  10.643  0.2922  2.5624  0.3070
 2883TIP3    H230141   4.982   0.002  10.649  1.3804 -0.4361  1.0141
 2884TIP3   OH230142   0.539   2.178   3.204 -0.0653 -0.1721  0.4835
 2884TIP3    H130143   0.578   2.254   3.247  2.0323 -0.3608 -0.9006
 2884TIP3    H230144   0.599   2.106   3.223 -1.1872 -1.1314  0.4877
 2885TIP3   OH230145   0.754   2.585  15.156  0.4969 -0.6606 -0.4336
 2885TIP3    H130146   0.822   2.646  15.187  0.9206 -1.1480 -0.4015
 2885TIP3    H230147   0.700   2.638  15.097  0.3850 -0.0376  0.2078
 2886TIP3   OH230148   6.381   6.496   3.073 -1.0590 -0.3454 -0.1661
 2886TIP3    H130149   6.470   6.485   3.107 -0.6919  0.2629 -0.8907
 2886TIP3    H230150   6.330   6.428   3.117 -0.3038 -0.5070  0.4900
 2887TIP3   OH230151   4.511   0.020  13.537 -0.2298  0.0046  0.2320
 2887TIP3    H130152   4.484  -0.072  13.541  2.2485 -0.8131  0.2068
 2887TIP3    H230153   4.452   0.065  13.597 -0.8516 -1.7959  1.0607
 2888TIP3   OH230154   1.453   5.342   0.020 -0.7652  0.4812 -0.4731
 2888TIP3    H130155   1.417   5.431   0.017 -1.5742  0.3891  2.8355
 2888TIP3    H230156   1.391   5.293   0.073  1.2542 -1.2350  0.4506
 2889TIP3   OH230157   5.606   3.410   2.264  0.4610  0.1476 -0.1702
 2889TIP3    H130158   5.700   3.394   2.268  0.5188 -0.8712 -2.9982
 2889TIP3    H230159   5.587   3.416   2.170 -2.5930 -1.7798  0.1794
 2890TIP3   OH230160   0.412   0.061   2.387 -0.4234  0.0326  0.3802
 2890TIP3    H130161   0.398   0.041   2.480  1.2441  0.8468  0.8412
 2890TIP3    H230162   0.401  -0.023   2.343  2.6950 -1.3241  1.8285
 2891TIP3   OH230163   4.187   3.684  10.707  0.4369 -0.0062  0.4006
 2891TIP3    H130164   4.163   3.771  10.675 -2.4647 -0.4771  1.0243
 2891TIP3    H230165   4.179   3.627  10.631 -0.5998 -0.1742  0.6231
 2892TIP3   OH230166   2.722   2.391  13.205 -0.4039  0.0237  0.4621
 2892TIP3    H130167   2.736   2.472  13.155  0.2180 -0.5675 -0.3533
 2892TIP3    H230168   2.664   2.417  13.276 -1.9487  0.7387 -0.9920
 2893TIP3   OH230169   5.486   1.773  13.131 -0.1189 -0.2370 -0.3071
 2893TIP3    H130170   5.542   1.779  13.053  1.6139  1.8480  0.9702
 2893TIP3    H230171   5.503   1.686  13.166  0.2136 -0.6481 -1.4363
 2894TIP3   OH230172   3.715   0.673  16.138  0.1652  0.3007  0.0939
 2894TIP3    H130173   3.715   0.599  16.199 -0.6007  0.9955  0.9689
 2894TIP3    H230174   3.774   0.646  16.068 -0.8752 -1.5637 -0.1373
 2895TIP3   OH230175   3.494   1.334  12.274 -0.3946 -0.1836 -0.6067
 2895TIP3    H130176   3.538   1.249  12.276  1.3632  0.6993  0.2779
 2895TIP3    H230177   3.564   1.397  12.261 -1.5191  1.2197 -0.1204
 2896TIP3   OH230178   1.632   3.019   1.073 -0.7169  0.3752 -0.4963
 2896TIP3    H130179   1.638   2.990   0.982 -0.0416 -0.0812 -0.3148
 2896TIP3    H230180   1.576   3.097   1.070  0.9151  1.5664 -1.6007
 2897TIP3   OH230181   2.181   5.252  12.278  0.3610 -0.4567 -0.2269
 2897TIP3    H130182   2.261   5.218  12.238  0.9328  0.8353 -0.2229
 2897TIP3    H230183   2.123   5.176  12.282  1.8483 -1.6291  0.4880
 2898TIP3   OH230184   4.049   2.953  16.049 -0.3281  0.0543 -0.4051
 2898TIP3    H130185   3.970   2.992  16.085 -0.0925 -1.4484  1.9224
 2898TIP3    H230186   4.050   2.864  16.084  2.6961  0.2160  0.1489
 2899TIP3   OH230187   5.301   2.903  15.139 -0.8982  0.5491  0.0215
 2899TIP3    H130188   5.258   2.819  15.121 -0.2127  0.0077  0.8347
 2899TIP3    H230189   5.297   2.949  15.055  0.3971 -1.0724 -0.9985
 2900TIP3   OH230190   3.090   2.751  15.450  0.8161 -0.5169  0.1631
 2900TIP3    H130191   3.029   2.815  15.413  1.5659  0.3461  0.3933
 2900TIP3    H230192   3.128   2.708  15.374  0.1523 -0.8506  0.0113
 2901TIP3   OH230193   4.558   4.095   2.282  0.4054 -0.6125  0.2186
 2901TIP3    H130194   4.559   4.111   2.188 -0.0112 -3.3837 -0.3417
 2901TIP3    H230195   4.646   4.062   2.301  0.4799 -0.0898  0.8132
 2902TIP3   OH230196   0.365   6.208   3.460 -0.1636  0.1365  0.8017
 2902TIP3    H130197   0.354   6.214   3.365 -2.0077  0.0377  0.9810
 2902TIP3    H230198   0.460   6.203   3.472  0.0967 -0.2555 -1.0494
 2903TIP3   OH230199   2.756   3.031  12.407  0.1588  0.1121 -0.4017
 2903TIP3    H130200   2.821   2.964  12.385  0.0411  0.2534 -1.2191
 2903TIP3    H230201   2.808   3.104  12.441  0.3237 -0.2255  0.0818
 2904TIP3   OH230202   1.826   2.893  12.120  0.0857  0.3708 -0.3915
 2904TIP3    H130203   1.742   2.872  12.161 -0.2756 -0.0369 -1.3049
 2904TIP3    H230204   1.850   2.978  12.156 -0.1865  0.0110  0.6862
 2905TIP3   OH230205   0.220   1.875   4.948 -0.2643 -0.2962 -0.1422
 2905TIP3    H130206   0.136   1.838   4.977 -0.7186 -0.5670 -1.6993
 2905TIP3    H230207   0.196   1.956   4.904  0.5856  1.1081  1.8469
 2906TIP3   OH230208   5.915   3.236   5.704  0.1549 -0.0627  0.8585
 2906TIP3    H130209   5.950   3.173   5.641  0.2719  0.5006  0.3479
 2906TIP3    H230210   5.992   3.277   5.743  0.0855  0.4298  0.4973
 2907TIP3   OH230211   6.107   3.755   3.048  0.5665 -0.0366 -0.0145
 2907TIP3    H130212   6.110   3.729   3.140  1.6197  0.7207  0.1772
 2907TIP3    H230213   6.022   3.722   3.017  0.4606 -0.8248  1.0571
 2908TIP3   OH230214   2.557   3.034   1.385  0.5519  0.2999 -0.2851
 2908TIP3    H130215   2.567   2.964   1.321  0.8671  2.1429 -2.3674
 2908TIP3    H230216   2.466   3.029   1.413  0.6457 -1.0924 -0.1692
 2909TIP3   OH230217   3.089   0.013  12.519  0.2104  0.3868  0.0777
 2909TIP3    H130218   3.122  -0.077  12.507 -0.2013  0.3926 -1.3868
 2909TIP3    H230219   3.164   0.069  12.499  0.7874  0.4067  2.0783
 2910TIP3   OH230220   5.727   2.620  17.091 -0.1969  0.7477 -0.7251
 2910TIP3    H130221   5.648   2.570  17.068 -0.1850  1.0105 -1.3615
 2910TIP3    H230222   5.729   2.619  17.187 -0.2634 -0.3673 -0.7193
 2911TIP3   OH230223   6.223   3.997  16.227 -0.3015 -0.1992  0.5884
 2911TIP3    H130224   6.152   4.023  16.169  0.5119  2.6287  0.7038
 2911TIP3    H230225   6.260   3.918  16.187 -2.3953 -0.7531 -0.3605
 2912TIP3   OH230226   3.191   2.947  15.606  0.1472 -0.1292  0.2969
 2912TIP3    H130227   3.178   2.867  15.554  0.2116  0.4329 -0.6126
 2912TIP3    H230228   3.145   3.015  15.557  1.2639  0.6714  0.3179
 2913TIP3   OH230229   6.392   1.643   6.398  0.4499  0.3695  1.3244
 2913TIP3    H130230   6.322   1.601   6.449 -2.1442  0.7752 -1.6350
 2913TIP3    H230231   6.418   1.578   6.334 -0.5263  1.7053 -0.5149
 2914TIP3   OH230232   2.235   3.485  16.255 -0.0533  0.6503  0.2803
 2914TIP3    H130233   2.140   3.473  16.261 -0.1092  1.5963  2.9985
 2914TIP3    H230234   2.271   3.414  16.310  0.8859 -0.0682 -1.2087
 2915TIP3   OH230235   4.870   3.900   0.804 -0.0165  0.0039 -0.8004
 2915TIP3    H130236   4.926   3.828   0.775 -1.0374 -1.0051 -0.3926
 2915TIP3    H230237   4.791   3.892   0.750 -0.9464 -0.4205  0.5555
 2916TIP3   OH230238   0.784   4.965   3.298  0.2043  0.2385  0.5904
 2916TIP3    H130239   0.836   5.044   3.282  0.5570 -0.2013 -0.5193
 2916TIP3    H230240   0.694   4.997   3.307 -0.1085  0.5632 -2.6573
 2917TIP3   OH230241   6.206   1.742   0.733 -0.1748  0.2904 -0.1118
 2917TIP3    H130242   6.175   1.707   0.817 -0.5474 -2.6690 -1.3675
 2917TIP3    H230243   6.298   1.763   0.748 -0.0214 -0.9395  0.8493
 2918TIP3   OH230244   6.191   5.602   3.128 -0.4374 -0.4814 -0.1492
 2918TIP3    H130245   6.283   5.626   3.119 -0.5748 -0.0810 -0.5300
 2918TIP3    H230246   6.157   5.662   3.194 -0.5631 -0.2193 -0.4451
 2919TIP3   OH230247   1.574   4.823   3.612  0.1762  0.5413 -0.2393
 2919TIP3    H130248   1.481   4.808   3.596  0.4896 -0.3091 -1.3834
 2919TIP3    H230249   1.576   4.883   3.686 -1.2688 -0.0373  0.3003
 2920TIP3   OH230250   1.714   4.610   2.812  0.5041  0.0179 -0.0688
 2920TIP3    H130251   1.697   4.572   2.726 -0.5147  1.1255 -0.3848
 2920TIP3    H230252   1.722   4.704   2.796  1.0320  0.1572  0.9485
 2921TIP3   OH230253   6.296   1.996   4.550 -0.5649  0.3739 -0.6913
 2921TIP3    H130254   6.285   1.996   4.645 -1.3671  0.3235 -0.7741
 2921TIP3    H230255   6.328   2.084   4.530 -0.6436  0.4699 -0.3983
 2922TIP3   OH230256   6.393   1.215  12.794 -0.3143  0.2571  0.4144
 2922TIP3    H130257   6.370   1.138  12.846  0.3238  0.7879  1.4912
 2922TIP3    H230258   6.488   1.221  12.801 -0.1443  0.0449 -1.2457
 2923TIP3   OH230259   3.073   3.328   3.418  0.2490  0.0117 -0.8957
 2923TIP3    H130260   3.096   3.415   3.386  0.2696  0.4090  0.1674
 2923TIP3    H230261   2.978   3.323   3.411  0.2681  0.0358 -1.1657
 2924TIP3   OH230262   3.895   6.393  16.580 -0.3998  0.1171  0.4773
 2924TIP3    H130263   3.953   6.362  16.511  1.4891 -0.7877  2.3602
 2924TIP3    H230264   3.850   6.314  16.611 -1.5556  0.5815  0.0660
 2925TIP3   OH230265   3.368   0.440  15.857  0.3968 -0.3570  0.5509
 2925TIP3    H130266   3.348   0.436  15.951 -3.7064  0.2302 -0.1100
 2925TIP3    H230267   3.336   0.357  15.822  2.9134 -1.0561 -0.2997
 2926TIP3   OH230268   0.151   5.161  14.402  0.2740 -0.0949  0.4129
 2926TIP3    H130269   0.161   5.253  14.424 -0.3507 -0.3400  1.8253
 2926TIP3    H230270   0.063   5.138  14.432  0.9313 -1.4824  1.3876
 2927TIP3   OH230271   6.196   1.156   2.595 -0.0053 -0.0151 -0.0644
 2927TIP3    H130272   6.203   1.151   2.500 -0.1179  0.9516 -0.1399
 2927TIP3    H230273   6.141   1.233   2.610 -0.5908 -0.5732  0.7669
 2928TIP3   OH230274   6.511   0.928  14.024  0.1126  0.0265  0.3697
 2928TIP3    H130275   6.504   0.968  14.111  0.1419  0.0788  0.3486
 2928TIP3    H230276   6.572   0.855  14.036  1.1107  0.8018  0.1320
 2929TIP3   OH230277   3.054   3.586   5.131 -0.0217 -0.0401 -0.0153
 2929TIP3    H130278   3.033   3.617   5.219  0.3408 -0.2936  0.1577
 2929TIP3    H230279   2.970   3.589   5.085  0.0129  1.2593 -0.0227
 2930TIP3   OH230280   6.756   4.519  14.417  0.0424  0.0010  0.0606
 2930TIP3    H130281   6.805   4.583  14.365  1.2395 -1.2107 -0.3624
 2930TIP3    H230282   6.823   4.459  14.450 -1.1485 -1.8510 -0.7183
 2931TIP3   OH230283   4.286   4.058  16.894  0.3439  0.3331  0.5569
 2931TIP3    H130284   4.335   4.006  16.958  0.5088  0.5262  0.5874
 2931TIP3    H230285   4.317   4.147  16.906  0.4756  0.3501  0.1162
 2932TIP3   OH230286   0.142   5.407   1.210 -0.6429  0.6127  0.4104
 2932TIP3    H130287   0.183   5.454   1.138 -0.7262 -0.8790 -0.6643
 2932TIP3    H230288   0.053   5.442   1.213 -0.9107  0.1045 -0.8112
 2933TIP3   OH230289   4.445   5.457  15.894  0.1274  0.1349 -0.4615
 2933TIP3    H130290   4.531   5.442  15.933  0.0728  0.6816 -0.1134
 2933TIP3    H230291   4.384   5.447  15.968  0.1746  3.1329  0.0843
 2934TIP3   OH230292   3.378   0.563   3.598 -0.1555 -0.2614  0.1847
 2934TIP3    H130293   3.414   0.648   3.575  1.2341 -1.1712 -1.1359
 2934TIP3    H230294   3.347   0.574   3.688 -1.6234  2.1033 -0.5184
 2935TIP3   OH230295   2.405   2.780   4.707  0.9629  0.4589  0.0553
 2935TIP3    H130296   2.399   2.842   4.634 -3.8973 -1.1830 -1.3688
 2935TIP3    H230297   2.427   2.697   4.665 -0.0850 -0.1595  0.6934
 2936TIP3   OH230298   3.736   2.405  17.092 -0.0607 -0.2305 -0.1940
 2936TIP3    H130299   3.719   2.386  17.184 -1.0118 -1.5046 -0.6004
 2936TIP3    H230300   3.650   2.426  17.056 -0.1236 -2.2163 -1.3124
 2937TIP3   OH230301   3.469   0.600   3.217  0.1250 -0.8081 -0.0730
 2937TIP3    H130302   3.442   0.691   3.235 -0.4374 -1.3866  2.5030
 2937TIP3    H230303   3.439   0.583   3.128 -2.8236  0.4905  0.5589
 2938TIP3   OH230304   1.803   1.911  12.791  0.2389 -0.3360 -0.2623
 2938TIP3    H130305   1.777   1.819  12.798  0.5663 -0.4014  0.1528
 2938TIP3    H230306   1.809   1.941  12.882 -0.1086  0.1666 -0.3947
 2939TIP3   OH230307   6.196   5.938   1.603  0.4644 -0.3906 -0.4462
 2939TIP3    H130308   6.123   5.900   1.553  0.5939 -1.6049  0.2360
 2939TIP3    H230309   6.268   5.876   1.590  1.0441  0.2295 -0.2259
 2940TIP3   OH230310   6.177   3.650  13.765  0.1830  0.4489  0.4748
 2940TIP3    H130311   6.097   3.598  13.771 -1.2271  1.6539 -4.1807
 2940TIP3    H230312   6.165   3.720  13.830 -2.8557  0.9126 -0.4476
 2941TIP3   OH230313   0.290   2.399  11.478 -0.0499 -0.3185 -0.5825
 2941TIP3    H130314   0.199   2.390  11.507 -0.7955 -0.3008 -2.7722
 2941TIP3    H230315   0.313   2.313  11.444  0.9462 -0.4556  0.3729
 2942TIP3   OH230316   2.845   1.088  16.049  0.0305  0.2707  0.4392
 2942TIP3    H130317   2.903   1.040  15.990  0.5757  0.5130  0.7638
 2942TIP3    H230318   2.778   1.025  16.074  0.0193  0.0544 -0.1276
 2943TIP3   OH230319   2.612   4.783  13.820  0.6736 -0.2245  0.1437
 2943TIP3    H130320   2.694   4.770  13.867  0.7357 -0.5438 -0.0483
 2943TIP3    H230321   2.617   4.723  13.745  0.9991  0.9593 -0.8187
 2944TIP3   OH230322   1.209   2.002  17.112  0.0912  0.1950  0.0550
 2944TIP3    H130323   1.152   1.938  17.154  0.2726  0.5166  0.8168
 2944TIP3    H230324   1.291   1.955  17.096 -0.2413 -0.1538 -0.6757
 2945TIP3   OH230325   1.701   0.133  14.844 -1.2396  0.2495  0.2306
 2945TIP3    H130326   1.679   0.134  14.937 -0.4862  3.0009  0.4726
 2945TIP3    H230327   1.703   0.226  14.819  0.8055 -0.2914 -1.9634
 2946TIP3   OH230328   5.814   6.298  13.089  0.0330 -0.2646  0.1533
 2946TIP3    H130329   5.869   6.338  13.021  2.9891  1.4357  3.2299
 2946TIP3    H230330   5.735   6.352  13.091  0.0133 -0.1490 -1.5951
 2947TIP3   OH230331   1.189   5.228  14.359  0.2839 -0.1340 -0.0881
 2947TIP3    H130332   1.234   5.241  14.276 -0.9474  1.7969 -0.5232
 2947TIP3    H230333   1.257   5.234  14.425  0.9924  0.3459 -0.8447
 2948TIP3   OH230334   6.393   1.173  13.261 -0.4595  0.1380  0.5703
 2948TIP3    H130335   6.319   1.113  13.267 -0.1640 -0.1698  1.3554
 2948TIP3    H230336   6.353   1.260  13.253 -0.9125 -0.0123  1.1239
 2949TIP3   OH230337   0.175   2.584  13.950  0.3653  0.2954  1.0894
 2949TIP3    H130338   0.149   2.505  13.998  1.3282  0.4900  1.9818
 2949TIP3    H230339   0.238   2.627  14.008  1.2782  0.7558 -0.2041
 2950TIP3   OH230340   4.586   4.127  14.392 -0.2326  0.0681  0.1506
 2950TIP3    H130341   4.542   4.154  14.472 -0.0147  0.1334  0.2502
 2950TIP3    H230342   4.554   4.188  14.325 -0.3012  0.1073  0.2201
 2951TIP3   OH230343   6.027   3.792   5.571 -0.2215 -0.1028 -0.2283
 2951TIP3    H130344   5.998   3.829   5.655  0.7539 -1.0466  0.5459
 2951TIP3    H230345   6.071   3.865   5.527  0.0682  0.1580  0.4786
 2952TIP3   OH230346   2.643   3.596   1.961 -0.1561 -0.0868 -0.0696
 2952TIP3    H130347   2.698   3.583   1.884  1.4541  1.8449  0.6826
 2952TIP3    H230348   2.567   3.644   1.928 -0.2759 -0.6850 -0.6975
 2953TIP3   OH230349   0.044   5.123   2.653 -0.0723  0.3979  0.1778
 2953TIP3    H130350  -0.031   5.131   2.711  0.7632  0.4088  1.2850
 2953TIP3    H230351   0.071   5.032   2.660  0.4391  0.5549  0.3391
 2954TIP3   OH230352   0.969   2.419  17.111 -0.5733 -0.4641  0.0868
 2954TIP3    H130353   0.925   2.466  17.182 -2.9322 -0.4081 -1.3080
 2954TIP3    H230354   0.915   2.342  17.095  0.0506 -0.6384 -1.4332
 2955TIP3   OH230355   1.916   6.368   3.398 -0.1407 -0.5167  0.2457
 2955TIP3    H130356   1.841   6.381   3.340 -0.3723 -2.6530 -0.0267
 2955TIP3    H230357   1.894   6.289   3.448  1.2413 -0.2668  1.3113
 2956TIP3   OH230358   0.151   0.533   1.232  0.3320  0.1072  0.4869
 2956TIP3    H130359   0.056   0.534   1.250  0.2627 -1.4931  0.3265
 2956TIP3    H230360   0.170   0.622   1.204 -1.3598  0.1970 -0.5666
 2957TIP3   OH230361   5.771   0.670   4.230 -0.0568 -0.0686 -0.1655
 2957TIP3    H130362   5.746   0.581   4.255  0.4497  0.2739  1.7230
 2957TIP3    H230363   5.831   0.659   4.156  0.5938 -1.3384  0.5291
 2958TIP3   OH230364   5.395   3.150  14.049  0.4353 -0.2529 -0.5650
 2958TIP3    H130365   5.349   3.093  13.988 -1.0214  1.5511 -1.2203
 2958TIP3    H230366   5.356   3.130  14.134  2.7549 -3.0707  0.0029
 2959TIP3   OH230367   6.738   2.528   0.198 -0.6387 -0.2587  0.2541
 2959TIP3    H130368   6.723   2.621   0.182  0.1229 -0.3586 -1.1967
 2959TIP3    H230369   6.651   2.489   0.198 -0.8496  0.1033 -1.7068
 2960TIP3   OH230370   3.692   5.129  13.834  0.1004 -0.5541  0.2315
 2960TIP3    H130371   3.662   5.214  13.864 -0.8651 -0.9719  0.5066
 2960TIP3    H230372   3.696   5.137  13.739 -0.0206 -0.2121  0.2548
 2961TIP3   OH230373   1.996   1.575   2.516 -0.6613  0.5165  0.2245
 2961TIP3    H130374   2.087   1.565   2.488 -0.9021  0.2424 -0.4961
 2961TIP3    H230375   1.945   1.558   2.437 -1.3949 -0.7026  0.9250
 2962TIP3   OH230376   6.164   6.072  11.649 -0.6458 -0.1274  0.1182
 2962TIP3    H130377   6.200   6.160  11.658 -2.5557  0.9270 -1.7001
 2962TIP3    H230378   6.222   6.017  11.701  1.4866  1.9535  0.1037
 2963TIP3   OH230379   4.488   5.539   5.699 -0.1345 -0.2599  0.1048
 2963TIP3    H130380   4.469   5.601   5.629  1.2182  0.2492  0.1477
 2963TIP3    H230381   4.469   5.453   5.661 -2.6584  0.1717  0.2585
 2964TIP3   OH230382   3.710   5.908   4.998 -0.4254  0.2400  0.3671
 2964TIP3    H130383   3.623   5.930   5.033 -0.5007  1.2352 -0.3944
 2964TIP3    H230384   3.692   5.851   4.924 -0.3239 -0.9318  1.2180
 2965TIP3   OH230385   4.361   4.493  12.396  0.0171  0.0224  0.2544
 2965TIP3    H130386   4.328   4.420  12.344  0.7056 -0.6640  0.7572
 2965TIP3    H230387   4.302   4.566  12.375 -1.3270 -0.9430  0.5352
 2966TIP3   OH230388   0.660   6.705   3.845 -0.2316  0.3111 -0.6989
 2966TIP3    H130389   0.664   6.696   3.940 -0.3372  0.6699 -0.6604
 2966TIP3    H230390   0.583   6.759   3.829  0.1350  0.7623 -0.9551
 2967TIP3   OH230391   6.094   6.669   5.170  0.4465 -0.4169 -0.7444
 2967TIP3    H130392   6.122   6.685   5.261  1.4410  0.1954 -1.1415
 2967TIP3    H230393   6.114   6.577   5.155  1.6370 -0.1734 -0.7821
 2968TIP3   OH230394   5.419   3.854  16.958 -0.2126 -0.2986 -0.2837
 2968TIP3    H130395   5.499   3.904  16.945 -1.1634  1.0839 -1.1015
 2968TIP3    H230396   5.357   3.917  16.996 -0.6171 -1.6065  1.3575
 2969TIP3   OH230397   6.304   5.303  11.637  0.2382 -0.4728  0.2467
 2969TIP3    H130398   6.368   5.357  11.591 -0.0232 -0.9810 -0.7251
 2969TIP3    H230399   6.226   5.304  11.581 -0.3837 -0.4071  1.0859
 2970TIP3   OH230400   0.091   3.762  14.772 -0.0473 -0.4937  0.2010
 2970TIP3    H130401   0.118   3.676  14.740  0.8019  0.1499 -0.8812
 2970TIP3    H230402   0.088   3.817  14.694 -2.5093  0.0038  0.5707
 2971TIP3   OH230403   6.716   1.676  12.286  0.7119  0.3842 -0.1516
 2971TIP3    H130404   6.732   1.693  12.194 -0.7666  0.2631 -0.4443
 2971TIP3    H230405   6.626   1.703  12.301  0.7674 -0.0609  1.1468
 2972TIP3   OH230406   1.198   5.262  14.883 -0.0946  0.4015  0.1829
 2972TIP3    H130407   1.269   5.229  14.938  2.4551  1.2267 -2.3681
 2972TIP3    H230408   1.175   5.188  14.827 -0.5617  0.4379  0.3192
 2973TIP3   OH230409   1.964   6.527   3.629  0.2401  0.3230 -0.6750
 2973TIP3    H130410   2.039   6.584   3.614 -1.6801  2.8361 -1.4498
 2973TIP3    H230411   1.960   6.472   3.552 -1.0227  3.0554 -2.7185
 2974TIP3   OH230412   6.513   5.842  11.923 -0.2473  0.0495 -0.4327
 2974TIP3    H130413   6.492   5.867  12.013  0.4585  0.8841 -0.4927
 2974TIP3    H230414   6.427   5.837  11.880 -0.5740 -0.1272  0.2202
 2975TIP3   OH230415   2.675   3.692  15.026  0.0869 -0.3509 -0.0683
 2975TIP3    H130416   2.754   3.665  14.979 -0.2525 -0.2270 -0.7239
 2975TIP3    H230417   2.681   3.787  15.030  0.9454 -0.4356  1.6446
 2976TIP3   OH230418   0.712   4.537   0.391 -0.5315  0.0270 -0.1758
 2976TIP3    H130419   0.719   4.442   0.376  0.2713  0.3227 -1.8880
 2976TIP3    H230420   0.791   4.559   0.441 -1.3666 -0.3729  1.3978
 2977TIP3   OH230421   0.029   0.512   4.625  0.5337 -0.4051 -0.0336
 2977TIP3    H130422   0.054   0.515   4.717 -0.4947 -1.0659  0.2898
 2977TIP3    H230423   0.004   0.601   4.603  3.0941  0.2994 -0.3852
 2978TIP3   OH230424   5.708   2.877   5.184  0.4091  0.6549  0.6908
 2978TIP3    H130425   5.644   2.948   5.172  0.1569  0.0858 -1.8747
 2978TIP3    H230426   5.784   2.905   5.133  1.2872  0.1791  1.7022
 2979TIP3   OH230427   6.431   4.134   5.809  0.5710 -0.1041  0.6525
 2979TIP3    H130428   6.440   4.182   5.727 -0.8397 -0.1447  0.4380
 2979TIP3    H230429   6.336   4.120   5.817  0.4680  1.4484  3.1599
 2980TIP3   OH230430   5.717   1.589   1.547  0.2234 -0.5226  0.2470
 2980TIP3    H130431   5.798   1.553   1.582 -0.5356 -0.2349  2.4346
 2980TIP3    H230432   5.685   1.523   1.485  1.9481 -0.7547 -0.4422
 2981TIP3   OH230433   4.828   4.845   5.508 -0.2124 -0.2205 -0.2150
 2981TIP3    H130434   4.746   4.801   5.530  0.4317 -0.9677  0.7332
 2981TIP3    H230435   4.802   4.913   5.445 -1.5837 -0.3083  0.2238
 2982TIP3   OH230436   0.079   6.461  15.831  0.6900  1.2165 -0.3832
 2982TIP3    H130437   0.052   6.537  15.882 -0.9982  0.2918  0.1911
 2982TIP3    H230438   0.024   6.464  15.753 -0.5320 -0.2434  0.3885
 2983TIP3   OH230439   4.457   4.464   2.083 -0.2135 -0.0417  0.3789
 2983TIP3    H130440   4.368   4.478   2.117  0.1179  0.1745  1.1848
 2983TIP3    H230441   4.463   4.521   2.007 -0.7447 -0.0197  0.3447
 2984TIP3   OH230442   6.667   5.483   0.737 -0.6534  0.0843 -0.4609
 2984TIP3    H130443   6.742   5.490   0.678 -0.2315 -0.2277  0.0293
 2984TIP3    H230444   6.591   5.507   0.683 -0.1633  0.7446 -0.8682
 2985TIP3   OH230445   1.669   5.549   1.469 -0.0974  0.1451  0.1489
 2985TIP3    H130446   1.749   5.497   1.471  1.7413  2.7984  0.0027
 2985TIP3    H230447   1.646   5.561   1.561 -3.0291 -4.2511  0.2582
 2986TIP3   OH230448   3.201   3.739   2.500  0.2280 -0.8498 -0.2904
 2986TIP3    H130449   3.177   3.765   2.589 -2.5534  1.4564 -1.5444
 2986TIP3    H230450   3.285   3.693   2.509  0.4138 -0.0205  3.3777
 2987TIP3   OH230451   2.004   1.194  14.814  1.3284  0.2903 -0.1232
 2987TIP3    H130452   2.050   1.148  14.743 -0.2210 -0.1802 -0.8701
 2987TIP3    H230453   1.913   1.198  14.785  0.9852  1.7372  1.0244
 2988TIP3   OH230454   5.850   6.231  16.397 -0.3837 -0.1726 -0.1341
 2988TIP3    H130455   5.780   6.289  16.367  0.5124  2.2462  2.0872
 2988TIP3    H230456   5.925   6.255  16.341  0.5140  2.3559  1.9491
 2989TIP3   OH230457   4.268   2.880  13.440 -0.0534  0.1190  0.4875
 2989TIP3    H130458   4.187   2.834  13.459  1.2470 -2.3839  0.3252
 2989TIP3    H230459   4.241   2.971  13.423 -2.7469 -0.5865  0.6358
 2990TIP3   OH230460   0.749   1.412   4.413 -0.2894 -0.1173  0.7439
 2990TIP3    H130461   0.656   1.413   4.388 -0.1564 -1.6102  0.0464
 2990TIP3    H230462   0.764   1.321   4.439  0.8364  0.2627  1.4636
 2991TIP3   OH230463   3.700   0.036  11.191 -0.1823 -0.5890  0.2300
 2991TIP3    H130464   3.720  -0.037  11.249  0.8866 -0.3251  0.2167
 2991TIP3    H230465   3.717   0.114  11.244  1.8729 -0.3221 -0.7193
 2992TIP3   OH230466   4.464   4.288  15.597 -0.4492  0.1504 -0.0953
 2992TIP3    H130467   4.529   4.238  15.549 -1.1916 -0.1751 -0.7800
 2992TIP3    H230468   4.502   4.375  15.606 -0.0135  0.0209 -0.6680
 2993TIP3   OH230469   3.516   3.059  15.020  0.0689  0.4364 -0.2883
 2993TIP3    H130470   3.564   2.991  14.973  0.2729  0.4420 -0.0879
 2993TIP3    H230471   3.504   3.024  15.108 -0.5678  0.3044 -0.4234
 2994TIP3   OH230472   5.931   4.192  12.172 -0.2141  0.0754 -0.3172
 2994TIP3    H130473   6.009   4.209  12.225 -0.6927  1.5052 -0.0109
 2994TIP3    H230474   5.861   4.183  12.236 -0.9202  2.4733 -0.6319
 2995TIP3   OH230475   1.205   0.021  14.309  0.3230  0.0352  0.2218
 2995TIP3    H130476   1.187  -0.015  14.396  1.0883  0.7111  0.6733
 2995TIP3    H230477   1.182   0.113  14.316  0.1253  0.0291 -0.3773
 2996TIP3   OH230478   6.031   0.479   1.371  0.2205 -0.0745 -0.1930
 2996TIP3    H130479   6.009   0.431   1.291 -0.1213  0.3250 -0.3383
 2996TIP3    H230480   6.111   0.527   1.348  1.3512 -1.5930  0.3626
 2997TIP3   OH230481   2.895   2.704  12.907 -0.7637 -0.5687  0.1736
 2997TIP3    H130482   2.887   2.668  12.819 -0.6439 -0.0710 -0.0398
 2997TIP3    H230483   2.942   2.786  12.896 -2.8278  0.7129  0.3869
 2998TIP3   OH230484   1.819   2.832  13.770  0.0393  0.4394 -0.0496
 2998TIP3    H130485   1.848   2.922  13.762  0.3112  0.3022 -0.7379
 2998TIP3    H230486   1.771   2.815  13.688 -2.4129  0.7988  1.2024
 2999TIP3   OH230487   0.747   4.267  10.945 -0.1478  0.5448 -0.4156
 2999TIP3    H130488   0.808   4.300  11.010 -1.7589  1.1668  0.8632
 2999TIP3    H230489   0.799   4.208  10.890  1.3385  0.2427  1.2376
 3000TIP3   OH230490   5.869   2.885   2.516 -0.5639  0.3934 -0.2780
 3000TIP3    H130491   5.812   2.852   2.586 -1.3378 -1.1071 -1.5500
 3000TIP3    H230492   5.939   2.931   2.562 -0.9176 -0.7424  1.4989
 3001TIP3   OH230493   0.727   3.646   1.423  0.1069  0.2575  0.0024
 3001TIP3    H130494   0.744   3.735   1.451 -0.7926  0.4710 -0.1044
 3001TIP3    H230495   0.796   3.594   1.464 -1.0105  0.5766  2.4304
 3002TIP3   OH230496   2.650   4.847   5.447  0.5942 -0.1642 -0.0301
 3002TIP3    H130497   2.594   4.774   5.472  2.5729 -0.9416  2.6140
 3002TIP3    H230498   2.709   4.859   5.522  1.2153  3.3183 -0.8986
 3003TIP3   OH230499   6.615   1.606  16.011 -0.4661 -0.0077 -0.5479
 3003TIP3    H130500   6.693   1.599  15.956  0.8151 -0.3931  1.2271
 3003TIP3    H230501   6.570   1.684  15.979  1.6368  1.3252 -0.4569
 3004TIP3   OH230502   6.319   4.958   4.704 -0.0898 -0.4652 -0.4823
 3004TIP3    H130503   6.401   4.975   4.658 -0.1245 -1.5779 -0.9902
 3004TIP3    H230504   6.259   4.929   4.635 -0.2516 -1.8109  0.1965
 3005TIP3   OH230505   0.778   4.695  14.227  0.5245  0.1852  0.6913
 3005TIP3    H130506   0.696   4.742  14.214  0.7073  0.9214  1.9967
 3005TIP3    H230507   0.846   4.760  14.205  0.7857 -0.4491 -0.4873
 3006TIP3   OH230508   2.328   5.367   4.251  0.3941  0.2469  0.9061
 3006TIP3    H130509   2.335   5.272   4.262 -0.5461 -0.1241 -1.1264
 3006TIP3    H230510   2.248   5.391   4.297  0.5416  0.0262  1.2790
 3007TIP3   OH230511   2.481   4.901  17.003 -0.2853 -0.4276  0.3051
 3007TIP3    H130512   2.396   4.894  17.047 -0.6583  3.1591  0.4368
 3007TIP3    H230513   2.529   4.966  17.054  1.9672 -1.2079 -0.6942
 3008TIP3   OH230514   2.171   6.785  14.188  0.4085 -0.7273  0.2257
 3008TIP3    H130515   2.125   6.867  14.167 -1.0789 -1.2875  1.0895
 3008TIP3    H230516   2.160   6.731  14.110  1.1270 -0.2307 -0.2299
 3009TIP3   OH230517   6.687   6.635  10.812  0.7274 -0.1963 -0.1346
 3009TIP3    H130518   6.672   6.588  10.730 -1.2123 -3.4463  1.8287
 3009TIP3    H230519   6.599   6.656  10.843  1.0953 -2.2367  2.6678
 3010TIP3   OH230520   1.797   1.288   5.637 -0.3422 -0.0475  0.3615
 3010TIP3    H130521   1.839   1.361   5.683 -2.3226  1.1274  0.3739
 3010TIP3    H230522   1.839   1.287   5.551  0.8113  0.0549  0.8923
 3011TIP3   OH230523   5.997   3.086   0.690 -0.2892 -0.2536  0.1011
 3011TIP3    H130524   5.938   3.108   0.617  0.7345 -0.9996 -1.0019
 3011TIP3    H230525   5.960   3.131   0.766 -1.3476  0.6357 -0.9026
 3012TIP3   OH230526   1.539   5.412  16.458  0.6052  0.7321  0.8460
 3012TIP3    H130527   1.596   5.416  16.381  0.5541  0.6648  0.8034
 3012TIP3    H230528   1.585   5.355  16.519  1.3505  1.9538  1.4585
 3013TIP3   OH230529   6.593   2.496  12.999 -0.3590 -0.1993 -0.4944
 3013TIP3    H130530   6.665   2.550  12.964  0.5259 -0.3345  1.0456
 3013TIP3    H230531   6.578   2.530  13.087 -1.1465 -1.1840 -0.2327
 3014TIP3   OH230532   0.238   4.783  14.045  0.3562 -0.7258 -0.0009
 3014TIP3    H130533   0.309   4.820  13.992 -0.0770 -3.1043 -2.4581
 3014TIP3    H230534   0.198   4.858  14.087  2.2309  1.0519 -1.1978
 3015TIP3   OH230535   0.626   2.857  13.368  0.2432  0.1349 -0.4373
 3015TIP3    H130536   0.658   2.926  13.426 -0.5475  1.7964 -1.8896
 3015TIP3    H230537   0.548   2.823  13.412  0.7991 -0.0494  0.4231
 3016TIP3   OH230538   1.656   0.914   3.857  0.3554  0.4003  0.5224
 3016TIP3    H130539   1.734   0.872   3.892  1.5888  1.7435 -0.4666
 3016TIP3    H230540   1.650   0.883   3.767  1.3335  2.2660 -0.2519
 3017TIP3   OH230541   2.289   6.745   4.726 -0.6832  0.2983  0.0115
 3017TIP3    H130542   2.250   6.727   4.640 -0.0338  2.4961 -0.8131
 3017TIP3    H230543   2.282   6.663   4.773 -1.3337 -0.8953 -2.0422
 3018TIP3   OH230544   3.649   3.772   5.615 -0.2457 -0.6951  0.1994
 3018TIP3    H130545   3.694   3.763   5.531  0.8072 -1.8548  0.8581
 3018TIP3    H230546   3.718   3.766   5.680 -1.2735 -1.9948  1.2310
 3019TIP3   OH230547   4.398   5.733  14.384  0.3827  0.3349 -0.1499
 3019TIP3    H130548   4.368   5.754  14.295  0.0051  1.5779  0.2428
 3019TIP3    H230549   4.488   5.764  14.387  0.0937  1.1833  0.1730
 3020TIP3   OH230550   3.911   3.745   4.410  0.1504  0.0799 -0.9535
 3020TIP3    H130551   3.958   3.669   4.444  1.6050  1.1237 -0.5524
 3020TIP3    H230552   3.937   3.750   4.318  0.6767  0.5387 -0.7829
 3021TIP3   OH230553   0.122   6.752   3.959 -0.1034 -0.2649 -0.7671
 3021TIP3    H130554   0.183   6.678   3.951  1.0629  0.6768 -0.7802
 3021TIP3    H230555   0.082   6.741   4.045  2.2414  0.6807  0.5088
 3022TIP3   OH230556   1.745   1.965  13.880  0.2097 -0.0399 -0.5860
 3022TIP3    H130557   1.681   1.993  13.814 -0.6774 -1.6689 -0.4560
 3022TIP3    H230558   1.740   1.870  13.881 -0.7550 -0.0954  2.6949
 3023TIP3   OH230559   5.658   2.413   2.370 -0.0520 -0.0109 -0.1394
 3023TIP3    H130560   5.744   2.381   2.344  0.1167 -0.1642  0.5814
 3023TIP3    H230561   5.613   2.430   2.288 -0.4041 -2.7092 -0.5942
 3024TIP3   OH230562   6.021   2.072  15.131 -0.6107  0.5603  0.1766
 3024TIP3    H130563   5.960   2.051  15.201 -1.6882  2.2807 -0.1877
 3024TIP3    H230564   6.020   2.167  15.126  1.1376  0.5766 -0.7151
 3025TIP3   OH230565   3.479   5.251  15.119 -0.1202  0.0596 -0.9885
 3025TIP3    H130566   3.500   5.295  15.037  1.5322 -0.0160 -0.6518
 3025TIP3    H230567   3.550   5.188  15.131 -1.6868 -1.7206 -0.7556
 3026TIP3   OH230568   5.112   3.065  13.584 -0.0064  0.3399 -0.5506
 3026TIP3    H130569   5.142   2.982  13.621 -1.7961 -0.5291 -0.9958
 3026TIP3    H230570   5.020   3.052  13.565  0.2069  1.6290 -2.8842
 3027TIP3   OH230571   6.461   2.601  15.168  0.2167  0.0103 -0.5877
 3027TIP3    H130572   6.466   2.676  15.227 -1.2731 -1.7408  1.9236
 3027TIP3    H230573   6.553   2.582  15.146  0.9767  0.0258  2.2025
 3028TIP3   OH230574   4.212   4.329   1.569 -0.2824  0.6400  0.6083
 3028TIP3    H130575   4.263   4.410   1.576  1.2747 -0.3089  0.7083
 3028TIP3    H230576   4.148   4.334   1.640 -0.2097  1.7631  0.6118
 3029TIP3   OH230577   0.213   1.866  16.804  0.2970 -0.1781 -0.3097
 3029TIP3    H130578   0.303   1.892  16.781  0.0784  0.4295 -0.5095
 3029TIP3    H230579   0.186   1.928  16.871  0.0886 -0.4745 -0.1166
 3030TIP3   OH230580   0.989   2.277  13.191 -0.3286 -0.0138  0.8290
 3030TIP3    H130581   1.047   2.246  13.122 -0.2830  0.4350  0.6598
 3030TIP3    H230582   0.908   2.227  13.180 -0.9306  1.1972 -0.5990
 3031TIP3   OH230583   2.024   1.766  16.840 -0.8988  0.1868  0.1985
 3031TIP3    H130584   2.086   1.733  16.775  1.0982  1.6739  1.2664
 3031TIP3    H230585   1.983   1.687  16.876  0.9138 -0.8985 -0.0079
 3032TIP3   OH230586   1.159   1.485   4.077  0.2444 -0.0028 -1.1884
 3032TIP3    H130587   1.213   1.407   4.069 -1.9497 -1.7782  0.0533
 3032TIP3    H230588   1.142   1.492   4.171 -1.0314  0.9361 -1.4620
 3033TIP3   OH230589   5.775   5.719  14.097  0.2511 -0.5139  0.0450
 3033TIP3    H130590   5.682   5.741  14.098  0.2675 -0.4231  1.1858
 3033TIP3    H230591   5.812   5.774  14.028 -0.8923 -2.2445 -2.0765
 3034TIP3   OH230592   4.789   0.768  12.516  0.1877 -0.9040 -0.1434
 3034TIP3    H130593   4.837   0.719  12.448  0.1197 -1.2794  0.0757
 3034TIP3    H230594   4.745   0.838  12.468 -2.1373 -2.7795 -0.9562
 3035TIP3   OH230595   1.769   3.425  13.026 -0.5479  0.1861  0.1797
 3035TIP3    H130596   1.800   3.400  13.114 -1.8306  0.5729  0.7604
 3035TIP3    H230597   1.681   3.459  13.041 -0.6019  0.6863 -1.2145
 3036TIP3   OH230598   1.306   1.592  14.201  0.0731 -0.1234 -0.4441
 3036TIP3    H130599   1.349   1.582  14.116 -1.1193 -2.2771 -0.8667
 3036TIP3    H230600   1.311   1.686  14.219  0.5892  0.3640 -2.7649
 3037TIP3   OH230601   0.827   3.228  14.838  0.2498  0.3729  0.3414
 3037TIP3    H130602   0.861   3.299  14.784 -2.3259  2.5329  1.3945
 3037TIP3    H230603   0.764   3.269  14.896 -0.5347 -2.6255  1.8131
 3038TIP3   OH230604   2.602   2.910   5.415 -0.0790 -0.0340  0.5810
 3038TIP3    H130605   2.509   2.888   5.420  0.1749 -0.8900  2.2665
 3038TIP3    H230606   2.647   2.826   5.413  0.6623  0.3580 -1.1737
 3039TIP3   OH230607   2.229   3.747   5.828  0.4211 -1.0291 -0.0552
 3039TIP3    H130608   2.249   3.692   5.904 -0.2797 -2.0686 -0.5995
 3039TIP3    H230609   2.218   3.835   5.864  2.6269 -0.9981  0.7006
 3040TIP3   OH230610   2.733   1.430   4.898 -0.5882  0.3954 -0.2053
 3040TIP3    H130611   2.637   1.431   4.895 -0.6834 -0.3423  1.3861
 3040TIP3    H230612   2.757   1.517   4.930 -1.0144 -0.5999  3.2515
 3041TIP3   OH230613   0.167   4.082  10.856  0.2298 -0.6219  0.3476
 3041TIP3    H130614   0.189   4.101  10.948 -0.5245  1.1633  0.1941
 3041TIP3    H230615   0.251   4.089  10.810  0.3461  0.1263  0.6606
 3042TIP3   OH230616   4.042   3.498  12.497  0.2010  0.2437 -0.2291
 3042TIP3    H130617   3.960   3.539  12.468  0.6377  0.7145 -0.8003
 3042TIP3    H230618   4.019   3.406  12.510 -0.6038  0.5121  0.3471
 3043TIP3   OH230619   4.524   5.071  12.295 -0.4519  0.5245 -0.0206
 3043TIP3    H130620   4.451   5.010  12.284  0.4930 -0.6423 -0.0122
 3043TIP3    H230621   4.494   5.133  12.361 -0.8249 -0.9547  1.2675
 3044TIP3   OH230622   0.588   0.188   3.620 -0.0383 -0.1968  0.0251
 3044TIP3    H130623   0.623   0.234   3.697 -3.4102  0.2301  1.4683
 3044TIP3    H230624   0.566   0.101   3.652  0.7598 -0.8637 -1.1597
 3045TIP3   OH230625   2.492   1.595  12.043  0.4817 -0.5400  0.0964
 3045TIP3    H130626   2.540   1.574  12.123 -0.3007 -0.8475  0.5058
 3045TIP3    H230627   2.558   1.598  11.974  1.7569  3.0413  1.2337
 3046TIP3   OH230628   3.506   4.456  14.954  0.1551  0.2697  0.2560
 3046TIP3    H130629   3.499   4.396  14.880  1.6798  1.2163 -0.6899
 3046TIP3    H230630   3.599   4.464  14.971 -0.0199  2.0608  0.6030
 3047TIP3   OH230631   1.575   4.208   5.344 -0.3903  0.3254  0.3978
 3047TIP3    H130632   1.612   4.201   5.256 -0.9163 -2.5926  0.3006
 3047TIP3    H230633   1.518   4.284   5.340  1.5378  1.7960 -0.9776
 3048TIP3   OH230634   2.060   6.709   4.356 -0.1678 -0.3684  0.2425
 3048TIP3    H130635   2.013   6.734   4.276  0.8303  0.3511 -0.1405
 3048TIP3    H230636   2.012   6.752   4.427  1.2116  2.3784 -0.3449
 3049TIP3   OH230637   2.205   1.819  12.280  0.9381  0.7277 -0.8986
 3049TIP3    H130638   2.221   1.867  12.199  0.5632 -0.1924 -1.5378
 3049TIP3    H230639   2.150   1.745  12.254 -1.2478  1.7432  0.6181
 3050TIP3   OH230640   5.751   4.157   1.173 -0.0399  0.7424  0.5242
 3050TIP3    H130641   5.816   4.088   1.160 -0.6267  0.0534  1.1030
 3050TIP3    H230642   5.746   4.168   1.268 -0.6291  0.9096  0.4781
 3051TIP3   OH230643   5.391   5.385   1.858 -0.3179  0.2957 -0.3022
 3051TIP3    H130644   5.405   5.476   1.834  0.0427 -0.2270 -2.2588
 3051TIP3    H230645   5.477   5.344   1.848 -0.7115 -0.4908 -0.5896
 3052TIP3   OH230646   2.372   3.958   4.321 -0.4011 -0.3687  0.0885
 3052TIP3    H130647   2.318   3.884   4.348  0.9224 -0.9605  1.2550
 3052TIP3    H230648   2.361   4.022   4.392 -1.0464  0.3065 -0.6048
 3053TIP3   OH230649   1.731   3.568  15.839  0.0687 -0.1665 -0.3591
 3053TIP3    H130650   1.709   3.475  15.830 -2.8048  0.5432 -1.3363
 3053TIP3    H230651   1.653   3.615  15.810  1.6287  2.6010 -0.3923
 3054TIP3   OH230652   4.115   6.611   4.907 -0.6089  0.3167  0.9320
 3054TIP3    H130653   4.173   6.687   4.899 -0.5707  0.2765  0.8191
 3054TIP3    H230654   4.038   6.645   4.953 -0.9394  0.6286  0.1833
 3055TIP3   OH230655   5.375   6.612  16.354  0.1354 -0.4059  0.4944
 3055TIP3    H130656   5.439   6.643  16.290  0.0382  0.9299  1.0132
 3055TIP3    H230657   5.388   6.670  16.430 -0.9407 -0.8289  1.0083
 3056TIP3   OH230658   5.523   5.199   2.870 -0.2308 -1.1063  0.0775
 3056TIP3    H130659   5.531   5.111   2.834 -0.2794 -1.4000  0.7513
 3056TIP3    H230660   5.595   5.205   2.934 -0.9883 -1.1338  0.9604
 3057TIP3   OH230661   3.763   2.450   2.219  0.5134  0.0053 -0.0054
 3057TIP3    H130662   3.758   2.540   2.251  0.0974 -0.0711  0.1567
 3057TIP3    H230663   3.847   2.444   2.174  1.4198 -0.0474  1.6152
 3058TIP3   OH230664   4.591   3.798   6.294  0.0781 -0.3201 -0.1624
 3058TIP3    H130665   4.619   3.843   6.214 -0.2519  0.1330 -0.0276
 3058TIP3    H230666   4.513   3.749   6.268 -1.6767  1.9245  0.4353
 3059TIP3   OH230667   4.087   6.270  13.294 -0.4560  0.1545 -0.0352
 3059TIP3    H130668   4.154   6.297  13.357 -1.0983 -0.9459  1.1887
 3059TIP3    H230669   4.054   6.351  13.257  1.1250  0.7432 -0.2153
 3060TIP3   OH230670   3.114   1.342  16.869  0.2708  0.5204 -0.4643
 3060TIP3    H130671   3.106   1.432  16.903  0.3399  0.0013  0.9828
 3060TIP3    H230672   3.041   1.333  16.808 -0.2053  1.3042 -0.0278
 3061TIP3   OH230673   2.002   2.865  11.914 -0.2207 -0.1926 -0.6786
 3061TIP3    H130674   1.924   2.864  11.858 -1.2733 -0.7834  0.7132
 3061TIP3    H230675   1.967   2.872  12.003  1.2926 -0.9640  0.0206
 3062TIP3   OH230676   4.957   2.324  16.869  1.1191 -0.8317 -0.6505
 3062TIP3    H130677   4.995   2.411  16.883  0.1656 -0.1264 -2.1189
 3062TIP3    H230678   4.941   2.321  16.774  1.0931 -2.6014 -0.6090
 3063TIP3   OH230679   5.449   6.754  12.400 -0.0911 -0.2458  0.2736
 3063TIP3    H130680   5.397   6.777  12.323 -0.2635 -0.3182  0.3673
 3063TIP3    H230681   5.417   6.812  12.469  0.3586  0.1170  0.1841
 3064TIP3   OH230682   2.912   2.328   4.358  0.3575  0.6723  0.1359
 3064TIP3    H130683   2.991   2.382   4.344  1.5883 -0.3744  2.5383
 3064TIP3    H230684   2.946   2.240   4.372 -1.5780 -0.7196 -2.9701
 3065TIP3   OH230685   5.867   0.489   4.496  0.8163  0.3072 -0.4168
 3065TIP3    H130686   5.915   0.507   4.577  0.4100  0.1968 -0.1445
 3065TIP3    H230687   5.934   0.479   4.430  1.1003  2.1239 -0.4566
 3066TIP3   OH230688   3.074   2.679   1.435 -0.1698 -0.3267 -0.3417
 3066TIP3    H130689   3.057   2.773   1.444  1.8603  0.1876 -1.2267
 3066TIP3    H230690   3.156   2.665   1.483 -0.9214 -1.8518  0.5567
 3067TIP3   OH230691   1.689   0.997   3.042  0.4936 -0.5095  0.6820
 3067TIP3    H130692   1.769   1.046   3.027  1.2207 -1.8827 -0.0538
 3067TIP3    H230693   1.684   0.987   3.137 -0.4894  2.2328  1.0338
 3068TIP3   OH230694   4.872   3.665  12.802 -0.2370 -0.0284 -0.2700
 3068TIP3    H130695   4.859   3.736  12.865  0.5510 -0.5179  0.4813
 3068TIP3    H230696   4.947   3.617  12.837 -0.9659 -1.4317 -0.5622
 3069TIP3   OH230697   5.283   1.535  13.278 -0.6276  0.5146  0.1285
 3069TIP3    H130698   5.342   1.589  13.225 -1.1479  2.0369  1.0283
 3069TIP3    H230699   5.340   1.493  13.342 -0.3652  1.0684  0.2639
 3070TIP3   OH230700   6.749   2.713   6.266 -0.4701 -0.1130  0.3009
 3070TIP3    H130701   6.811   2.640   6.260  1.0000  1.1915 -2.0481
 3070TIP3    H230702   6.703   2.713   6.183 -2.6654 -0.1499  1.4512
 3071TIP3   OH230703   1.018   4.593  14.002 -0.3264 -0.2492 -0.3305
 3071TIP3    H130704   1.046   4.668  14.055 -1.5119 -0.3138  0.4169
 3071TIP3    H230705   0.982   4.631  13.922 -1.0625 -0.0035  0.1118
 3072TIP3   OH230706   1.246   5.893   0.802 -0.0871 -0.4309 -0.3049
 3072TIP3    H130707   1.185   5.909   0.730  0.1570  1.4596 -0.1209
 3072TIP3    H230708   1.314   5.837   0.763 -0.6870 -0.5942 -1.1454
 3073TIP3   OH230709   3.761   5.235   1.233  1.0117  0.8309 -0.4548
 3073TIP3    H130710   3.766   5.317   1.283  1.1908  0.5359  0.0235
 3073TIP3    H230711   3.812   5.251   1.154  2.0513  0.7886  0.1952
 3074TIP3   OH230712   4.688   3.821   0.206  0.2981  0.3407  0.2279
 3074TIP3    H130713   4.694   3.892   0.142  1.5697  0.6347  0.6340
 3074TIP3    H230714   4.627   3.854   0.272 -1.6642 -0.2901 -1.1810
 3075TIP3   OH230715   1.082   5.298   3.643 -0.1532 -0.2792 -0.3787
 3075TIP3    H130716   1.164   5.283   3.598 -0.2943 -0.7553 -0.4893
 3075TIP3    H230717   1.100   5.274   3.734 -0.3029 -0.8790 -0.5018
 3076TIP3   OH230718   1.658   1.670   1.858  0.2087 -0.4555 -0.0280
 3076TIP3    H130719   1.571   1.657   1.897 -0.7062  2.9952 -0.5082
 3076TIP3    H230720   1.701   1.585   1.865 -2.6253 -1.9117  1.6461
 3077TIP3   OH230721   5.868   2.785   5.434  0.0909  0.2214  0.0965
 3077TIP3    H130722   5.813   2.817   5.506  0.1650  1.1621 -0.2541
 3077TIP3    H230723   5.814   2.793   5.356 -0.0555 -0.9768  0.0459
 3078TIP3   OH230724   5.917   3.093  15.573 -0.0790 -0.6545  0.2339
 3078TIP3    H130725   6.012   3.106  15.577 -0.1094 -0.2633 -0.2960
 3078TIP3    H230726   5.901   3.019  15.633  0.1033  1.5211  3.1813
 3079TIP3   OH230727   5.949   6.658  11.137 -0.0403 -0.1333 -0.2377
 3079TIP3    H130728   6.023   6.597  11.134 -0.1764 -0.2962 -0.2689
 3079TIP3    H230729   5.888   6.625  11.071 -0.3815 -0.3106  0.1575
 3080TIP3   OH230730   2.722   3.471   5.280  0.1795  0.0690  0.1454
 3080TIP3    H130731   2.730   3.543   5.218  1.7623  1.7853  2.2178
 3080TIP3    H230732   2.760   3.504   5.361 -1.2175 -2.2900  1.8977
 3081TIP3   OH230733   4.451   0.192   3.791  0.2226  0.3251 -0.2277
 3081TIP3    H130734   4.465   0.098   3.807  2.3105  0.8409  1.6072
 3081TIP3    H230735   4.477   0.205   3.700  1.5494 -0.6431 -0.0227
 3082TIP3   OH230736   2.413   4.496   6.045 -0.2338 -0.0145  0.3292
 3082TIP3    H130737   2.365   4.413   6.042  0.0004 -0.1557 -2.7102
 3082TIP3    H230738   2.348   4.562   6.021  0.0747  0.3692  0.5463
 3083TIP3   OH230739   2.330   2.940  10.481  0.3854 -0.4170  0.4808
 3083TIP3    H130740   2.415   2.907  10.451  0.0174 -1.6698  0.7681
 3083TIP3    H230741   2.282   2.862  10.509 -0.4999  0.3758  1.2505
 3084TIP3   OH230742   6.408   1.950  14.937  0.5515 -0.4999  0.1363
 3084TIP3    H130743   6.495   1.925  14.908  0.2815 -1.3736  0.0581
 3084TIP3    H230744   6.420   2.035  14.981  1.0137  0.6992 -2.1843
 3085TIP3   OH230745   3.770   2.296   2.471  0.9991 -0.4742 -0.3538
 3085TIP3    H130746   3.697   2.234   2.464  0.2258  0.3559  0.2285
 3085TIP3    H230747   3.769   2.343   2.388 -0.5249  1.0212  0.4521
 3086TIP3   OH230748   5.487   4.394  15.116 -0.3532  0.0894 -0.2501
 3086TIP3    H130749   5.415   4.333  15.135  0.8591 -0.8100  1.8062
 3086TIP3    H230750   5.480   4.411  15.022 -1.7672 -1.8850 -0.5668
 3087TIP3   OH230751   0.210   2.879  12.562  0.5130  0.3393 -0.7832
 3087TIP3    H130752   0.282   2.873  12.499 -0.2184 -1.6344 -1.5078
 3087TIP3    H230753   0.151   2.944  12.525  0.5147 -0.1659 -1.6900
 3088TIP3   OH230754   1.731   4.500  11.948 -0.1632 -0.2800 -0.2950
 3088TIP3    H130755   1.730   4.595  11.960  0.1318 -0.3211  0.0540
 3088TIP3    H230756   1.713   4.487  11.854 -1.9416  0.0651 -0.0410
 3089TIP3   OH230757   3.697   3.353   0.425  0.2256  0.1676  0.2275
 3089TIP3    H130758   3.755   3.311   0.489 -0.2495  0.0788  0.6039
 3089TIP3    H230759   3.667   3.433   0.469  0.9093  0.7717 -0.3804
 3090TIP3   OH230760   4.365   6.153   0.401  0.1159 -0.1080 -0.0281
 3090TIP3    H130761   4.434   6.091   0.379 -1.3921 -1.2144 -2.0348
 3090TIP3    H230762   4.401   6.238   0.376  1.6429 -0.3088  1.3300
 3091TIP3   OH230763   3.244   5.459   5.658 -0.7752 -0.4761  0.3994
 3091TIP3    H130764   3.317   5.399   5.643 -0.3760  0.0792  0.1221
 3091TIP3    H230765   3.169   5.413   5.619 -0.5134 -0.8867  0.3617
 3092TIP3   OH230766   3.869   3.531   5.293 -0.2762 -0.8290  0.2672
 3092TIP3    H130767   3.857   3.626   5.288 -3.0817 -1.1625 -1.1089
 3092TIP3    H230768   3.964   3.519   5.288  0.1953  1.8921  0.9118
 3093TIP3   OH230769   2.286   1.729  14.456 -0.3447  0.0563  0.5823
 3093TIP3    H130770   2.237   1.661  14.410 -0.1716  0.5397 -0.3424
 3093TIP3    H230771   2.223   1.800  14.468 -0.6353 -0.3838  1.8879
 3094TIP3   OH230772   5.340   2.584   0.429 -0.1277  0.1912 -0.2723
 3094TIP3    H130773   5.270   2.553   0.486 -0.7929  0.9162 -0.6803
 3094TIP3    H230774   5.386   2.505   0.402  0.0481 -0.1885  1.0706
 3095TIP3   OH230775   6.214   1.963  15.275 -0.0078 -0.2460  0.4576
 3095TIP3    H130776   6.256   2.033  15.325  2.3658 -1.2240 -0.0830
 3095TIP3    H230777   6.159   2.009  15.211  1.8229  1.1885 -0.1731
 3096TIP3   OH230778   1.642   0.378  14.755  0.2266 -0.3027  0.4005
 3096TIP3    H130779   1.665   0.442  14.823  0.4287 -1.1662  1.1654
 3096TIP3    H230780   1.629   0.430  14.676  1.2830  0.5922  0.7962
 3097TIP3   OH230781   3.250   4.203  15.406 -0.3216  0.0195 -0.1031
 3097TIP3    H130782   3.228   4.217  15.498 -3.0584 -1.4022 -0.4376
 3097TIP3    H230783   3.229   4.286  15.363  0.2410  0.4408  0.4170
 3098TIP3   OH230784   6.124   1.909   0.531 -0.4480  0.0978 -0.2648
 3098TIP3    H130785   6.038   1.895   0.491 -0.5483  1.8388 -0.7438
 3098TIP3    H230786   6.143   1.827   0.578 -1.4587 -1.0594 -1.7898
 3099TIP3   OH230787   3.338   1.495   5.459 -0.5336  0.1241 -0.1240
 3099TIP3    H130788   3.303   1.545   5.532  0.3749  0.4450  0.1045
 3099TIP3    H230789   3.263   1.481   5.401 -0.8288  1.6807 -0.1574
 3100TIP3   OH230790   5.162   1.328  13.569 -0.2503  0.0852  0.0235
 3100TIP3    H130791   5.227   1.259  13.560 -1.7166 -1.3143 -0.2735
 3100TIP3    H230792   5.211   1.409  13.557  0.9724 -0.9927 -3.3952
 3101TIP3   OH230793   1.224   2.084   2.234 -0.3204  0.9117  0.2142
 3101TIP3    H130794   1.194   1.998   2.203  1.1461 -0.0773  1.3839
 3101TIP3    H230795   1.297   2.106   2.176  0.5107  0.4458  1.0399
 3102TIP3   OH230796   4.013   1.657   4.449 -0.7090 -0.2408 -0.1874
 3102TIP3    H130797   3.954   1.721   4.489  0.4011  1.1706 -0.7442
 3102TIP3    H230798   3.991   1.659   4.356  0.7804  0.9818 -0.5537
 3103TIP3   OH230799   1.650   3.308  15.890 -0.3315 -0.3907  0.8513
 3103TIP3    H130800   1.648   3.215  15.913 -1.0887 -0.6226 -0.1206
 3103TIP3    H230801   1.570   3.344  15.928 -1.6790 -0.8089 -1.4564
 3104TIP3   OH230802   5.461   3.738   1.379  0.3245 -0.0057 -0.3805
 3104TIP3    H130803   5.432   3.646   1.383 -1.7510  0.3746 -3.3064
 3104TIP3    H230804   5.405   3.783   1.443  0.6674 -0.6106  0.3602
 3105TIP3   OH230805   3.006   0.991   1.886 -0.2036  0.1530  0.1399
 3105TIP3    H130806   3.090   0.987   1.930  0.7835 -0.4469 -1.7060
 3105TIP3    H230807   3.023   1.038   1.805 -1.8493  0.7853  0.1052
 3106TIP3   OH230808   1.147   4.865  13.092 -0.1830 -0.3294  0.1985
 3106TIP3    H130809   1.213   4.795  13.089  0.3074  0.1144 -2.1139
 3106TIP3    H230810   1.195   4.941  13.125  0.2027 -0.2948 -0.4088
 3107TIP3   OH230811   1.416   1.322  12.569 -0.0843  0.0175  0.1295
 3107TIP3    H130812   1.322   1.335  12.558 -0.0773 -0.2891 -0.3650
 3107TIP3    H230813   1.456   1.403  12.536 -0.0756 -0.8259 -2.1070
 3108TIP3   OH230814   6.572   4.235   6.024 -0.1400 -0.6919  0.1362
 3108TIP3    H130815   6.539   4.202   5.940  1.5029 -3.9008  0.5868
 3108TIP3    H230816   6.498   4.225   6.084 -0.4362 -1.2885 -0.3075
 3109TIP3   OH230817   2.370   0.708   2.523  0.4994 -0.0399  0.0464
 3109TIP3    H130818   2.391   0.798   2.546 -0.6206 -0.1988  1.8859
 3109TIP3    H230819   2.371   0.661   2.607 -0.4970 -1.4032 -0.6629
 3110TIP3   OH230820   5.776   2.967   6.132  0.2019  0.2152 -0.4290
 3110TIP3    H130821   5.792   3.053   6.092 -0.4071 -0.9148 -3.3707
 3110TIP3    H230822   5.681   2.959   6.136  0.2487 -0.4308 -0.4593
 3111TIP3   OH230823   2.157   6.730  13.582  0.2889 -0.0772  0.6747
 3111TIP3    H130824   2.234   6.738  13.526 -0.1546  1.0364  0.1795
 3111TIP3    H230825   2.155   6.638  13.607  0.7138 -0.5433 -0.8557
 3112TIP3   OH230826   5.214   4.287   1.201  0.3921  0.2671  0.3788
 3112TIP3    H130827   5.240   4.365   1.248  0.4846  0.5339 -0.1044
 3112TIP3    H230828   5.252   4.298   1.114  0.3512 -0.2833  0.2877
 3113TIP3   OH230829   2.791   4.610   6.402  0.0064 -0.2242 -0.4758
 3113TIP3    H130830   2.729   4.544   6.372  1.6330 -1.0940 -2.1614
 3113TIP3    H230831   2.739   4.669   6.457 -2.5208 -0.3196 -2.5708
 3114TIP3   OH230832   3.438   1.587   1.840 -0.1573  0.2430 -0.3477
 3114TIP3    H130833   3.346   1.601   1.860 -0.4517 -0.1363 -1.3792
 3114TIP3    H230834   3.475   1.552   1.921 -1.0154 -0.0152 -0.0545
 3115TIP3   OH230835   0.123   1.649   3.214 -0.5375  0.3502  0.5153
 3115TIP3    H130836   0.140   1.717   3.279 -0.6599  1.2975 -0.4140
 3115TIP3    H230837   0.131   1.694   3.130  0.3905 -1.0192 -0.1639
 3116TIP3   OH230838   3.124   5.097  13.300 -0.5701 -0.2804 -0.1098
 3116TIP3    H130839   3.093   5.169  13.355  1.8024  0.6532  0.1192
 3116TIP3    H230840   3.151   5.029  13.362  1.9999  0.7289  0.0086
 3117TIP3   OH230841   0.219   4.992   5.502 -0.3756  0.3977  0.4413
 3117TIP3    H130842   0.143   4.949   5.541 -0.7571  0.5516 -0.1259
 3117TIP3    H230843   0.247   4.935   5.431  0.0834  0.3077  0.6917
 3118TIP3   OH230844   4.755   3.222  15.037  0.4756  0.2933  0.2655
 3118TIP3    H130845   4.800   3.141  15.063  1.3153  1.6890  3.6022
 3118TIP3    H230846   4.666   3.194  15.016  0.2038 -1.3398  3.1154
 3119TIP3   OH230847   0.927   3.302  11.145  0.4837  0.2065  0.4155
 3119TIP3    H130848   0.863   3.372  11.144  1.0217  0.7851 -2.5506
 3119TIP3    H230849   0.937   3.279  11.237  0.5682  4.2619  1.5810
 3120TIP3   OH230850   1.448   4.936  16.788 -0.3556  0.0560 -0.4730
 3120TIP3    H130851   1.465   4.872  16.718 -1.5126 -3.0761  1.8483
 3120TIP3    H230852   1.519   4.922  16.851 -1.1104  0.4381  0.4787
 3121TIP3   OH230853   4.070   2.728  15.089 -0.2752  0.8565 -0.2180
 3121TIP3    H130854   4.120   2.775  15.023  0.7415 -0.0822 -0.1476
 3121TIP3    H230855   4.075   2.784  15.167  2.3225 -0.0445  0.3642
 3122TIP3   OH230856   0.062   0.704  12.889 -0.0862 -0.3105 -0.6165
 3122TIP3    H130857   0.135   0.716  12.950 -0.5943 -1.4522  0.2699
 3122TIP3    H230858  -0.016   0.714  12.944 -0.5547 -1.3942 -1.0680
 3123TIP3   OH230859   4.887   1.742   3.761 -0.2023  0.0898  0.3062
 3123TIP3    H130860   4.977   1.734   3.790  0.4375  1.4186 -1.1533
 3123TIP3    H230861   4.863   1.832   3.780 -1.3042 -0.2976  0.8447
 3124TIP3   OH230862   2.464   0.936  11.939  0.1635 -0.5154 -0.0343
 3124TIP3    H130863   2.379   0.975  11.919  0.6053  1.0156  0.8845
 3124TIP3    H230864   2.497   0.987  12.013  2.2882 -0.4747 -0.9379
 3125TIP3   OH230865   5.751   4.202   4.185  0.1836  0.5435  0.0176
 3125TIP3    H130866   5.737   4.250   4.266  0.9005  0.8001 -0.0085
 3125TIP3    H230867   5.842   4.174   4.188 -0.4544 -1.7229  0.5143
 3126TIP3   OH230868   5.760   5.563   0.072  0.3978  0.0362  0.2476
 3126TIP3    H130869   5.706   5.582  -0.006 -2.1089 -2.0858  1.2860
 3126TIP3    H230870   5.775   5.468   0.067  1.1133  0.0468  1.7964
 3127TIP3   OH230871   6.000   6.791  10.819 -0.5673 -0.0259  0.1467
 3127TIP3    H130872   6.078   6.737  10.831  0.0588  1.0669  1.0772
 3127TIP3    H230873   5.935   6.730  10.783  0.8888 -0.7995 -1.2972
 3128TIP3   OH230874   5.048   0.332  13.385 -0.0827  0.1910 -0.4302
 3128TIP3    H130875   5.073   0.255  13.436 -1.4548  0.3963  0.6238
 3128TIP3    H230876   5.120   0.346  13.324 -0.2959 -2.6439 -1.4878
 3129TIP3   OH230877   5.912   2.149   2.781  0.0075  0.4460  0.4185
 3129TIP3    H130878   6.003   2.129   2.757 -0.4721 -0.7441 -0.5074
 3129TIP3    H230879   5.899   2.102   2.864  0.6049  1.6949  1.2535
 3130TIP3   OH230880   4.954   0.880  15.356  0.2493 -0.0580  0.0702
 3130TIP3    H130881   5.004   0.962  15.349 -0.9083  0.7793  0.9861
 3130TIP3    H230882   4.990   0.837  15.434  0.9205 -0.4848 -0.4634
 3131TIP3   OH230883   1.755   2.666   6.276  0.0996  0.0698 -0.0740
 3131TIP3    H130884   1.709   2.594   6.319 -0.3943 -1.4511 -2.8818
 3131TIP3    H230885   1.813   2.701   6.343  1.0746 -3.5725  1.2258
 3132TIP3   OH230886   4.505   3.383   0.791  0.1583  0.3053 -0.5076
 3132TIP3    H130887   4.517   3.308   0.850  0.8721 -0.5428 -1.6917
 3132TIP3    H230888   4.411   3.402   0.796 -0.0564 -0.7335 -0.2591
 3133TIP3   OH230889   0.318   1.344  11.717 -0.1093  0.4213  0.3599
 3133TIP3    H130890   0.365   1.382  11.792 -0.8451 -0.4006  1.2814
 3133TIP3    H230891   0.364   1.262  11.700  0.0169  0.5777 -0.0425
 3134TIP3   OH230892   5.656   2.565  12.177  0.4307 -0.0981 -0.7350
 3134TIP3    H130893   5.626   2.653  12.155 -0.9703 -0.1094  0.9519
 3134TIP3    H230894   5.588   2.508  12.143  1.7596 -0.6746 -2.6314
 3135TIP3   OH230895   0.418   3.344   2.586 -0.5645  0.4617 -0.5291
 3135TIP3    H130896   0.374   3.259   2.576 -1.5524  0.8089  0.6279
 3135TIP3    H230897   0.395   3.393   2.507  1.0108 -0.7299 -1.8112
 3136TIP3   OH230898   0.620   6.013  16.326 -0.1427 -0.6523  0.3873
 3136TIP3    H130899   0.667   5.933  16.300 -0.2334 -0.7858  0.6401
 3136TIP3    H230900   0.597   6.055  16.243 -0.1929 -0.9461  0.2527
 3137TIP3   OH230901   4.547   0.146   1.649 -0.1852  0.4346  0.0614
 3137TIP3    H130902   4.556   0.193   1.731  1.3205  1.5247 -0.6931
 3137TIP3    H230903   4.629   0.097   1.640 -0.4921  0.0332 -0.6143
 3138TIP3   OH230904   0.518   5.382   1.299  0.2264 -0.0345 -0.2898
 3138TIP3    H130905   0.497   5.474   1.315  0.9298  0.1416 -0.3505
 3138TIP3    H230906   0.596   5.384   1.244  1.4992 -0.6680  1.4030
 3139TIP3   OH230907   0.265   1.496  13.316  0.0069  0.0588 -0.4847
 3139TIP3    H130908   0.263   1.588  13.343 -0.5074  0.3953 -1.6240
 3139TIP3    H230909   0.255   1.499  13.221 -0.0051 -1.1825 -0.5313
 3140TIP3   OH230910   2.993   1.951   5.036  0.4387  0.4425  0.3459
 3140TIP3    H130911   2.934   1.878   5.054 -0.1928  0.7206 -0.5055
 3140TIP3    H230912   2.977   2.013   5.107 -1.8531  1.4387 -0.9249
 3141TIP3   OH230913   2.887   5.708  15.277  0.1423  0.0391  0.6220
 3141TIP3    H130914   2.927   5.734  15.194 -2.0023  1.4423 -0.0783
 3141TIP3    H230915   2.878   5.613  15.271  3.0370 -0.3441  0.7717
 3142TIP3   OH230916   3.329   0.378   1.767  0.0058 -0.2165 -0.2927
 3142TIP3    H130917   3.234   0.386   1.755  0.1111 -0.1632 -1.1699
 3142TIP3    H230918   3.353   0.301   1.716  0.5482  0.2360 -0.7294
 3143TIP3   OH230919   4.714   2.853   0.009 -0.4386 -0.4687 -0.2630
 3143TIP3    H130920   4.668   2.771  -0.006  1.0155 -1.7278  1.5900
 3143TIP3    H230921   4.798   2.826   0.047 -0.2977  1.9007  1.2859
 3144TIP3   OH230922   2.390   6.176  16.119 -0.3874 -0.4276 -0.0844
 3144TIP3    H130923   2.413   6.268  16.134 -0.5493 -0.4226  0.1512
 3144TIP3    H230924   2.469   6.127  16.141 -0.9543 -0.5209  2.0313
 3145TIP3   OH230925   0.466   4.113   0.288 -0.2397  0.3661  0.6520
 3145TIP3    H130926   0.430   4.199   0.310  0.0401  0.8463 -0.6664
 3145TIP3    H230927   0.558   4.118   0.314  0.4245  1.3940 -1.6703
 3146TIP3   OH230928   3.724   5.683  15.972 -0.3456 -0.0170  0.6505
 3146TIP3    H130929   3.721   5.679  15.877  0.8726 -0.0737  0.6077
 3146TIP3    H230930   3.651   5.628  16.001 -1.5127  1.0043 -0.2490
 3147TIP3   OH230931   2.835   6.223  14.290  0.3280 -0.7436 -0.4082
 3147TIP3    H130932   2.875   6.310  14.292 -0.3994 -0.4162  0.0657
 3147TIP3    H230933   2.872   6.178  14.366  2.1298 -1.5124 -1.6705
 3148TIP3   OH230934   0.188   0.401  12.229 -0.1431 -0.0247 -0.1670
 3148TIP3    H130935   0.136   0.345  12.287 -0.1820 -0.6044 -0.7538
 3148TIP3    H230936   0.278   0.371  12.241  0.2587  1.6307  1.6044
 3149TIP3   OH230937   6.522   2.581  14.176  0.7689  0.1833  0.5861
 3149TIP3    H130938   6.585   2.650  14.196  1.1601 -0.2123  0.7325
 3149TIP3    H230939   6.534   2.563  14.083  2.8017 -1.7804  1.1690
 3150TIP3   OH230940   4.881   6.056   2.450  0.3132  0.4364  0.8328
 3150TIP3    H130941   4.966   6.013   2.445 -0.3153 -0.6829 -1.5969
 3150TIP3    H230942   4.822   5.988   2.481 -0.2812  0.1404 -0.8542
 3151TIP3   OH230943   5.834   6.556  12.217  0.2258  0.1920 -0.0365
 3151TIP3    H130944   5.823   6.650  12.201  0.5993  0.0433 -1.2669
 3151TIP3    H230945   5.784   6.513  12.148  1.1822 -0.5029 -0.3251
 3152TIP3   OH230946   2.808   4.967   2.443  0.2444  0.2462 -0.3433
 3152TIP3    H130947   2.794   5.039   2.505 -1.1283  0.6199 -1.0566
 3152TIP3    H230948   2.752   4.897   2.475  1.3954 -0.4581  0.2102
 3153TIP3   OH230949   2.589   2.650  16.122  0.4931  0.6057  0.0320
 3153TIP3    H130950   2.615   2.566  16.083  1.7233  0.7211  0.5425
 3153TIP3    H230951   2.672   2.696  16.136 -0.0776  1.4046  0.8745
 3154TIP3   OH230952   1.243   1.253   5.483  0.3178  0.3428  0.0857
 3154TIP3    H130953   1.202   1.207   5.410  0.5190  2.7240 -1.6337
 3154TIP3    H230954   1.328   1.282   5.449  0.2643  1.8441  1.1254
 3155TIP3   OH230955   0.190   2.648   4.732  0.0645  0.1470 -0.4082
 3155TIP3    H130956   0.217   2.676   4.645 -0.5185  1.1007 -0.2985
 3155TIP3    H230957   0.234   2.709   4.792 -2.7325  2.2070 -0.2488
 3156TIP3   OH230958   4.986   6.395  12.948 -0.9379 -0.1902  0.3008
 3156TIP3    H130959   5.021   6.318  12.993 -0.1338  0.6246  1.1179
 3156TIP3    H230960   5.013   6.384  12.857 -1.2649 -1.1082  0.3008
 3157TIP3   OH230961   2.480   5.628   2.136  0.3452  0.0210  0.5461
 3157TIP3    H130962   2.437   5.591   2.214  1.5440  1.8532  2.1442
 3157TIP3    H230963   2.426   5.597   2.063 -2.3396  0.3152  2.2661
 3158TIP3   OH230964   1.629   0.945  14.586 -0.0510 -0.0407 -0.0019
 3158TIP3    H130965   1.627   0.895  14.667 -0.7573 -1.4793 -0.8533
 3158TIP3    H230966   1.714   0.989  14.586  0.6884 -1.4058  0.7097
 3159TIP3   OH230967   5.170   5.521  16.342 -0.4062  0.1368 -0.1097
 3159TIP3    H130968   5.223   5.510  16.421  0.2502  1.8571 -0.2854
 3159TIP3    H230969   5.085   5.549  16.375 -0.6198 -0.6471  0.0462
 3160TIP3   OH230970   4.160   0.411  14.277  0.1179  0.0569 -0.1766
 3160TIP3    H130971   4.175   0.324  14.312 -0.0547 -0.6547 -1.7867
 3160TIP3    H230972   4.065   0.417  14.266 -0.1518  1.4038  2.1701
 3161TIP3   OH230973   5.305   0.496  12.083 -0.1739  0.5811  0.1820
 3161TIP3    H130974   5.340   0.568  12.136  0.9457  0.0919  0.1488
 3161TIP3    H230975   5.320   0.523  11.993 -1.5505  1.1556  0.1012
 3162TIP3   OH230976   5.835   0.396   4.146 -0.2170 -0.3856 -0.7933
 3162TIP3    H130977   5.843   0.319   4.090  0.5008 -0.7208 -0.2449
 3162TIP3    H230978   5.898   0.458   4.110  0.6012 -0.7827 -0.0881
 3163TIP3   OH230979   6.677   6.300   3.693 -0.3938 -0.0229 -0.0868
 3163TIP3    H130980   6.649   6.377   3.743  1.7506  1.6717 -1.3344
 3163TIP3    H230981   6.608   6.235   3.708 -1.2495  1.3794  2.7133
 3164TIP3   OH230982   0.121   2.112   0.059 -0.1415  1.0152  0.1333
 3164TIP3    H130983   0.079   2.192   0.027  0.5285  0.9879 -0.8751
 3164TIP3    H230984   0.211   2.117   0.024 -0.4027 -0.6788 -0.8690
 3165TIP3   OH230985   3.846   1.062  17.211  0.2521  0.4556  0.3910
 3165TIP3    H130986   3.810   0.974  17.219 -0.7171  0.8078  0.0443
 3165TIP3    H230987   3.797   1.102  17.138  0.5227  1.3461  0.6784
 3166TIP3   OH230988   4.698   0.055   3.546  0.0036 -0.1575 -0.3271
 3166TIP3    H130989   4.611   0.089   3.526  0.4457  0.4042 -1.4014
 3166TIP3    H230990   4.728   0.106   3.621 -1.4931 -1.9594  1.6393
 3167TIP3   OH230991   2.668   1.030   5.535  0.4347  0.0599  0.6503
 3167TIP3    H130992   2.674   1.094   5.606 -1.7372  1.4826 -0.3478
 3167TIP3    H230993   2.656   0.946   5.579 -1.2265  0.9412  1.9895
 3168TIP3   OH230994   4.477   3.716   4.845  0.0509 -0.6464  0.1711
 3168TIP3    H130995   4.543   3.668   4.894  0.6645 -0.5092 -0.4988
 3168TIP3    H230996   4.515   3.728   4.758 -0.6008 -0.0254 -0.0471
 3169TIP3   OH230997   3.837   2.463  14.251 -0.3390  0.3946  0.1119
 3169TIP3    H130998   3.913   2.464  14.309 -1.2280  0.4108  1.3219
 3169TIP3    H230999   3.863   2.515  14.175  0.7057  0.7554  0.7054
 3170TIP3   OH231000   1.981   0.853   0.258 -0.1348 -0.1969  0.2272
 3170TIP3    H131001   2.022   0.938   0.269  1.4953 -0.4386 -2.6951
 3170TIP3    H231002   1.888   0.869   0.269  0.0150  2.2570 -1.3503
 3171TIP3   OH231003   2.011   1.448  14.540 -0.1278  0.8388 -0.5480
 3171TIP3    H131004   1.983   1.506  14.469 -2.7599 -0.3110 -0.5460
 3171TIP3    H231005   1.939   1.450  14.603 -0.7398 -2.9337 -0.9039
 3172TIP3   OH231006   2.681   3.552   6.471 -0.3762 -0.3457 -0.2632
 3172TIP3    H131007   2.724   3.513   6.548 -1.2804 -0.6253  0.1213
 3172TIP3    H231008   2.629   3.624   6.507  1.0153  1.0349 -0.9276
 3173TIP3   OH231009   0.143   0.955  15.772  0.0998  0.1032 -0.0650
 3173TIP3    H131010   0.140   0.859  15.774  1.3527  0.0446 -0.4716
 3173TIP3    H231011   0.125   0.981  15.863  1.0202 -0.5631  0.3251
 3174TIP3   OH231012   4.239   4.486   3.198  0.5209  0.0252  0.3906
 3174TIP3    H131013   4.260   4.475   3.105 -0.1398  2.3235 -0.0768
 3174TIP3    H231014   4.325   4.489   3.242  0.8337 -2.3089  0.1052
 3175TIP3   OH231015   2.210   0.453   4.406 -0.3748 -0.3756 -0.5694
 3175TIP3    H131016   2.249   0.449   4.494 -0.5411  1.4584 -0.3592
 3175TIP3    H231017   2.183   0.363   4.387 -2.3017 -0.5090  2.1830
 3176TIP3   OH231018   6.444   3.688   6.557 -0.2383 -0.3131  0.3368
 3176TIP3    H131019   6.421   3.641   6.637 -1.3906 -0.4101 -0.0368
 3176TIP3    H231020   6.398   3.641   6.487  0.2034  0.1733 -0.2958
 3177TIP3   OH231021   5.071   3.445  10.699  0.0365 -0.0599 -0.2269
 3177TIP3    H131022   5.133   3.510  10.668  0.2891 -0.1713  0.0337
 3177TIP3    H231023   5.031   3.485  10.777 -0.7686  0.3177 -0.8177
 3178TIP3   OH231024   6.487   3.747   4.014  0.1794  0.5931 -0.2020
 3178TIP3    H131025   6.575   3.711   4.004  0.6231  1.8508 -1.0520
 3178TIP3    H231026   6.443   3.726   3.931 -1.0102 -1.7112  0.9128
 3179TIP3   OH231027   2.788   0.370   5.509 -0.1380 -0.1312  0.3381
 3179TIP3    H131028   2.764   0.435   5.575  0.6161  0.6326 -0.1152
 3179TIP3    H231029   2.729   0.386   5.436 -0.7774 -0.7870  0.6910
 3180TIP3   OH231030   6.638   0.693   4.379 -0.2311 -0.5774 -0.4010
 3180TIP3    H131031   6.604   0.738   4.456  1.4048 -1.3352  0.8152
 3180TIP3    H231032   6.561   0.653   4.339 -1.3010  0.9116  0.0550
 3181TIP3   OH231033   1.378   0.289  14.919  0.9903  0.0920  0.1239
 3181TIP3    H131034   1.422   0.362  14.965  0.3348 -0.6006  1.9442
 3181TIP3    H231035   1.448   0.248  14.867  2.0663  0.2256  1.4078
 3182TIP3   OH231036   4.942   2.385  11.476  0.2201  0.2859  0.0191
 3182TIP3    H131037   4.910   2.317  11.535 -0.0656 -0.7104 -1.2373
 3182TIP3    H231038   5.035   2.393  11.496 -0.1187  0.8950  1.4750
 3183TIP3   OH231039   1.875   2.912   6.391 -0.2131  0.2323 -0.6706
 3183TIP3    H131040   1.851   3.001   6.365 -2.3592 -0.3430 -0.8454
 3183TIP3    H231041   1.914   2.923   6.478 -0.7306  1.3332 -0.5489
 3184TIP3   OH231042   1.764   1.612   1.316  0.0756 -0.0989 -0.4255
 3184TIP3    H131043   1.839   1.556   1.337  1.8183  1.8899 -0.8603
 3184TIP3    H231044   1.719   1.625   1.400 -1.1021 -2.9827 -0.5131
 3185TIP3   OH231045   6.724   2.410  12.363  0.4972  0.1637 -0.3243
 3185TIP3    H131046   6.705   2.391  12.271 -2.0685  1.2222 -0.0937
 3185TIP3    H231047   6.652   2.466  12.392  0.6076 -1.0191  2.6446
 3186TIP3   OH231048   0.067   3.017   0.487  0.1772  0.1397  0.0759
 3186TIP3    H131049   0.142   3.001   0.545 -0.5578 -1.3386  0.6877
 3186TIP3    H231050   0.084   2.960   0.412  0.0760  0.4381 -0.1717
 3187TIP3   OH231051   4.775   2.847   5.175  0.1859  0.2906 -0.0283
 3187TIP3    H131052   4.767   2.785   5.102 -2.2638  0.3662  0.0832
 3187TIP3    H231053   4.858   2.891   5.159  0.8220 -1.2989 -1.4802
 3188TIP3   OH231054   6.732   3.813  13.335  0.7694  0.0322 -0.2149
 3188TIP3    H131055   6.646   3.770  13.337 -0.0507  1.6114  1.2708
 3188TIP3    H231056   6.786   3.761  13.396  0.2727  0.1622  0.3450
 3189TIP3   OH231057   5.421   2.057   1.790 -0.3816 -0.2953  0.3804
 3189TIP3    H131058   5.462   2.107   1.720 -1.1902 -1.8693 -1.3220
 3189TIP3    H231059   5.344   2.017   1.749  0.2724 -2.9851  1.5680
 3190TIP3   OH231060   3.970   3.546   3.183 -0.0942 -0.0873 -0.1004
 3190TIP3    H131061   4.014   3.548   3.099  1.2893  2.0428  0.5961
 3190TIP3    H231062   3.887   3.590   3.167 -0.1997 -0.4215 -0.5070
 3191TIP3   OH231063   5.500   6.736   0.267  0.3048  0.0071  0.7675
 3191TIP3    H131064   5.412   6.752   0.233  0.7116  1.6369  0.4097
 3191TIP3    H231065   5.537   6.672   0.206  0.4456  1.6732 -0.9979
 3192TIP3   OH231066   4.826   0.714  17.108 -0.1290 -0.5677  0.6361
 3192TIP3    H131067   4.788   0.681  17.189 -1.2842  0.3690  0.4987
 3192TIP3    H231068   4.771   0.787  17.083  0.3077 -0.7169 -0.9113
 3193TIP3   OH231069   4.242   5.764  14.136  0.2303 -0.2556  0.1440
 3193TIP3    H131070   4.152   5.757  14.167  0.3311  0.8714  0.7150
 3193TIP3    H231071   4.250   5.854  14.106  1.3625 -0.1512  0.7243
 3194TIP3   OH231072   0.107   3.598   4.220  0.3976 -1.0111  0.0629
 3194TIP3    H131073   0.046   3.597   4.146 -0.4103  0.6862  0.6611
 3194TIP3    H231074   0.192   3.613   4.180 -0.2827  2.1163 -0.4608
 3195TIP3   OH231075   6.020   1.679   4.407 -0.0192 -0.3201 -0.3451
 3195TIP3    H131076   5.952   1.611   4.399  0.3586 -0.5540 -1.8733
 3195TIP3    H231077   6.019   1.724   4.322  2.6968 -1.2806 -0.9998
 3196TIP3   OH231078   2.749   3.634  12.811 -0.5580 -0.5142  0.1241
 3196TIP3    H131079   2.731   3.540  12.820 -0.7508 -0.3453  1.7314
 3196TIP3    H231080   2.844   3.640  12.810 -0.5436 -0.7152  0.1304
 3197TIP3   OH231081   3.043   3.102   5.166  0.0763  0.0816 -0.2656
 3197TIP3    H131082   2.999   3.047   5.231 -0.8108 -1.2586 -1.9247
 3197TIP3    H231083   3.136   3.092   5.186 -0.0526 -2.0760 -0.4984
 3198TIP3   OH231084   1.480   6.494  12.170  0.0942  0.8218  0.0216
 3198TIP3    H131085   1.419   6.459  12.105 -0.0226 -0.2491  0.6769
 3198TIP3    H231086   1.518   6.416  12.211  0.8957  1.4786  0.5557
 3199TIP3   OH231087   3.300   0.810   5.332  0.0562  0.3987  0.1860
 3199TIP3    H131088   3.305   0.898   5.294 -1.1644 -0.3061 -1.8167
 3199TIP3    H231089   3.381   0.767   5.304  1.7298  1.4734  3.0393
 3200TIP3   OH231090   5.540   6.230  14.845  0.6185 -0.3718 -0.4221
 3200TIP3    H131091   5.593   6.191  14.775 -0.1631  0.3286 -1.4520
 3200TIP3    H231092   5.553   6.325  14.834  1.7855 -0.2727  1.4632
 3201TIP3   OH231093   3.597   2.991   2.130 -0.2768 -0.1929 -0.4351
 3201TIP3    H131094   3.546   2.931   2.184 -0.1993  0.6713  0.6221
 3201TIP3    H231095   3.678   3.005   2.180  0.4961 -0.6114 -1.5265
 3202TIP3   OH231096   5.524   0.642   3.391 -0.8058  0.0294 -0.0790
 3202TIP3    H131097   5.462   0.654   3.319 -1.5225 -0.0886  0.5069
 3202TIP3    H231098   5.594   0.705   3.373 -1.2155  0.3398 -0.6198
 3203TIP3   OH231099   2.123   4.637   4.569  0.0423 -0.0137 -0.5368
 3203TIP3    H131100   2.115   4.678   4.483  0.1289  0.0111 -0.5322
 3203TIP3    H231101   2.050   4.673   4.619  0.5924  0.7606 -0.2716
 3204TIP3   OH231102   0.702   3.596  16.457  0.3210 -0.0628 -0.0721
 3204TIP3    H131103   0.749   3.523  16.418  1.4649  0.7774 -0.3352
 3204TIP3    H231104   0.711   3.582  16.551 -1.0285 -1.2077 -0.0854
 3205TIP3   OH231105   3.621   5.246  12.772  0.2142  0.0406 -0.0718
 3205TIP3    H131106   3.552   5.286  12.826  1.6696  1.5291  0.7814
 3205TIP3    H231107   3.658   5.319  12.723  0.3493 -0.9599 -1.5206
 3206TIP3   OH231108   4.172   2.606   1.781  0.2668  0.1037  0.0330
 3206TIP3    H131109   4.186   2.606   1.875 -0.1212 -0.6954  0.0973
 3206TIP3    H231110   4.251   2.565   1.745  0.3002  0.1695  0.0319
 3207TIP3   OH231111   1.915   5.734  10.788  0.3864 -0.1208 -0.2656
 3207TIP3    H131112   1.936   5.737  10.695 -0.6201  2.1872 -0.4942
 3207TIP3    H231113   1.997   5.710  10.830  0.7356 -1.7131 -1.7485
 3208TIP3   OH231114   2.729   6.476  10.457 -0.0541 -0.2763  0.2080
 3208TIP3    H131115   2.788   6.454  10.529  0.0665 -0.0815  0.1682
 3208TIP3    H231116   2.644   6.491  10.499 -0.4758 -2.1393  0.1063
 3209TIP3   OH231117   0.078   0.445  13.851  0.4581 -0.0341 -0.3011
 3209TIP3    H131118   0.038   0.518  13.898  1.2818 -0.0848  0.5002
 3209TIP3    H231119   0.168   0.473  13.837  1.6972 -2.0730  2.7227
 3210TIP3   OH231120   0.793   6.629  14.888  0.4441  0.1895  0.6187
 3210TIP3    H131121   0.797   6.626  14.792  0.4658  1.4481  0.5670
 3210TIP3    H231122   0.875   6.589  14.916  0.1986 -0.6850  0.1289
 3211TIP3   OH231123   6.204   3.312   0.749  0.2169 -0.2044  0.0354
 3211TIP3    H131124   6.147   3.236   0.735 -0.4190  0.4821 -1.3442
 3211TIP3    H231125   6.270   3.282   0.811 -0.3499 -1.7084 -0.0507
 3212TIP3   OH231126   4.540   4.409  12.065 -0.1716  0.5316  0.2592
 3212TIP3    H131127   4.449   4.424  12.089 -0.5194 -1.8511  0.7006
 3212TIP3    H231128   4.588   4.481  12.106 -1.2615 -0.8903  4.6397
 3213TIP3   OH231129   5.808   1.883  16.889 -0.0125  0.0051 -0.1821
 3213TIP3    H131130   5.871   1.908  16.955 -0.3828  0.8676 -0.1472
 3213TIP3    H231131   5.803   1.958  16.830 -0.8697 -0.1090 -0.2753
 3214TIP3   OH231132   3.674   0.175   2.199 -0.3021 -0.1910 -0.3213
 3214TIP3    H131133   3.736   0.212   2.136 -0.5449 -1.2414 -1.1972
 3214TIP3    H231134   3.728   0.134   2.266 -0.0509 -0.2928 -0.5881
 3215TIP3   OH231135   6.000   3.287  13.823 -0.5758 -0.0292  0.8260
 3215TIP3    H131136   6.024   3.254  13.910  0.6227 -0.7145  0.2647
 3215TIP3    H231137   5.907   3.267  13.815 -0.1394 -2.3801  0.9418
 3216TIP3   OH231138   5.174   1.548  16.498  0.0048  0.5064 -0.0809
 3216TIP3    H131139   5.080   1.552  16.480  0.0812 -3.5023 -2.6449
 3216TIP3    H231140   5.180   1.543  16.594 -2.2762  1.6154  0.1779
 3217TIP3   OH231141   2.924   0.416  16.097  0.2107 -0.0239  0.2860
 3217TIP3    H131142   2.911   0.452  16.009  0.1507 -0.9153 -0.0889
 3217TIP3    H231143   2.843   0.369  16.116 -0.4371  1.5097  1.5204
 3218TIP3   OH231144   2.756   1.050  13.743  0.2275  0.1945 -0.1165
 3218TIP3    H131145   2.841   1.088  13.724  0.6348  0.0697  1.3721
 3218TIP3    H231146   2.748   1.055  13.838 -0.9715 -0.7644 -0.1469
 3219TIP3   OH231147   6.314   0.602  14.827 -0.0842 -0.0194  0.3449
 3219TIP3    H131148   6.371   0.532  14.796 -0.1651  0.0885 -0.0628
 3219TIP3    H231149   6.370   0.680  14.831  0.1929 -0.2644  1.5386
 3220TIP3   OH231150   1.418   4.045   1.171  0.3370  0.1739  0.9293
 3220TIP3    H131151   1.475   4.120   1.191 -2.1765  2.5251  0.0038
 3220TIP3    H231152   1.365   4.034   1.251  0.4004 -0.3548  0.9013
 3221TIP3   OH231153   5.201   6.238   1.193  0.3712  0.7663 -0.0617
 3221TIP3    H131154   5.116   6.246   1.151 -0.2883  3.0157  1.5016
 3221TIP3    H231155   5.263   6.277   1.131 -0.1173  1.3213 -0.2022
 3222TIP3   OH231156   6.245   5.518   4.245 -0.7987  0.1241  0.4863
 3222TIP3    H131157   6.292   5.582   4.299  0.9411 -0.1016 -0.6971
 3222TIP3    H231158   6.153   5.530   4.269 -0.1447  0.2193  3.2661
 3223TIP3   OH231159   6.224   2.353  12.346  0.2164 -0.0314 -0.0567
 3223TIP3    H131160   6.278   2.325  12.419 -0.7598 -0.2764  0.5927
 3223TIP3    H231161   6.222   2.448  12.351 -0.0205 -0.0596  0.3622
 3224TIP3   OH231162   5.379   6.522   0.458  0.5580 -0.0144 -0.0447
 3224TIP3    H131163   5.407   6.594   0.514 -1.6942  1.7425 -1.0322
 3224TIP3    H231164   5.376   6.559   0.370  0.7538 -1.7575 -0.8370
 3225TIP3   OH231165   1.942   6.242   0.410 -0.4402 -0.1092 -0.4456
 3225TIP3    H131166   1.903   6.188   0.479  0.1154  1.6361  1.3063
 3225TIP3    H231167   1.867   6.273   0.359 -1.0029 -0.1585  0.3352
 3226TIP3   OH231168   4.804   5.446   0.481 -0.3481 -0.3554  0.5210
 3226TIP3    H131169   4.745   5.507   0.525 -0.2684 -0.3339  0.5990
 3226TIP3    H231170   4.748   5.374   0.452 -0.3905 -0.3970  0.7074
 3227TIP3   OH231171   2.355   2.634   5.916 -0.5006  0.2482 -0.0694
 3227TIP3    H131172   2.398   2.563   5.964  0.5925  0.6053 -0.4943
 3227TIP3    H231173   2.286   2.591   5.866 -2.6025  0.0160  2.7886
 3228TIP3   OH231174   6.489   0.015  13.362  0.1743 -0.1417  0.0201
 3228TIP3    H131175   6.435  -0.037  13.422 -0.0880 -1.2635 -1.1249
 3228TIP3    H231176   6.455   0.104  13.369 -0.6794 -0.5019  0.6037
 3229TIP3   OH231177   4.185   5.124  13.609 -0.0465 -0.7721  0.1233
 3229TIP3    H131178   4.220   5.206  13.644 -0.8374 -1.3271  2.3921
 3229TIP3    H231179   4.128   5.152  13.537 -1.4691  0.8619  1.7704
 3230TIP3   OH231180   0.265   6.013   6.189  0.2391 -0.0372  0.2506
 3230TIP3    H131181   0.202   6.078   6.222 -0.7755  0.2075 -1.9939
 3230TIP3    H231182   0.210   5.939   6.162  0.9858 -0.1475 -1.0126
 3231TIP3   OH231183   3.923   0.184  14.739  0.1165 -0.4602  0.0940
 3231TIP3    H131184   3.929   0.265  14.790  0.8355 -0.8983  0.7216
 3231TIP3    H231185   4.013   0.154  14.731  0.0216 -0.3771 -1.4958
 3232TIP3   OH231186   2.904   6.433   5.640  0.0011  0.3194 -0.4175
 3232TIP3    H131187   2.872   6.515   5.603  0.1539  0.4644 -0.2321
 3232TIP3    H231188   2.829   6.374   5.638 -0.2318  0.6055 -0.1333
 3233TIP3   OH231189   1.865   6.107  13.865 -0.4622  0.4249  0.2751
 3233TIP3    H131190   1.836   6.016  13.858 -0.4372  0.3980  0.5120
 3233TIP3    H231191   1.960   6.103  13.855 -0.6058  0.6189 -1.4874
 3234TIP3   OH231192   2.498   2.285   0.158  0.1207 -0.2971 -0.0901
 3234TIP3    H131193   2.450   2.310   0.079 -0.1272 -0.7428 -0.0839
 3234TIP3    H231194   2.459   2.202   0.185 -0.9644  0.6490  1.4500
 3235TIP3   OH231195   1.095   4.177  15.766  0.2559 -0.2180 -0.0479
 3235TIP3    H131196   1.186   4.153  15.747  0.3160 -1.5188  1.7017
 3235TIP3    H231197   1.102   4.243  15.836 -0.1352  0.5466 -0.7054
 3236TIP3   OH231198   5.086   3.564  11.036 -0.2799 -0.1790 -0.1606
 3236TIP3    H131199   5.039   3.647  11.032 -0.2545 -0.1276  0.4340
 3236TIP3    H231200   5.049   3.520  11.113  0.1664 -0.4314 -0.0897
 3237TIP3   OH231201   5.054   0.038  11.016 -0.1305 -0.4820 -0.1042
 3237TIP3    H131202   5.063  -0.026  10.945  1.9042 -1.3580  0.8580
 3237TIP3    H231203   5.105   0.113  10.986  1.2072 -1.0657  0.5855
 3238TIP3   OH231204   1.641   6.545   4.123  0.4348  0.0182  0.4900
 3238TIP3    H131205   1.719   6.589   4.156  1.0869 -1.2694  0.7386
 3238TIP3    H231206   1.672   6.496   4.046 -0.5686  1.0941 -0.6455
 3239TIP3   OH231207   0.329   1.660  15.733 -0.3769 -0.2526  0.6026
 3239TIP3    H131208   0.359   1.637  15.821 -2.2165 -0.1509  1.2913
 3239TIP3    H231209   0.338   1.755  15.729 -2.6995  0.0897  1.7007
 3240TIP3   OH231210   0.871   0.415   3.030 -0.2068 -0.0400  0.1176
 3240TIP3    H131211   0.816   0.354   3.078  0.9540 -1.7030 -0.5931
 3240TIP3    H231212   0.870   0.384   2.940  0.2967  1.0779 -0.2956
 3241TIP3   OH231213   1.922   3.445   1.616  0.1719 -0.0384 -0.1204
 3241TIP3    H131214   1.841   3.495   1.626  0.1325  0.1070 -1.0408
 3241TIP3    H231215   1.968   3.488   1.544  1.3807  0.2710  0.7979
 3242TIP3   OH231216   2.938   5.669   5.675  0.9141  0.0200 -0.0814
 3242TIP3    H131217   2.921   5.623   5.593  0.3041  1.1182 -0.5935
 3242TIP3    H231218   2.852   5.691   5.709  1.1641 -0.3253  0.8101
 3243TIP3   OH231219   4.198   4.321  15.540 -0.3527  0.3851  0.0176
 3243TIP3    H131220   4.289   4.310  15.569 -0.1411  1.5252 -0.1929
 3243TIP3    H231221   4.158   4.235  15.556  0.2416  0.4186  1.9769
 3244TIP3   OH231222   4.129   6.632  11.376 -0.1076  0.1526  0.5449
 3244TIP3    H131223   4.112   6.550  11.331  1.5927  0.7821 -1.3914
 3244TIP3    H231224   4.082   6.698  11.324 -0.5466  0.5673  1.4368
 3245TIP3   OH231225   5.556   4.557  15.314 -0.2490  0.1295  0.2193
 3245TIP3    H131226   5.519   4.503  15.245  0.4486  0.5937 -0.5410
 3245TIP3    H231227   5.560   4.500  15.391  0.3606 -0.8581 -0.5269
 3246TIP3   OH231228   1.019   6.678  13.364  0.3282 -0.5007  0.2378
 3246TIP3    H131229   0.950   6.637  13.313 -0.5697 -0.5580  1.4515
 3246TIP3    H231230   1.017   6.632  13.448  0.5175  0.8101  0.9820
 3247TIP3   OH231231   5.847   3.392   3.976  0.3004 -0.0290  0.1331
 3247TIP3    H131232   5.865   3.299   3.985  0.5232  0.0910  1.0233
 3247TIP3    H231233   5.887   3.432   4.053 -2.4891  0.4140  1.4780
 3248TIP3   OH231234   0.859   2.973  13.038  0.1644 -0.0441  0.1764
 3248TIP3    H131235   0.777   2.924  13.032  1.2389 -2.0538  1.1924
 3248TIP3    H231236   0.926   2.914  13.004  1.2228  1.5684 -0.6561
 3249TIP3   OH231237   0.055   6.232   4.549  0.2087  0.1618 -0.3057
 3249TIP3    H131238   0.119   6.283   4.597 -0.2778  1.0812 -0.6194
 3249TIP3    H231239   0.085   6.141   4.558  0.4320  0.3601  1.2453
 3250TIP3   OH231240   3.987   4.172   4.853  0.1265  0.2755 -0.3641
 3250TIP3    H131241   3.959   4.128   4.933  0.2110 -0.0984 -0.5394
 3250TIP3    H231242   3.920   4.240   4.839  0.0254  0.2397 -0.0670
 3251TIP3   OH231243   1.881   6.192   5.407  0.4104 -0.8772 -0.3379
 3251TIP3    H131244   1.797   6.209   5.364  0.9012 -3.0482 -2.3451
 3251TIP3    H231245   1.919   6.120   5.358  4.0875  0.8377 -0.3142
 3252TIP3   OH231246   3.675   4.608   1.826  0.4165 -0.6927  0.2529
 3252TIP3    H131247   3.655   4.685   1.878  0.0163 -2.0852  2.2828
 3252TIP3    H231248   3.770   4.612   1.812  0.4935 -0.1509  0.8884
 3253TIP3   OH231249   6.799   1.247  15.697  0.3285 -0.2635  0.0648
 3253TIP3    H131250   6.846   1.280  15.621  0.1816 -0.4419 -0.1059
 3253TIP3    H231251   6.728   1.310  15.712  0.2585 -0.3159 -0.0473
 3254TIP3   OH231252   0.095   4.491  12.653  0.1285 -0.0314  0.5441
 3254TIP3    H131253   0.004   4.509  12.674  0.1615  1.9802 -0.7246
 3254TIP3    H231254   0.145   4.539  12.719  0.2136  1.2946 -0.4264
 3255TIP3   OH231255   6.696   0.501   1.625  0.3389 -0.2671  0.3037
 3255TIP3    H131256   6.728   0.449   1.699  1.4810  1.2343  0.9211
 3255TIP3    H231257   6.741   0.585   1.634 -1.1206  0.6897 -0.8939
 3256TIP3   OH231258   1.257   6.228   3.905 -0.1998 -0.3896  0.0858
 3256TIP3    H131259   1.326   6.161   3.908 -0.9331 -1.1724  0.1333
 3256TIP3    H231260   1.303   6.311   3.919  0.5300 -1.0260  1.8061
 3257TIP3   OH231261   3.654   4.217   1.166 -0.0135  0.3555  0.4802
 3257TIP3    H131262   3.668   4.241   1.074  0.6101 -0.8276  0.2467
 3257TIP3    H231263   3.634   4.124   1.163  0.5264  0.1920  1.6003
 3258TIP3   OH231264   3.540   1.859   5.952 -0.1421 -0.0807  0.8689
 3258TIP3    H131265   3.487   1.785   5.980  0.4646 -0.4454  1.0822
 3258TIP3    H231266   3.491   1.936   5.979 -0.1455 -0.4181  1.8690
 3259TIP3   OH231267   5.057   5.159   2.230 -0.1781  0.2237  0.1202
 3259TIP3    H131268   5.144   5.166   2.191  1.2310 -0.9080  2.7949
 3259TIP3    H231269   5.046   5.240   2.279  0.1520 -0.3548  1.1801
 3260TIP3   OH231270   4.191   4.508  14.417 -0.1122 -0.9670  0.2361
 3260TIP3    H131271   4.096   4.510  14.428 -0.4285 -3.1525 -1.4675
 3260TIP3    H231272   4.210   4.584  14.361 -0.8001 -0.4162  0.7227
 3261TIP3   OH231273   1.104   2.974  12.111  0.2760  0.2742 -0.7682
 3261TIP3    H131274   1.126   2.918  12.186  0.4883 -0.1210 -1.1248
 3261TIP3    H231275   1.010   2.960  12.098  0.0235  1.1035  0.0432
 3262TIP3   OH231276   2.887   0.283  15.647 -0.2679  0.5598 -0.5981
 3262TIP3    H131277   2.835   0.330  15.711  1.1698  2.2478 -0.5785
 3262TIP3    H231278   2.852   0.312  15.562 -0.4587  0.3925 -0.5749
 3263TIP3   OH231279   4.321   5.945   6.420 -0.1186 -0.2287  0.1359
 3263TIP3    H131280   4.275   6.017   6.376  0.6931 -0.7311 -1.6562
 3263TIP3    H231281   4.347   5.981   6.505  0.3376  1.6437 -0.7291
 3264TIP3   OH231282   5.833   5.339  12.155  0.2434 -0.0307 -0.4573
 3264TIP3    H131283   5.916   5.365  12.114 -0.0213  0.1601 -0.8838
 3264TIP3    H231284   5.830   5.387  12.237  1.1064 -0.9407  0.1301
 3265TIP3   OH231285   1.312   2.997  15.582  0.6056 -0.8773  0.3860
 3265TIP3    H131286   1.314   3.074  15.526 -0.1330 -1.6476 -0.7511
 3265TIP3    H231287   1.400   2.992  15.620  0.5100  0.7890  0.9024
 3266TIP3   OH231288   1.655   6.797   3.933 -0.3415 -0.0153 -0.0906
 3266TIP3    H131289   1.729   6.853   3.951 -1.3990  0.8364  1.9488
 3266TIP3    H231290   1.693   6.712   3.910  1.2354  0.8719 -0.8605
 3267TIP3   OH231291   4.538   0.287   0.486 -0.0397  0.0185  0.1185
 3267TIP3    H131292   4.492   0.354   0.537  0.1770  0.7357 -0.6029
 3267TIP3    H231293   4.471   0.251   0.428  0.4589  1.7772 -1.6586
 3268TIP3   OH231294   3.288   0.333   0.227  0.2100  0.3810 -0.2029
 3268TIP3    H131295   3.300   0.330   0.132 -1.8668 -2.4826 -0.4981
 3268TIP3    H231296   3.196   0.354   0.240  0.1084 -0.6757  1.0812
 3269TIP3   OH231297   5.216   5.856  16.496  0.4449 -0.7104 -0.0803
 3269TIP3    H131298   5.246   5.815  16.415  2.0305 -1.1694  0.7032
 3269TIP3    H231299   5.214   5.784  16.560  0.3233 -0.1347  0.5786
 3270TIP3   OH231300   2.453   3.650  16.661  0.1380  0.3753  0.1588
 3270TIP3    H131301   2.423   3.648  16.752  1.0695 -0.0591  0.4697
 3270TIP3    H231302   2.539   3.607  16.663 -0.0689 -0.1424 -1.0101
 3271TIP3   OH231303   6.295   0.338   3.179  0.1939  0.0733 -0.2487
 3271TIP3    H131304   6.337   0.351   3.095 -1.2897 -1.0824 -1.2264
 3271TIP3    H231305   6.364   0.354   3.243  1.6805 -0.2235 -1.7128
 3272TIP3   OH231306   0.374   1.978  16.585 -0.2502  0.2357 -0.5701
 3272TIP3    H131307   0.339   2.018  16.505  1.8603  1.0497 -1.1814
 3272TIP3    H231308   0.393   1.888  16.561 -2.5929 -0.4825  0.0303
 3273TIP3   OH231309   3.443   1.015   0.638  0.2672  0.0542 -0.0201
 3273TIP3    H131310   3.505   0.946   0.662  1.6068  1.0785 -0.4276
 3273TIP3    H231311   3.358   0.983   0.669  0.9663 -1.4548  0.4115
 3274TIP3   OH231312   1.231   3.500  16.441  0.0756 -0.3522 -0.1940
 3274TIP3    H131313   1.157   3.441  16.453 -1.0143  0.7156 -1.2855
 3274TIP3    H231314   1.288   3.456  16.379 -1.6721  0.4535 -2.5227
 3275TIP3   OH231315   1.702   2.210  12.747  0.1485  0.0219 -0.2448
 3275TIP3    H131316   1.696   2.117  12.725 -2.4675  0.7018 -3.1558
 3275TIP3    H231317   1.741   2.251  12.670  0.8285  1.4133  0.7977
 3276TIP3   OH231318   5.667   6.310  14.447 -0.0500 -0.1063  0.0099
 3276TIP3    H131319   5.595   6.365  14.415 -0.6333  1.2208  3.1433
 3276TIP3    H231320   5.631   6.222  14.449 -0.9796  0.2524 -0.1339
 3277TIP3   OH231321   6.123   4.412   0.208  0.3349  0.8941 -0.2245
 3277TIP3    H131322   6.206   4.456   0.225 -0.0109  1.8152 -0.8149
 3277TIP3    H231323   6.066   4.438   0.280  0.5790  0.1875  0.2300
 3278TIP3   OH231324   0.617   6.235   2.878 -0.3003 -0.2057 -0.3184
 3278TIP3    H131325   0.618   6.306   2.942 -0.5386 -0.9928  0.5776
 3278TIP3    H231326   0.590   6.277   2.796 -0.9304  0.6348  0.3055
 3279TIP3   OH231327   6.295   3.777   1.990 -0.1679  0.5303 -0.4858
 3279TIP3    H131328   6.329   3.699   1.945 -1.6862 -0.6371  0.2672
 3279TIP3    H231329   6.210   3.793   1.949 -0.2872  1.2145  0.0073
 3280TIP3   OH231330   3.354   5.820  14.961  0.1474 -0.7510  0.2381
 3280TIP3    H131331   3.448   5.833  14.972  0.1015 -0.8031  0.7494
 3280TIP3    H231332   3.344   5.788  14.872  0.5908 -0.5121  0.0985
 3281TIP3   OH231333   2.405   5.001   1.891 -0.4659  0.3981 -0.0222
 3281TIP3    H131334   2.421   5.082   1.842  2.5224 -0.8889 -1.4374
 3281TIP3    H231335   2.491   4.978   1.927 -1.7919 -0.7731  2.6725
 3282TIP3   OH231336   1.271   2.236  14.081  0.4351  0.0156  0.2068
 3282TIP3    H131337   1.178   2.221  14.100  0.5917 -2.5045 -0.5999
 3282TIP3    H231338   1.272   2.275  13.994  0.1509  0.2033  0.2843
 3283TIP3   OH231339   2.569   0.070  14.463  0.2355  0.1608 -0.0372
 3283TIP3    H131340   2.622   0.014  14.406  2.1416 -0.5389  2.2975
 3283TIP3    H231341   2.623   0.085  14.540 -1.8982  1.7759  1.2659
 3284TIP3   OH231342   6.592   2.036   5.606  0.0091  0.4454  0.1442
 3284TIP3    H131343   6.555   2.092   5.537  1.0367 -0.5126 -1.2311
 3284TIP3    H231344   6.595   1.949   5.567  0.9603 -0.0521  1.2831
 3285TIP3   OH231345   2.648   6.675  16.654 -0.0755  0.2290  1.1221
 3285TIP3    H131346   2.620   6.644  16.569  0.9438  0.6630  0.6033
 3285TIP3    H231347   2.615   6.610  16.716  0.5757 -0.9788  0.2399
 3286TIP3   OH231348   2.010   2.980   5.677  0.0352 -0.2875 -0.2704
 3286TIP3    H131349   2.052   3.022   5.602  0.1041 -0.4529 -0.3250
 3286TIP3    H231350   2.082   2.937   5.723 -0.3968 -3.1426 -1.9947
 3287TIP3   OH231351   3.370   0.752   2.771  0.0588 -0.0590 -0.9446
 3287TIP3    H131352   3.309   0.731   2.700 -0.8081  1.7871 -0.8085
 3287TIP3    H231353   3.435   0.810   2.730  1.4787 -1.5947 -0.9619
 3288TIP3   OH231354   2.702   0.274   2.528 -0.1492  0.2527  0.2002
 3288TIP3    H131355   2.636   0.276   2.458  0.1947 -2.3439 -0.2816
 3288TIP3    H231356   2.748   0.191   2.516  2.0637  1.1729  1.6082
 3289TIP3   OH231357   2.598   0.126  16.657  0.2929  0.4807  0.0803
 3289TIP3    H131358   2.535   0.146  16.589  0.6436  1.8517  0.1236
 3289TIP3    H231359   2.599   0.031  16.662 -0.5701  0.3939 -1.0330
 3290TIP3   OH231360   4.970   5.426  16.645  1.1258 -0.1853  0.4911
 3290TIP3    H131361   4.930   5.470  16.571 -0.0849  0.0646  1.2688
 3290TIP3    H231362   4.980   5.335  16.617  2.1844  0.2213 -0.5444
 3291TIP3   OH231363   3.470   1.650   3.530  0.1718 -0.5004  0.1036
 3291TIP3    H131364   3.397   1.611   3.578 -0.3007 -0.5051 -0.6060
 3291TIP3    H231365   3.430   1.695   3.456  0.6572  1.7876  1.1353
 3292TIP3   OH231366   2.093   1.627   1.843  0.3633 -0.2515 -0.0121
 3292TIP3    H131367   2.047   1.620   1.926  0.5152  1.6122  0.2650
 3292TIP3    H231368   2.182   1.598   1.862  0.3359 -0.0643  0.4067
 3293TIP3   OH231369   1.985   5.596  11.675 -0.5194  0.4508 -0.2457
 3293TIP3    H131370   2.006   5.616  11.584  0.2086  0.7124 -0.0265
 3293TIP3    H231371   1.995   5.680  11.721  1.6724 -0.1675  0.5271
 3294TIP3   OH231372   0.820   3.966   1.922 -0.4272  0.3998 -0.2311
 3294TIP3    H131373   0.876   3.902   1.879  1.3253  1.2254  0.7351
 3294TIP3    H231374   0.760   3.913   1.975  0.4385 -0.4775 -0.0963
 3295TIP3   OH231375   1.933   5.882   5.749 -0.1765  0.1902 -0.2947
 3295TIP3    H131376   1.945   5.961   5.698  2.6477 -1.0997 -1.8335
 3295TIP3    H231377   1.932   5.912   5.840 -0.0615  2.0284 -0.8639
 3296TIP3   OH231378   3.711   6.526   5.114 -0.1092  0.1224  0.5406
 3296TIP3    H131379   3.742   6.486   5.032 -0.0762 -0.4512  0.8260
 3296TIP3    H231380   3.713   6.620   5.097  1.5065  0.1061  0.4347
 3297TIP3   OH231381   1.068   1.799  15.766 -0.0553  0.4315  0.1960
 3297TIP3    H131382   1.062   1.834  15.855  1.3858  0.5046  0.2761
 3297TIP3    H231383   1.010   1.722  15.767 -0.1226  0.4804  1.1620
 3298TIP3   OH231384   5.046   5.337   6.101  0.1823  0.3914  0.0194
 3298TIP3    H131385   5.090   5.309   6.181 -0.1846  2.3376  0.9796
 3298TIP3    H231386   4.964   5.288   6.100 -0.5133  1.4091  1.7052
 3299TIP3   OH231387   2.806   0.467  15.427  0.4067 -0.1601  0.0498
 3299TIP3    H131388   2.790   0.556  15.396  1.9901  0.2245  0.2664
 3299TIP3    H231389   2.866   0.430  15.363 -1.8718 -1.8648 -1.2548
 3300TIP3   OH231390   2.993   1.995  16.172  0.4127  0.3851  0.0975
 3300TIP3    H131391   2.956   1.971  16.257  1.9647 -0.6524  0.5213
 3300TIP3    H231392   3.050   2.070  16.190  2.3155 -1.0614  0.4049
 3301TIP3   OH231393   3.889   3.172  10.747 -0.3564  0.7921 -0.4744
 3301TIP3    H131394   3.977   3.208  10.735 -0.2187  1.1617  1.3117
 3301TIP3    H231395   3.832   3.248  10.748 -0.2977  0.8683  1.3618
 3302TIP3   OH231396   4.622   5.480   4.774 -0.1375  0.1136  0.5668
 3302TIP3    H131397   4.674   5.402   4.795  0.3733  0.5597  1.0179
 3302TIP3    H231398   4.540   5.446   4.738 -0.5986 -0.6889  2.2596
 3303TIP3   OH231399   1.880   3.074  14.220  0.4422  0.2014  0.4716
 3303TIP3    H131400   1.785   3.079  14.208  0.5413 -0.2045 -0.6006
 3303TIP3    H231401   1.893   2.997  14.276  0.2018 -0.3737 -0.2548
 3304TIP3   OH231402   4.159   5.194  12.142  0.2383 -0.1183 -0.0592
 3304TIP3    H131403   4.195   5.196  12.230  0.5273  1.0457 -0.1897
 3304TIP3    H231404   4.205   5.264  12.096 -1.9387  1.1913 -0.3457
 3305TIP3   OH231405   2.611   3.776  13.993 -0.1685  0.0155  0.6879
 3305TIP3    H131406   2.561   3.706  14.034 -1.3202 -0.4144 -1.3257
 3305TIP3    H231407   2.596   3.765  13.899 -1.3947  3.6450  0.2977
 3306TIP3   OH231408   3.747   2.092   5.147  0.3222 -0.3072 -0.7599
 3306TIP3    H131409   3.680   2.115   5.083 -0.2816  0.1877  0.0406
 3306TIP3    H231410   3.801   2.172   5.154 -0.4195  0.1150  0.3353
 3307TIP3   OH231411   2.224   1.707   4.507 -0.2335 -0.3386 -0.3987
 3307TIP3    H131412   2.185   1.623   4.482  0.3686 -0.4818 -0.8800
 3307TIP3    H231413   2.150   1.767   4.514 -0.4079 -0.1838 -2.9209
 3308TIP3   OH231414   3.129   2.690   0.375 -0.0290 -0.0069  0.5904
 3308TIP3    H131415   3.041   2.653   0.389  0.4479 -1.9136 -0.9698
 3308TIP3    H231416   3.185   2.613   0.362  1.3876  1.2280 -1.0283
 3309TIP3   OH231417   1.958   4.826  11.559  0.3337 -0.4131 -0.1968
 3309TIP3    H131418   1.875   4.849  11.601  1.1126 -1.2496  1.9335
 3309TIP3    H231419   2.009   4.785  11.628  1.5929 -2.2063 -2.0871
 3310TIP3   OH231420   3.861   1.063   3.826 -0.6035  0.2151  0.5723
 3310TIP3    H131421   3.835   1.089   3.915  0.6217 -0.1205  1.0511
 3310TIP3    H231422   3.914   1.136   3.795  1.7238 -1.0004  1.4096
 3311TIP3   OH231423   2.656   0.514   4.763  0.3143  0.0251  0.0582
 3311TIP3    H131424   2.683   0.591   4.814  3.1961  0.2864 -1.6951
 3311TIP3    H231425   2.588   0.547   4.704 -0.5632  0.5022  1.2963
 3312TIP3   OH231426   2.803   6.316  16.695 -0.7984  0.3749 -0.0042
 3312TIP3    H131427   2.894   6.344  16.685  0.0585 -2.2859 -0.5435
 3312TIP3    H231428   2.805   6.256  16.770 -1.9597 -0.2107 -0.4180
 3313TIP3   OH231429   2.563   5.979  10.508 -0.1651 -0.0688 -0.3811
 3313TIP3    H131430   2.539   5.890  10.534  2.2154 -1.3269 -2.1624
 3313TIP3    H231431   2.529   5.987  10.419  1.8541 -0.2338 -1.2190
 3314TIP3   OH231432   3.495   5.325  13.934 -0.2892 -0.5601  0.1629
 3314TIP3    H131433   3.487   5.275  14.016 -0.2256  1.9026  1.7858
 3314TIP3    H231434   3.419   5.299  13.883 -0.6638 -1.7267  1.2503
 3315TIP3   OH231435   1.761   2.058   6.113 -0.2975 -0.5171 -0.4447
 3315TIP3    H131436   1.675   2.041   6.150  0.0152  2.0328  1.7738
 3315TIP3    H231437   1.744   2.080   6.021 -2.1369  0.6696  0.1261
 3316TIP3   OH231438   5.342   1.435  11.465  0.6746 -0.3555 -0.1722
 3316TIP3    H131439   5.273   1.485  11.420  0.4256 -0.5994 -0.0668
 3316TIP3    H231440   5.407   1.418  11.398  0.7139  0.0254 -0.2327
 3317TIP3   OH231441   4.717   4.010  16.078 -0.1847  0.2294  0.0652
 3317TIP3    H131442   4.664   3.966  16.144  0.6603 -1.9704 -0.6229
 3317TIP3    H231443   4.673   3.989  15.995  0.5922  0.1361 -0.3326
 3318TIP3   OH231444   3.964   4.084   3.429  0.0980 -0.8704  0.5040
 3318TIP3    H131445   3.887   4.097   3.486  0.5990 -1.2707  1.2874
 3318TIP3    H231446   3.960   4.157   3.367  0.0907  0.1756  1.6919
 3319TIP3   OH231447   5.320   4.567   1.947  0.2777  0.5767 -0.3993
 3319TIP3    H131448   5.309   4.618   1.867 -0.8816  0.4167 -0.3564
 3319TIP3    H231449   5.331   4.477   1.918 -2.6365  0.1281 -0.3497
 3320TIP3   OH231450   3.344   6.479   0.675  0.7435 -0.0620  0.1110
 3320TIP3    H131451   3.256   6.444   0.663  1.4424 -2.8503  2.1915
 3320TIP3    H231452   3.343   6.518   0.763  1.5675 -0.1298  0.1647
 3321TIP3   OH231453   6.438   5.003   5.537 -0.6125 -0.4032 -0.0358
 3321TIP3    H131454   6.377   4.935   5.567  0.1073 -1.3817 -0.7209
 3321TIP3    H231455   6.493   4.959   5.472 -1.0551  1.2139 -1.5899
 3322TIP3   OH231456   1.758   4.338  13.437 -0.4510 -0.0624 -0.1004
 3322TIP3    H131457   1.825   4.278  13.470 -0.6244 -0.5420 -0.6157
 3322TIP3    H231458   1.719   4.374  13.517 -1.9133 -2.3681  0.3440
 3323TIP3   OH231459   2.317   2.922   5.496 -0.7659  0.3591 -0.0416
 3323TIP3    H131460   2.278   2.853   5.442 -1.9034 -0.6305  1.9558
 3323TIP3    H231461   2.268   3.001   5.472 -3.0798 -0.5713  1.3082
 3324TIP3   OH231462   6.613   4.523  16.828 -0.0306 -0.2366 -1.0010
 3324TIP3    H131463   6.557   4.596  16.856  0.3349 -0.7611  1.3050
 3324TIP3    H231464   6.552   4.452  16.809 -0.3249 -1.6248  3.8767
 3325TIP3   OH231465   2.035   5.687   5.441  0.3614 -0.0291 -0.7739
 3325TIP3    H131466   1.978   5.748   5.395  0.4573 -0.4523 -1.4752
 3325TIP3    H231467   2.025   5.709   5.534 -0.2382  0.4952 -0.9595
 3326TIP3   OH231468   6.508   0.704   1.889  0.7562  0.0629 -0.2488
 3326TIP3    H131469   6.581   0.658   1.931  1.1127 -0.4150 -1.3675
 3326TIP3    H231470   6.446   0.635   1.867  0.3351  0.3749 -0.0548
 3327TIP3   OH231471   0.035   3.146  11.401  0.8642 -0.5334 -0.4167
 3327TIP3    H131472   0.086   3.162  11.480 -1.2482 -0.2342  0.9731
 3327TIP3    H231473   0.036   3.051  11.390 -0.2008 -0.7409  1.0029
 3328TIP3   OH231474   4.782   3.939  14.276  0.2890  0.3489 -0.7092
 3328TIP3    H131475   4.857   3.967  14.328 -0.1591  1.0256 -0.4100
 3328TIP3    H231476   4.711   3.998  14.302 -0.6283 -0.9110 -0.2460
 3329TIP3   OH231477   6.168   1.703   4.839 -0.3432 -0.4131 -0.1545
 3329TIP3    H131478   6.167   1.712   4.934 -0.1637 -0.5622 -0.1390
 3329TIP3    H231479   6.185   1.610   4.823 -1.3698 -0.5946 -0.3282
 3330TIP3   OH231480   3.626   4.044  17.037 -0.4634  0.1009 -0.3069
 3330TIP3    H131481   3.679   4.045  17.116 -0.0152  0.9980 -0.6035
 3330TIP3    H231482   3.552   4.102  17.057  1.2499  2.9643 -1.5529
 3331TIP3   OH231483   4.468   4.014   0.704 -0.2837  0.7778 -0.0082
 3331TIP3    H131484   4.457   3.944   0.639 -1.2814  2.0115 -1.2402
 3331TIP3    H231485   4.514   3.973   0.776 -0.8410 -1.1495 -0.6897
 3332TIP3   OH231486   1.413   0.570   0.826  0.8871  0.5828  0.0848
 3332TIP3    H131487   1.340   0.513   0.801  0.1772  0.9319  1.2846
 3332TIP3    H231488   1.460   0.521   0.894  1.9288  0.2632 -0.8302
 3333TIP3   OH231489   0.789   2.684  12.471  0.0712 -0.4191 -0.2269
 3333TIP3    H131490   0.870   2.712  12.513 -1.0194  1.9901  0.4400
 3333TIP3    H231491   0.742   2.634  12.538 -0.8887  1.9392  0.9636
 3334TIP3   OH231492   1.935   2.331  13.317 -0.1848 -0.7460  0.3529
 3334TIP3    H131493   1.994   2.388  13.364 -0.8803 -0.7109  1.2105
 3334TIP3    H231494   1.861   2.318  13.377 -0.5900 -1.5659 -0.3015
 3335TIP3   OH231495   5.517   4.210   4.949  0.1863 -0.2657  0.1206
 3335TIP3    H131496   5.584   4.258   4.901 -1.9091  2.0857 -0.7101
 3335TIP3    H231497   5.555   4.194   5.035  2.3085 -0.3464 -0.7806
 3336TIP3   OH231498   5.898   3.416   2.261 -0.4776  0.2604  0.0671
 3336TIP3    H131499   5.962   3.464   2.208 -0.4275  0.7479  0.5636
 3336TIP3    H231500   5.921   3.437   2.352  1.7042 -3.3851  0.5351
 3337TIP3   OH231501   4.291   1.990   1.880  0.5846 -0.3120  0.2999
 3337TIP3    H131502   4.239   2.065   1.906 -0.5719 -0.1321 -2.2921
 3337TIP3    H231503   4.253   1.916   1.929 -0.4338  0.2361  0.3489
 3338TIP3   OH231504   5.845   6.746   5.135 -0.4307  0.3508  0.4838
 3338TIP3    H131505   5.940   6.739   5.128 -0.5009  0.3542 -0.6475
 3338TIP3    H231506   5.826   6.837   5.110 -0.6704  0.6104  1.5572
 3339TIP3   OH231507   4.725   3.177  12.252 -0.5219 -0.2786  0.1621
 3339TIP3    H131508   4.636   3.145  12.267 -0.7359  0.2709  0.0869
 3339TIP3    H231509   4.749   3.142  12.167 -0.7987 -0.1364  0.0251
 3340TIP3   OH231510   5.410   2.445  14.637  0.4066 -0.2192  1.0643
 3340TIP3    H131511   5.365   2.459  14.553  0.4900 -1.2996  0.8312
 3340TIP3    H231512   5.339   2.432  14.700  0.3455  0.5343  1.1624
 3341TIP3   OH231513   0.017   1.505  15.300  0.1568  0.3189  0.2355
 3341TIP3    H131514   0.048   1.467  15.382  0.7132 -0.9790 -0.5380
 3341TIP3    H231515  -0.063   1.456  15.280  0.0616  0.5797 -0.0319
 3342TIP3   OH231516   5.808   5.249   3.790  0.0347 -0.1067 -0.2969
 3342TIP3    H131517   5.896   5.232   3.755  0.4019 -2.3616  1.5159
 3342TIP3    H231518   5.797   5.344   3.779  2.3821  0.1504 -1.2335
 3343TIP3   OH231519   1.236   6.485  10.953 -0.0751  0.3308 -0.2034
 3343TIP3    H131520   1.267   6.499  11.043 -0.2550 -0.9633  0.0825
 3343TIP3    H231521   1.269   6.398  10.930  1.9056  1.5177 -2.2368
 3344TIP3   OH231522   2.494   1.103   2.005  0.2140  0.0577 -0.1115
 3344TIP3    H131523   2.462   1.102   1.914 -1.9779  0.3800  0.6063
 3344TIP3    H231524   2.518   1.013   2.023  0.1084 -0.1193 -0.8314
 3345TIP3   OH231525   6.766   3.396  16.221 -0.4141 -0.5993  0.0860
 3345TIP3    H131526   6.842   3.377  16.276  1.9606 -0.2009 -2.8493
 3345TIP3    H231527   6.763   3.492  16.217 -1.8791 -0.5562  1.0910
 3346TIP3   OH231528   2.210   1.050   2.120 -0.0844  0.3347  0.3069
 3346TIP3    H131529   2.203   1.142   2.095  1.5890  0.1002 -1.2609
 3346TIP3    H231530   2.293   1.022   2.082  0.2316 -1.4170  2.1387
 3347TIP3   OH231531   2.603   3.009   3.104 -0.3734 -0.0120 -0.3669
 3347TIP3    H131532   2.643   2.931   3.066  3.3819 -0.1366  3.1685
 3347TIP3    H231533   2.568   2.980   3.188 -2.5534  1.4428 -0.6790
 3348TIP3   OH231534   3.086   5.421  12.769  0.1231  0.3558  0.3133
 3348TIP3    H131535   2.997   5.386  12.772  0.3092 -0.4808 -2.0388
 3348TIP3    H231536   3.133   5.372  12.837 -0.1998 -2.4859 -1.3526
 3349TIP3   OH231537   1.220   2.356  11.455  0.0887 -0.1213  0.0546
 3349TIP3    H131538   1.279   2.360  11.530 -1.2280  0.1907  1.1016
 3349TIP3    H231539   1.221   2.445  11.419  0.8949 -0.3268 -0.4626
 3350TIP3   OH231540   4.001   6.511  13.024  0.1004  1.2750  0.0826
 3350TIP3    H131541   4.095   6.519  13.041  0.2027  0.3486 -0.0167
 3350TIP3    H231542   3.961   6.512  13.111  0.0254  3.4068  0.0869
 3351TIP3   OH231543   4.259   3.599  15.430  0.0240  0.7610  0.4869
 3351TIP3    H131544   4.220   3.679  15.396 -0.8636  1.0650  2.1115
 3351TIP3    H231545   4.201   3.529  15.400 -1.4029  1.1348  2.2375
 3352TIP3   OH231546   1.931   5.139  15.910 -0.2905  0.3012  0.1275
 3352TIP3    H131547   1.876   5.100  15.978 -0.0327 -1.7020 -0.7484
 3352TIP3    H231548   1.988   5.200  15.957 -0.0851 -1.0507  1.7120
 3353TIP3   OH231549   4.602   5.995   4.642  0.4134 -1.0902 -0.1350
 3353TIP3    H131550   4.586   5.935   4.569 -0.7856 -1.8201  0.6895
 3353TIP3    H231551   4.627   5.938   4.715  0.4814 -0.4842  0.3232
 3354TIP3   OH231552   6.815   3.469  13.837  0.2418  0.1652  0.6882
 3354TIP3    H131553   6.722   3.455  13.854 -0.4124  0.2790 -2.2063
 3354TIP3    H231554   6.826   3.448  13.744  3.0583  0.5197  0.8345
 3355TIP3   OH231555   2.892   4.686   1.397  0.2465 -0.5650 -0.5558
 3355TIP3    H131556   2.840   4.626   1.450 -0.7423  0.3315 -0.4745
 3355TIP3    H231557   2.976   4.690   1.442 -0.1021 -0.9142  0.1452
 3356TIP3   OH231558   1.199   5.780  16.179  0.2676 -0.1076 -0.4698
 3356TIP3    H131559   1.144   5.734  16.116  0.7880 -0.9642 -0.3197
 3356TIP3    H231560   1.218   5.864  16.137 -1.9782  0.6633 -0.0877
 3357TIP3   OH231561   4.807   1.317  15.807 -0.2005  0.5692  0.3103
 3357TIP3    H131562   4.876   1.357  15.859  0.0556 -0.3629  0.7139
 3357TIP3    H231563   4.815   1.223  15.824 -2.0683  0.4860  1.0013
 3358TIP3   OH231564   2.934   5.640  14.643 -0.2812  0.5102 -0.1575
 3358TIP3    H131565   2.906   5.717  14.594 -1.3086  0.5236  0.4314
 3358TIP3    H231566   2.949   5.573  14.576 -1.8467  0.4685 -0.5130
 3359TIP3   OH231567   5.503   0.938  11.540  0.2163 -0.2240  0.6314
 3359TIP3    H131568   5.597   0.951  11.529  0.6305 -2.3874  1.1815
 3359TIP3    H231569   5.481   0.865  11.483 -0.8545 -0.6705  1.5731
 3360TIP3   OH231570   6.620   2.050   2.857 -1.1549  0.4115  0.3119
 3360TIP3    H131571   6.659   2.018   2.775 -0.7814  0.2571  0.5499
 3360TIP3    H231572   6.692   2.093   2.903 -0.4969 -2.2955  2.0449
 3361TIP3   OH231573   3.414   1.813  11.364 -0.6919  0.6918  0.4295
 3361TIP3    H131574   3.488   1.823  11.304 -0.2142  1.2981  1.1000
 3361TIP3    H231575   3.364   1.739  11.329  0.3531  0.1249  0.0865
 3362TIP3   OH231576   4.398   0.157  13.734 -0.6707  0.0941  0.7394
 3362TIP3    H131577   4.477   0.210  13.747  0.7960 -1.6557 -0.5217
 3362TIP3    H231578   4.382   0.116  13.818 -0.6925  1.0211  1.2014
 3363TIP3   OH231579   3.323   4.566   1.675 -0.1668 -0.3468 -0.2334
 3363TIP3    H131580   3.268   4.566   1.753 -3.0325 -0.0085 -2.0982
 3363TIP3    H231581   3.325   4.475   1.646 -0.4745 -0.2462 -0.5950
 3364TIP3   OH231582   2.015   3.084  16.968  0.3639  0.4829  0.4189
 3364TIP3    H131583   2.101   3.122  16.986  0.5820  0.2450 -0.1096
 3364TIP3    H231584   2.001   3.023  17.041  0.4663  0.8113  0.7168
 3365TIP3   OH231585   6.655   4.694  14.939 -0.3364 -0.3431 -0.2980
 3365TIP3    H131586   6.720   4.740  14.991 -0.5726  0.5219 -0.7458
 3365TIP3    H231587   6.586   4.670  15.002 -1.2201  1.7966 -0.3734
 3366TIP3   OH231588   1.374   2.732  15.091  0.7295  0.6854 -0.0161
 3366TIP3    H131589   1.433   2.713  15.164  1.2180  0.2550 -0.5069
 3366TIP3    H231590   1.413   2.685  15.017  0.5532  1.5698 -0.6823
 3367TIP3   OH231591   4.208   1.423  16.353 -0.9335 -0.2780  0.1597
 3367TIP3    H131592   4.199   1.364  16.428  2.3509  0.6383  1.4890
 3367TIP3    H231593   4.261   1.375  16.290 -0.3326  0.3337  0.1809
 3368TIP3   OH231594   2.887   5.536   6.826 -0.3833  0.1048  0.2067
 3368TIP3    H131595   2.953   5.470   6.804 -0.6775 -0.5666  1.2635
 3368TIP3    H231596   2.822   5.529   6.756 -0.8078 -1.2913  0.7119
 3369TIP3   OH231597   4.828   2.730  11.650  0.1092 -0.1850  0.6415
 3369TIP3    H131598   4.734   2.748  11.651  0.1738  0.1828  0.4882
 3369TIP3    H231599   4.865   2.797  11.708  0.0996 -1.4179  2.1191
 3370TIP3   OH231600   4.372   4.848   2.493 -0.7107  0.1475  0.3059
 3370TIP3    H131601   4.429   4.921   2.466 -0.7999  1.0903  2.4473
 3370TIP3    H231602   4.316   4.886   2.561 -3.8911 -0.7644 -1.5984
 3371TIP3   OH231603   0.727   5.975  15.410 -0.1464  0.6787  0.1212
 3371TIP3    H131604   0.643   5.929  15.412  0.4310 -0.4677 -0.7035
 3371TIP3    H231605   0.709   6.056  15.362 -0.7248  0.3067 -0.3114
 3372TIP3   OH231606   4.481   2.013   3.605 -0.1867 -0.4292 -0.0774
 3372TIP3    H131607   4.541   1.969   3.664  1.8544  1.7632 -0.3775
 3372TIP3    H231608   4.536   2.039   3.531 -1.5823  1.3129 -0.5571
 3373TIP3   OH231609   3.066   4.646   1.613  0.2500  0.2795  0.1929
 3373TIP3    H131610   3.159   4.639   1.633  0.5506  2.5133 -0.2052
 3373TIP3    H231611   3.022   4.632   1.696  0.7909 -2.1890  0.1602
 3374TIP3   OH231612   5.702   3.386  11.350 -0.2839 -0.3234 -0.3478
 3374TIP3    H131613   5.765   3.449  11.385  1.3094 -1.6613 -0.6547
 3374TIP3    H231614   5.630   3.439  11.318 -0.0367  1.1942  1.4175
 3375TIP3   OH231615   4.457   4.306   6.752 -0.0001 -0.4288 -0.3586
 3375TIP3    H131616   4.509   4.225   6.747  0.3301 -0.1534 -2.1710
 3375TIP3    H231617   4.374   4.284   6.709 -1.0270 -0.5416  1.5456
 3376TIP3   OH231618   3.342   6.128  12.519 -0.1947 -0.1937  0.0714
 3376TIP3    H131619   3.274   6.168  12.464 -0.9537 -2.2084 -0.5582
 3376TIP3    H231620   3.424   6.149  12.475 -0.5177  0.9390 -0.0318
 3377TIP3   OH231621   1.304   6.814  14.715  0.4992  0.5036  0.3883
 3377TIP3    H131622   1.341   6.744  14.662  0.1340  0.3377  0.3504
 3377TIP3    H231623   1.320   6.893  14.665 -0.2181  0.3000 -0.1708
 3378TIP3   OH231624   1.280   2.545  16.561  0.1588  0.5705 -0.3775
 3378TIP3    H131625   1.266   2.487  16.636 -1.7133  0.0338 -1.0911
 3378TIP3    H231626   1.374   2.537  16.542  0.1205 -1.6090  0.0464
 3379TIP3   OH231627   3.881   5.631   5.957 -0.5861 -0.0252  0.0642
 3379TIP3    H131628   3.903   5.672   6.041  1.5133  1.5319 -1.1348
 3379TIP3    H231629   3.828   5.697   5.912 -0.9994 -0.5147 -0.1746
 3380TIP3   OH231630   0.598   2.382  16.906  0.3348  0.3519 -0.1796
 3380TIP3    H131631   0.610   2.435  16.984  0.2021 -0.7839  0.6350
 3380TIP3    H231632   0.595   2.445  16.834  1.2388  1.3638  0.6344
 3381TIP3   OH231633   2.047   4.991  13.652 -0.1266 -0.7276 -0.3120
 3381TIP3    H131634   2.079   5.029  13.570  0.2788 -0.2868  0.0453
 3381TIP3    H231635   2.052   5.063  13.715  0.9181 -1.4231  0.4416
 3382TIP3   OH231636   1.862   1.401  12.070 -0.3481  0.1670 -0.0379
 3382TIP3    H131637   1.833   1.410  11.979 -2.6051 -2.4658  0.2880
 3382TIP3    H231638   1.942   1.349  12.064  0.6126  1.6511 -0.5725
 3383TIP3   OH231639   3.689   5.294  16.272 -0.0219 -0.6377  0.3821
 3383TIP3    H131640   3.710   5.215  16.222 -0.1971 -0.8912  0.7029
 3383TIP3    H231641   3.646   5.352  16.210  1.1047 -0.3424 -0.1506
 3384TIP3   OH231642   3.528   6.600   3.205 -0.1882 -0.2563 -0.0581
 3384TIP3    H131643   3.473   6.608   3.283 -0.3700 -0.6965 -0.1388
 3384TIP3    H231644   3.471   6.560   3.139  0.1652 -0.5248 -0.2069
 3385TIP3   OH231645   6.061   5.135   3.737 -0.1864 -0.4374  0.1062
 3385TIP3    H131646   6.052   5.093   3.651 -0.7276 -1.1364  0.4902
 3385TIP3    H231647   6.122   5.079   3.784  1.6047  0.9708 -0.4244
 3386TIP3   OH231648   4.109   0.093  16.060  0.7862 -0.0853 -0.1278
 3386TIP3    H131649   4.080   0.179  16.092  1.5664  0.3241 -0.4710
 3386TIP3    H231650   4.037   0.060  16.008  1.2602  1.3219 -1.7535
 3387TIP3   OH231651   4.800   1.437  15.210  0.6569  0.4096  0.1443
 3387TIP3    H131652   4.870   1.379  15.240  0.7909  0.3199 -0.3289
 3387TIP3    H231653   4.722   1.405  15.254  1.0442  1.0124  1.3081
 3388TIP3   OH231654   5.650   5.353  14.338 -0.1389  0.1151  0.3714
 3388TIP3    H131655   5.648   5.257  14.340  0.5237  0.0312 -1.4758
 3388TIP3    H231656   5.584   5.380  14.401  0.3349 -1.5479  1.6452
 3389TIP3   OH231657   3.535   6.298   0.639 -0.2259  0.0329 -0.5765
 3389TIP3    H131658   3.471   6.249   0.586 -0.9085  0.7152 -0.4133
 3389TIP3    H231659   3.488   6.377   0.665  1.3243  1.5448 -2.1326
 3390TIP3   OH231660   1.935   5.378   4.397  0.0722 -0.2094 -0.1930
 3390TIP3    H131661   2.000   5.445   4.376  1.6071 -0.1752  3.7628
 3390TIP3    H231662   1.851   5.419   4.379  1.0574  1.3758 -1.3809
 3391TIP3   OH231663   1.247   4.484   3.626  0.5126 -0.1012 -0.1435
 3391TIP3    H131664   1.162   4.486   3.671  0.5075 -0.6684 -0.1146
 3391TIP3    H231665   1.229   4.437   3.544  0.6953  0.2197 -0.3716
 3392TIP3   OH231666   3.780   2.749  14.407  0.5086 -0.0665  0.4076
 3392TIP3    H131667   3.787   2.815  14.476  1.9888  0.6942 -0.4393
 3392TIP3    H231668   3.790   2.666  14.454 -2.6962  0.1314  1.6868
 3393TIP3   OH231669   0.003   2.190   3.478  0.1620  0.1138  0.5287
 3393TIP3    H131670   0.074   2.142   3.520  0.1589 -0.9920 -0.6785
 3393TIP3    H231671  -0.077   2.149   3.510 -0.1582  2.6142  3.4630
 3394TIP3   OH231672   1.987   3.440  15.602 -0.2219  0.3228 -0.0261
 3394TIP3    H131673   1.961   3.449  15.510 -0.6451  2.9506  0.2756
 3394TIP3    H231674   1.960   3.522  15.643 -0.0210 -0.7629  2.4752
 3395TIP3   OH231675   3.138   6.140   5.203 -0.5774  0.5462 -0.2097
 3395TIP3    H131676   3.196   6.129   5.278 -0.5020  1.9813 -0.0288
 3395TIP3    H231677   3.197   6.164   5.131 -0.7587  0.2041 -0.4721
 3396TIP3   OH231678   6.511   1.236   2.065 -0.2841  0.3175  0.5949
 3396TIP3    H131679   6.477   1.210   1.979  2.0639 -0.6815 -0.1133
 3396TIP3    H231680   6.558   1.317   2.049 -1.0432  0.9111  1.2727
 3397TIP3   OH231681   1.803   3.485   0.145 -0.3814  0.0851 -0.1141
 3397TIP3    H131682   1.798   3.391   0.160 -0.4800  0.5403  3.7088
 3397TIP3    H231683   1.894   3.501   0.119 -0.1219 -1.0099  0.0837
 3398TIP3   OH231684   6.144   1.452  15.433  0.2737  0.3230 -0.2951
 3398TIP3    H131685   6.053   1.470  15.457  1.3718  1.9303  3.3032
 3398TIP3    H231686   6.148   1.356  15.428 -1.1237  0.0523  2.1352
 3399TIP3   OH231687   5.674   5.014   1.014  0.1978  0.1275 -0.4379
 3399TIP3    H131688   5.711   5.100   0.994  0.6599 -0.1723 -0.9143
 3399TIP3    H231689   5.598   5.006   0.957 -0.4844  0.6525  0.3799
 3400TIP3   OH231690   4.713   5.914  14.155  0.0471 -0.3918  0.0545
 3400TIP3    H131691   4.769   5.959  14.092  0.3045 -0.3210  0.3337
 3400TIP3    H231692   4.658   5.983  14.192 -0.4781 -0.5147 -0.4774
 3401TIP3   OH231693   6.221   0.067  14.052 -0.0753 -0.3267  0.0819
 3401TIP3    H131694   6.142   0.019  14.077  0.0903 -0.0039  1.2692
 3401TIP3    H231695   6.236   0.127  14.124  1.0419 -0.1102 -0.3167
 3402TIP3   OH231696   6.777   6.169   3.168 -0.3215 -0.3570 -0.1346
 3402TIP3    H131697   6.739   6.131   3.088 -1.7295  0.5169  0.0773
 3402TIP3    H231698   6.726   6.129   3.239  2.3479 -2.8350  0.5717
 3403TIP3   OH231699   4.961   3.796  13.164 -0.4421 -0.3644 -0.4064
 3403TIP3    H131700   5.050   3.813  13.197 -1.0720 -0.4256  1.4289
 3403TIP3    H231701   4.967   3.813  13.070  0.8379  2.4120  0.0958
 3404TIP3   OH231702   5.839   6.078  11.342  0.0295 -0.8130 -0.3060
 3404TIP3    H131703   5.847   6.058  11.435 -2.8653 -0.0503  0.1925
 3404TIP3    H231704   5.836   5.993  11.299  2.1563 -1.1714  0.1342
 3405TIP3   OH231705   6.410   5.714  13.544  0.1314 -0.7641  0.3720
 3405TIP3    H131706   6.468   5.767  13.489 -0.3147 -2.8833 -2.3447
 3405TIP3    H231707   6.468   5.650  13.586  0.3906  0.4890  2.0221
 3406TIP3   OH231708   0.435   2.230  13.532 -0.0787 -0.4542 -0.1071
 3406TIP3    H131709   0.401   2.253  13.619  2.1646  1.6329  0.3584
 3406TIP3    H231710   0.408   2.302  13.476  1.2374 -0.0904 -0.3158
 3407TIP3   OH231711   5.099   2.195  11.194  0.1598  0.0346 -0.1925
 3407TIP3    H131712   5.059   2.164  11.276 -1.3172  1.1425 -0.4518
 3407TIP3    H231713   5.133   2.281  11.216  1.6928 -0.5379 -0.2150
 3408TIP3   OH231714   4.483   3.763   1.844  0.0302  0.5958  0.2655
 3408TIP3    H131715   4.442   3.812   1.915 -0.7508 -3.4078  2.8543
 3408TIP3    H231716   4.574   3.753   1.872  0.4271  1.2551 -0.7194
 3409TIP3   OH231717   4.520   3.528  13.101  0.0386 -0.6213 -0.2944
 3409TIP3    H131718   4.538   3.621  13.117 -1.4505  0.0772 -2.3159
 3409TIP3    H231719   4.425   3.524  13.091 -0.0767 -2.6299  1.0914
 3410TIP3   OH231720   5.810   4.940   3.152 -0.1305  0.1767  0.4770
 3410TIP3    H131721   5.775   4.891   3.227  0.3702  1.7636  1.8100
 3410TIP3    H231722   5.902   4.915   3.148 -0.2977 -0.3676  0.0030
 3411TIP3   OH231723   3.764   3.665   2.279 -0.1085 -0.1159  0.2336
 3411TIP3    H131724   3.731   3.733   2.338 -0.2141 -0.1177  0.1760
 3411TIP3    H231725   3.859   3.671   2.288 -0.0621  0.8805 -0.7193
 3412TIP3   OH231726   4.548   5.363   5.312  0.4167 -0.0432 -0.2972
 3412TIP3    H131727   4.626   5.340   5.263 -0.4693  0.3694 -1.9980
 3412TIP3    H231728   4.580   5.398   5.395  1.9612 -1.1877 -0.3811
 3413TIP3   OH231729   5.123   5.672   0.657 -0.1466  0.1468 -0.0531
 3413TIP3    H131730   5.181   5.658   0.582 -1.0341 -1.6733 -0.4587
 3413TIP3    H231731   5.109   5.766   0.659 -1.8652  0.1540 -3.6160
 3414TIP3   OH231732   6.317   0.990  15.718 -0.2872 -0.1219 -0.0028
 3414TIP3    H131733   6.338   1.076  15.756 -0.4161  0.3197 -0.9041
 3414TIP3    H231734   6.367   0.988  15.636 -1.6252 -0.1801 -0.8414
 3415TIP3   OH231735   4.249   1.241   6.616 -0.2431 -0.3758 -0.7670
 3415TIP3    H131736   4.345   1.235   6.611 -0.1668 -0.9560  0.7913
 3415TIP3    H231737   4.233   1.310   6.680 -0.8317 -1.1946 -0.0024
 3416TIP3   OH231738   1.118   0.857  12.778  0.0659  0.1042  0.1721
 3416TIP3    H131739   1.099   0.766  12.758  0.2304  0.1345 -0.1288
 3416TIP3    H231740   1.046   0.906  12.739  0.1749  0.1307 -0.0003
 3417TIP3   OH231741   2.705   0.051  11.475 -0.5516 -0.0158 -0.0750
 3417TIP3    H131742   2.715   0.128  11.418  0.5928 -0.5759 -0.6542
 3417TIP3    H231743   2.682  -0.020  11.415 -1.4811 -0.1744  0.4465
 3418TIP3   OH231744   6.082   0.513  15.052  0.6035 -0.6689  0.0891
 3418TIP3    H131745   5.998   0.476  15.079  0.8479 -0.4544  1.2024
 3418TIP3    H231746   6.063   0.561  14.972 -0.7667  1.0239  1.3490
 3419TIP3   OH231747   6.438   3.247  17.002 -0.0148 -0.2052 -0.2194
 3419TIP3    H131748   6.361   3.234  17.057 -1.3047 -0.0328 -1.8854
 3419TIP3    H231749   6.452   3.342  17.002  0.0102 -0.2091 -0.1547
 3420TIP3   OH231750   5.168   3.281  10.938  0.7471 -0.6501 -0.7208
 3420TIP3    H131751   5.201   3.364  10.971  0.6220 -0.9443  0.1704
 3420TIP3    H231752   5.168   3.292  10.843 -1.5364  1.2726 -0.6023
 3421TIP3   OH231753   0.632   1.240  12.000 -0.5139  0.0685 -0.0195
 3421TIP3    H131754   0.700   1.277  12.056 -1.5986  1.2361  0.5738
 3421TIP3    H231755   0.599   1.315  11.950 -0.9187 -0.6021 -0.7731
 3422TIP3   OH231756   3.460   5.091   2.241 -0.5332 -0.2342 -0.1629
 3422TIP3    H131757   3.499   5.004   2.232  0.6268  0.4379 -2.9079
 3422TIP3    H231758   3.441   5.100   2.334  3.0906 -1.8380  0.9060
 3423TIP3   OH231759   4.389   4.656   6.000 -0.3191  0.5647  0.1682
 3423TIP3    H131760   4.417   4.587   6.061  1.3159  0.8220 -0.2417
 3423TIP3    H231761   4.429   4.736   6.033 -0.6499  0.9786 -0.4101
 3424TIP3   OH231762   5.919   6.822  12.216  0.2234  0.3400  0.0839
 3424TIP3    H131763   5.824   6.835  12.216  0.0717 -0.1484 -2.6464
 3424TIP3    H231764   5.955   6.910  12.228 -0.5632  0.5928  0.6778
 3425TIP3   OH231765   5.922   5.039  15.738  0.5582  0.3596 -0.3268
 3425TIP3    H131766   6.007   5.038  15.782  0.9969  0.0766 -1.1541
 3425TIP3    H231767   5.919   5.124  15.694  1.7572 -0.7695 -2.7794
 3426TIP3   OH231768   5.444   0.950   6.218 -0.0389  0.5287  0.8507
 3426TIP3    H131769   5.471   1.022   6.276  3.2834 -0.3798  0.6815
 3426TIP3    H231770   5.407   0.885   6.277 -0.8250  1.3908  1.3371
 3427TIP3   OH231771   5.979   5.913  14.299 -0.6941  0.8038  0.1632
 3427TIP3    H131772   5.903   5.970  14.287  1.4189  4.3991  2.2359
 3427TIP3    H231773   5.981   5.895  14.393  0.8794  0.5680  0.1111
 3428TIP3   OH231774   2.804   1.384  11.881  0.5531 -0.3736 -0.1195
 3428TIP3    H131775   2.826   1.292  11.868 -0.9107 -0.9867  1.4492
 3428TIP3    H231776   2.717   1.394  11.842  0.3844  0.1675  0.3821
 3429TIP3   OH231777   3.567   0.819   5.709  0.1701 -0.7772  0.5015
 3429TIP3    H131778   3.619   0.837   5.631  2.1321  2.3122  2.3229
 3429TIP3    H231779   3.477   0.832   5.682  0.5457 -2.4566 -1.8352
 3430TIP3   OH231780   4.538   6.441   1.484 -0.5513 -0.1867 -0.9469
 3430TIP3    H131781   4.483   6.482   1.550 -0.1890 -0.4406 -0.4820
 3430TIP3    H231782   4.477   6.390   1.430 -0.7797 -0.4536 -0.4461
 3431TIP3   OH231783   6.257   0.633  11.114  0.2949  0.0812  0.4547
 3431TIP3    H131784   6.252   0.720  11.152 -1.4464  0.1198  0.2409
 3431TIP3    H231785   6.267   0.575  11.189  0.4596  0.3971  0.6781
 3432TIP3   OH231786   5.040   2.903   5.198 -0.3838 -0.0640  0.4258
 3432TIP3    H131787   5.034   2.960   5.275  1.1404  1.8359 -0.7862
 3432TIP3    H231788   5.134   2.888   5.186 -0.5646 -0.0751 -1.2395
 3433TIP3   OH231789   0.926   5.223  10.389 -0.1251  1.3671  0.4067
 3433TIP3    H131790   0.935   5.263  10.476  1.6865 -0.3677  1.0958
 3433TIP3    H231791   1.012   5.237  10.348  0.2123 -0.7726  0.2774
 3434TIP3   OH231792   4.703   5.648  16.083  0.6861 -0.5053 -0.1930
 3434TIP3    H131793   4.709   5.564  16.037 -0.0300 -1.7630  1.8643
 3434TIP3    H231794   4.701   5.624  16.176  0.1733  1.7876  0.4427
 3435TIP3   OH231795   0.996   4.507   2.858 -0.2613 -0.0896  0.6673
 3435TIP3    H131796   1.089   4.516   2.838  0.1374 -0.2265  2.2815
 3435TIP3    H231797   0.961   4.595   2.845  0.4207  0.3235  1.4813
 3436TIP3   OH231798   0.744   3.602  12.859  0.2672  0.4512 -0.4926
 3436TIP3    H131799   0.699   3.686  12.857  0.8702  0.8309  0.6091
 3436TIP3    H231800   0.674   3.536  12.855 -0.1434  0.9471 -2.8014
 3437TIP3   OH231801   0.530   2.553   3.447  0.5710 -0.1573  0.1030
 3437TIP3    H131802   0.466   2.483   3.435 -1.8748  1.9541 -0.1252
 3437TIP3    H231803   0.573   2.533   3.530 -1.8487 -0.6528  1.3232
 3438TIP3   OH231804   2.069   2.753   2.146 -0.4023 -0.7464 -0.2832
 3438TIP3    H131805   2.101   2.760   2.236 -0.3533 -2.7368 -0.1034
 3438TIP3    H231806   2.149   2.756   2.092 -0.2890 -1.1562 -0.1421
 3439TIP3   OH231807   0.712   1.940  16.513  0.0725  0.3990  0.7118
 3439TIP3    H131808   0.754   1.898  16.588  1.5218  0.5858  0.0273
 3439TIP3    H231809   0.698   1.869  16.450  0.9091  0.6142  0.2695
 3440TIP3   OH231810   1.623   5.430  11.628  1.1295 -0.4841 -0.4372
 3440TIP3    H131811   1.581   5.491  11.688  0.8650 -0.3343 -0.7653
 3440TIP3    H231812   1.707   5.410  11.667  0.8567 -0.5804  0.1038
 3441TIP3   OH231813   4.988   6.349  13.860 -0.2790  0.4717  0.2254
 3441TIP3    H131814   5.050   6.411  13.900  1.5394 -1.3221  0.3732
 3441TIP3    H231815   5.034   6.266  13.861 -1.5155 -0.3689 -2.5279
 3442TIP3   OH231816   3.071   0.204   3.477  0.1779 -0.6381 -0.1405
 3442TIP3    H131817   3.109   0.285   3.510 -1.4389  0.9762 -1.9817
 3442TIP3    H231818   3.134   0.173   3.412  1.0769 -1.2307  0.9743
 3443TIP3   OH231819   5.359   4.541  12.725 -0.1442  0.1800  0.3574
 3443TIP3    H131820   5.291   4.515  12.787 -1.7948  2.3785 -0.4055
 3443TIP3    H231821   5.397   4.620  12.763  1.3553 -0.4539  0.2678
 3444TIP3   OH231822   6.233   3.524  11.724  0.1247  0.4494 -0.0661
 3444TIP3    H131823   6.237   3.460  11.796 -1.0155 -0.8810 -1.1307
 3444TIP3    H231824   6.303   3.497  11.665 -0.6389 -0.1266 -0.7344
 3445TIP3   OH231825   6.500   3.321  13.292 -0.0837 -0.5423  0.6036
 3445TIP3    H131826   6.429   3.370  13.249 -0.2623  0.1131  1.6159
 3445TIP3    H231827   6.491   3.232  13.257 -1.1241 -0.3645  0.3655
 3446TIP3   OH231828   3.508   4.888  13.902  0.5648 -0.0905  0.2268
 3446TIP3    H131829   3.459   4.877  13.820 -1.3311  0.7016  1.1883
 3446TIP3    H231830   3.564   4.964  13.885  1.2872 -0.8228 -0.7992
 3447TIP3   OH231831   1.862   1.979   1.886 -0.3780 -0.0847 -0.2815
 3447TIP3    H131832   1.791   1.929   1.925  0.9383 -0.7645  1.3813
 3447TIP3    H231833   1.851   2.068   1.919  0.4971 -0.5700  1.3942
 3448TIP3   OH231834   4.082   3.212  12.581  0.0679 -0.2768  0.4811
 3448TIP3    H131835   4.022   3.137  12.586 -0.5727  0.1765 -0.1948
 3448TIP3    H231836   4.168   3.172  12.569 -0.2179 -0.9212  0.5106
 3449TIP3   OH231837   0.067   2.624  16.237 -0.0831 -0.6238 -0.1758
 3449TIP3    H131838   0.149   2.595  16.197  0.2424 -1.5858  1.1240
 3449TIP3    H231839   0.090   2.643  16.328 -1.2446 -0.6112  0.1278
 3450TIP3   OH231840   5.432   3.462   1.458 -0.1295  0.2490 -0.0807
 3450TIP3    H131841   5.488   3.400   1.411 -0.9406 -0.5115 -0.0735
 3450TIP3    H231842   5.343   3.433   1.440 -0.4861  0.0161  1.7623
 3451TIP3   OH231843   6.071   6.589  13.511  0.0541 -0.1999  0.3997
 3451TIP3    H131844   6.029   6.629  13.587  1.9251  1.3251  0.7090
 3451TIP3    H231845   6.072   6.495  13.530 -0.3868  0.0652  1.8075
 3452TIP3   OH231846   6.829   4.154   5.614  0.6968  0.7246  0.3279
 3452TIP3    H131847   6.826   4.181   5.706 -1.2423 -0.6186  0.7048
 3452TIP3    H231848   6.846   4.236   5.566  1.4118  1.5004  1.8338
 3453TIP3   OH231849   6.102   3.009  16.800  0.0490  0.0293  0.0446
 3453TIP3    H131850   6.154   2.981  16.876  0.7719 -0.9852 -0.7898
 3453TIP3    H231851   6.065   2.927  16.765  0.7310  0.3152 -1.3994
 3454TIP3   OH231852   3.490   6.263   2.861  0.1914  0.2876  0.5839
 3454TIP3    H131853   3.521   6.307   2.781  1.5517 -2.5236 -0.5796
 3454TIP3    H231854   3.544   6.184   2.867 -1.7234 -0.9740  2.8259
 3455TIP3   OH231855   4.483   1.774   1.320 -0.2346 -0.0604  0.4705
 3455TIP3    H131856   4.542   1.807   1.252  0.3789 -2.0580 -0.0292
 3455TIP3    H231857   4.540   1.729   1.382 -1.0161 -0.1084  1.1759
 3456TIP3   OH231858   1.922   1.402  14.274  0.2546 -0.0239  0.0947
 3456TIP3    H131859   1.909   1.379  14.182 -1.5614 -1.1060  0.5707
 3456TIP3    H231860   1.882   1.330  14.322  2.3772 -0.1775  1.7814
 3457TIP3   OH231861   1.174   5.029  17.025  0.6275  0.0250 -0.1275
 3457TIP3    H131862   1.250   5.027  16.967  0.8955 -0.1389  0.2244
 3457TIP3    H231863   1.163   4.939  17.053  0.7653  0.1712  0.4130
 3458TIP3   OH231864   2.334   5.404  14.619  0.3218 -0.2347 -0.0467
 3458TIP3    H131865   2.419   5.380  14.583 -0.3318  0.0771 -1.8833
 3458TIP3    H231866   2.325   5.350  14.698  2.1818 -0.2964  0.1692
 3459TIP3   OH231867   1.864   3.467   4.449 -0.6456  0.1169 -0.3371
 3459TIP3    H131868   1.768   3.462   4.444 -0.5785 -0.5948 -1.0088
 3459TIP3    H231869   1.895   3.420   4.372  0.2626 -0.6228  0.4550
 3460TIP3   OH231870   3.088   1.648   5.765  0.3437 -0.1794  0.0512
 3460TIP3    H131871   3.116   1.598   5.841  1.9192 -1.8067 -1.5029
 3460TIP3    H231872   2.993   1.654   5.773  0.3801 -1.2419  1.5804
 3461TIP3   OH231873   4.326   4.452  15.011  0.1431 -0.1392 -0.3750
 3461TIP3    H131874   4.296   4.362  15.023 -0.2042 -0.1144 -1.0066
 3461TIP3    H231875   4.321   4.490  15.099 -0.2931 -0.5615 -0.2095
 3462TIP3   OH231876   3.375   4.104   2.200  0.1069 -0.1946 -0.8058
 3462TIP3    H131877   3.353   4.042   2.269  0.1726  0.1039 -0.5148
 3462TIP3    H231878   3.437   4.056   2.145 -0.0264 -0.4710 -0.7177
 3463TIP3   OH231879   5.415   6.703   4.743  0.2794  0.3494 -0.1586
 3463TIP3    H131880   5.372   6.755   4.675 -1.2171 -1.8229 -0.9673
 3463TIP3    H231881   5.479   6.650   4.695  0.7388  0.3544  0.4425
 3464TIP3   OH231882   1.900   1.798   3.415 -0.4898  0.2098  1.0300
 3464TIP3    H131883   1.818   1.751   3.434 -0.4772 -0.2013  0.0927
 3464TIP3    H231884   1.946   1.742   3.354 -0.1413  1.1115  0.4500
 3465TIP3   OH231885   4.897   6.396  12.087 -0.1474  0.1871 -0.3782
 3465TIP3    H131886   4.963   6.341  12.129 -2.8019 -0.9980  2.6453
 3465TIP3    H231887   4.852   6.338  12.025 -0.1962  0.1754 -0.3321
 3466TIP3   OH231888   6.615   5.725  16.565  0.0476 -0.2647 -0.3668
 3466TIP3    H131889   6.608   5.630  16.553  1.0386 -0.4489  0.4003
 3466TIP3    H231890   6.525   5.756  16.559 -0.5863 -1.5359  1.6509
 3467TIP3   OH231891   3.256   4.399   3.022 -0.0543 -0.4076  0.3135
 3467TIP3    H131892   3.271   4.477   3.076  2.5747  0.2145 -1.1424
 3467TIP3    H231893   3.270   4.325   3.082  1.7594  0.2767  0.8062
 3468TIP3   OH231894   1.683   6.079   1.813 -0.0017  0.2636  0.4988
 3468TIP3    H131895   1.755   6.016   1.811 -0.5488 -0.3752  0.5899
 3468TIP3    H231896   1.651   6.076   1.903  0.5041  1.2973  0.7276
 3469TIP3   OH231897   3.121   3.808  10.586  0.1440  0.1612 -0.1078
 3469TIP3    H131898   3.205   3.784  10.547 -0.9674 -1.9825 -1.3656
 3469TIP3    H231899   3.080   3.864  10.520 -0.2173 -0.4439 -0.4069
 3470TIP3   OH231900   2.640   0.348   5.944  0.3811 -0.3269 -0.1489
 3470TIP3    H131901   2.600   0.264   5.921  1.0630 -1.0181  1.0998
 3470TIP3    H231902   2.703   0.327   6.013  2.7565  0.7501 -1.8417
 3471TIP3   OH231903   5.768   3.131   3.363  0.4797 -0.5593 -0.1388
 3471TIP3    H131904   5.786   3.219   3.330  0.5571 -1.1633 -1.8129
 3471TIP3    H231905   5.733   3.145   3.451  0.1733  1.1566 -0.4939
 3472TIP3   OH231906   5.411   3.723  13.700  0.0096  0.2122 -0.0590
 3472TIP3    H131907   5.352   3.752  13.631  0.3833  0.0595 -0.4507
 3472TIP3    H231908   5.470   3.797  13.715  0.8721 -0.2773 -0.9569
 3473TIP3   OH231909   0.889   0.517   1.300 -0.2792 -0.6425  0.1957
 3473TIP3    H131910   0.895   0.603   1.259 -0.2158 -0.7635 -0.0556
 3473TIP3    H231911   0.821   0.471   1.250  0.4864 -1.1334 -0.4199
 3474TIP3   OH231912   2.367   6.157   1.812  0.0717 -0.6017 -0.2842
 3474TIP3    H131913   2.349   6.100   1.886 -0.1963 -0.2221 -0.0511
 3474TIP3    H231914   2.412   6.101   1.748 -0.3611 -1.1205 -0.1435
 3475TIP3   OH231915   6.270   0.359   2.846 -0.6800  0.1034  0.8170
 3475TIP3    H131916   6.357   0.389   2.818 -1.4429  0.1568 -1.8027
 3475TIP3    H231917   6.286   0.275   2.889  0.6448 -0.0579  0.0622
 3476TIP3   OH231918   5.916   1.074  16.168 -0.0095 -0.2831 -0.4313
 3476TIP3    H131919   5.905   1.158  16.214  0.5197 -0.1952 -0.4479
 3476TIP3    H231920   5.995   1.036  16.207 -0.5266 -1.0091 -0.0788
 3477TIP3   OH231921   0.965   2.233   2.822  0.6978 -0.0175  0.2077
 3477TIP3    H131922   1.045   2.250   2.872 -0.1557 -0.1266  1.6608
 3477TIP3    H231923   0.906   2.192   2.885 -0.6922  0.5266 -0.7031
 3478TIP3   OH231924   4.047   5.656   2.045  0.4203  0.3005  0.2701
 3478TIP3    H131925   4.085   5.619   1.966  0.5978 -0.6115  0.7660
 3478TIP3    H231926   3.994   5.585   2.082  3.2146 -0.6531  2.9055
 3479TIP3   OH231927   4.969   3.197  14.185 -0.6070 -0.0520  0.0844
 3479TIP3    H131928   4.881   3.161  14.179 -1.5605  2.3622 -2.1381
 3479TIP3    H231929   5.016   3.160  14.111 -0.6059  0.6605 -0.2881
 3480TIP3   OH231930   6.140   0.067  15.094 -0.7972  0.0925 -0.4284
 3480TIP3    H131931   6.048   0.051  15.071 -1.4619  1.2154  1.2626
 3480TIP3    H231932   6.154   0.160  15.076 -0.7336  0.5047  1.5520
 3481TIP3   OH231933   2.647   6.362  16.259  0.3876  0.3869  0.0498
 3481TIP3    H131934   2.725   6.382  16.311 -0.7446  0.6742  1.7397
 3481TIP3    H231935   2.651   6.268  16.244 -0.1610 -0.0676  2.3475
 3482TIP3   OH231936   4.732   1.838  12.046  0.0919 -0.2612  0.8483
 3482TIP3    H131937   4.720   1.833  12.140 -1.7578 -2.6680  0.5830
 3482TIP3    H231938   4.645   1.856  12.011  0.3468 -1.3555 -0.4558
 3483TIP3   OH231939   3.782   5.908   5.850 -0.6566  0.1077  0.2096
 3483TIP3    H131940   3.724   5.941   5.918 -0.4876  4.6384 -1.5315
 3483TIP3    H231941   3.866   5.949   5.867  0.5639 -1.9098 -0.5361
 3484TIP3   OH231942   5.316   3.069  13.205 -0.0359  0.6580 -0.3634
 3484TIP3    H131943   5.287   3.151  13.244  0.5662  1.4652 -1.5310
 3484TIP3    H231944   5.250   3.049  13.138  0.3030  0.6851 -0.7085
 3485TIP3   OH231945   5.829   5.364   5.951  0.2027 -0.2435  0.0944
 3485TIP3    H131946   5.843   5.270   5.968  0.8614 -0.2769 -0.5977
 3485TIP3    H231947   5.889   5.385   5.880 -0.2020  0.6304 -0.0022
 3486TIP3   OH231948   4.099   0.744   2.812  0.5049 -0.1323 -0.3066
 3486TIP3    H131949   4.041   0.680   2.854 -0.7885  0.6697 -0.8035
 3486TIP3    H231950   4.082   0.734   2.718  1.7840 -0.4378 -0.5208
 3487TIP3   OH231951   5.006   5.351  10.230  0.4660 -0.6624 -0.0540
 3487TIP3    H131952   4.923   5.400  10.237  1.1939  0.6553 -0.3287
 3487TIP3    H231953   4.979   5.259  10.233 -1.2143 -0.3268 -2.0195
 3488TIP3   OH231954   0.960   3.520   4.688 -0.6769  0.1014  0.1525
 3488TIP3    H131955   0.931   3.495   4.601  0.1053  0.0375 -0.1003
 3488TIP3    H231956   0.908   3.465   4.747  0.1002 -1.2191 -0.3466
 3489TIP3   OH231957   6.551   1.502   5.215  0.2141 -0.1775 -0.3599
 3489TIP3    H131958   6.536   1.418   5.172 -0.2242  0.2655 -1.0839
 3489TIP3    H231959   6.627   1.486   5.272  0.2252 -1.0192 -0.5956
 3490TIP3   OH231960   1.590   1.611  15.811 -0.4798  0.1065 -0.0980
 3490TIP3    H131961   1.552   1.548  15.750 -1.1693  0.7593 -0.3615
 3490TIP3    H231962   1.527   1.683  15.814  0.0916  0.6010  0.5125
 3491TIP3   OH231963   5.579   3.854  11.258  0.5358 -0.1748  0.3543
 3491TIP3    H131964   5.536   3.939  11.258 -0.7723 -0.8080  0.3102
 3491TIP3    H231965   5.661   3.868  11.212 -1.2389  0.3313 -3.0247
 3492TIP3   OH231966   1.175   6.168   5.664 -0.5042 -0.2153  0.5906
 3492TIP3    H131967   1.257   6.177   5.712 -0.9938  0.4930  1.3115
 3492TIP3    H231968   1.125   6.103   5.713 -0.8038  0.1466  0.7717
 3493TIP3   OH231969   0.955   3.496   1.220  0.3692  0.0854  1.0996
 3493TIP3    H131970   0.982   3.434   1.288  0.6459 -0.5901  0.3922
 3493TIP3    H231971   0.861   3.482   1.211  0.7676 -1.9893 -0.7071
 3494TIP3   OH231972   5.185   3.808  13.341  0.4790  0.4191  0.6940
 3494TIP3    H131973   5.240   3.866  13.394  2.1997  0.7194 -1.2930
 3494TIP3    H231974   5.243   3.735  13.319 -0.5173 -0.2002  0.0704
 3495TIP3   OH231975   5.287   3.107   3.748  0.0999 -0.0942 -0.1562
 3495TIP3    H131976   5.295   3.197   3.780  1.0626  0.0647 -0.8082
 3495TIP3    H231977   5.329   3.108   3.662 -1.5292 -0.7364 -1.0148
 3496TIP3   OH231978   3.815   3.647   1.632 -0.2008  0.4326  0.7194
 3496TIP3    H131979   3.740   3.658   1.691  1.2189  0.2396  2.6475
 3496TIP3    H231980   3.884   3.700   1.671  0.2608  1.9205 -1.9062
 3497TIP3   OH231981   4.659   0.651   3.621 -0.3701 -0.4014 -0.0665
 3497TIP3    H131982   4.703   0.708   3.685 -2.4366  3.0165 -1.4052
 3497TIP3    H231983   4.706   0.668   3.539 -2.0697  0.8355 -0.8392
 3498TIP3   OH231984   3.114   5.380   1.346  0.4542 -0.0122 -0.9829
 3498TIP3    H131985   3.038   5.438   1.340  0.4920  0.0066 -1.2811
 3498TIP3    H231986   3.090   5.304   1.293  0.0810 -0.6360  0.0414
 3499TIP3   OH231987   1.682   2.747  16.241  0.0726  0.1481  0.3503
 3499TIP3    H131988   1.777   2.735  16.251  0.0856  0.9727  1.3293
 3499TIP3    H231989   1.669   2.841  16.246 -0.8382  0.0153  0.5733
 3500TIP3   OH231990   1.388   4.969  11.783  0.2801  0.3405  0.7409
 3500TIP3    H131991   1.343   5.001  11.861  0.4502  1.4411  0.4036
 3500TIP3    H231992   1.388   5.044  11.723  0.1527 -0.4833 -0.3191
 3501TIP3   OH231993   3.293   4.608  15.041  0.3717  0.3835 -0.4285
 3501TIP3    H131994   3.357   4.542  15.017  0.3384  0.9616 -2.2586
 3501TIP3    H231995   3.214   4.583  14.993 -0.8169 -0.2858  1.7287
 3502TIP3   OH231996   0.401   6.769   6.229  0.3528 -0.1219 -0.0357
 3502TIP3    H131997   0.340   6.722   6.286  0.5841  2.0334  2.1726
 3502TIP3    H231998   0.488   6.738   6.256  0.3963 -1.2359 -1.3346
 3503TIP3   OH231999   1.725   6.583  16.340 -0.2419  0.6371 -0.8054
 3503TIP3    H132000   1.731   6.497  16.383  1.0252  0.0476 -2.0609
 3503TIP3    H232001   1.812   6.596  16.301  0.0496  3.1455  0.4804
 3504TIP3   OH232002   3.522   3.305   3.186  0.2160 -0.2807 -0.2542
 3504TIP3    H132003   3.462   3.371   3.220  1.2039  0.8598 -0.6129
 3504TIP3    H232004   3.575   3.279   3.261  2.6721  2.5377 -0.8118
 3505TIP3   OH232005   1.803   2.720  16.540 -0.4681 -0.1289 -0.0600
 3505TIP3    H132006   1.878   2.688  16.489 -1.5554 -1.0413 -1.1239
 3505TIP3    H232007   1.834   2.803  16.576  1.5712 -1.1579  0.7424
 3506TIP3   OH232008   4.420   6.807   3.190 -0.2826  0.1742  0.7367
 3506TIP3    H132009   4.411   6.869   3.262 -0.1734  1.4067 -0.2642
 3506TIP3    H232010   4.513   6.784   3.190 -0.3502 -0.1007  1.2021
 3507TIP3   OH232011   0.227   2.853  12.230 -0.2186 -0.0879  0.4572
 3507TIP3    H132012   0.314   2.889  12.241 -0.1033 -0.2481  0.0879
 3507TIP3    H232013   0.241   2.761  12.205 -0.4501  0.1917 -0.7990
 3508TIP3   OH232014   6.570   4.726   2.955 -0.1317  0.4615 -0.0430
 3508TIP3    H132015   6.560   4.741   3.049  0.6281 -1.4906  0.3909
 3508TIP3    H232016   6.664   4.719   2.942 -0.2584  0.1920 -0.8689
 3509TIP3   OH232017   4.175   5.722  13.593  0.0064 -0.2755 -0.4214
 3509TIP3    H132018   4.163   5.807  13.636  1.2474 -1.2083  1.9647
 3509TIP3    H232019   4.101   5.669  13.623 -0.1755 -0.3736 -1.0313
 3510TIP3   OH232020   0.889   0.058  12.730 -0.5688  0.0642  0.1091
 3510TIP3    H132021   0.878   0.049  12.824 -0.6615  0.7188  0.1635
 3510TIP3    H232022   0.800   0.061  12.695 -0.5670 -1.9127 -0.1918
 3511TIP3   OH232023   2.205   4.981   3.389  0.3807 -0.0475 -0.1880
 3511TIP3    H132024   2.220   4.895   3.428  0.1120  0.5188  1.2345
 3511TIP3    H232025   2.269   5.039   3.432 -0.1458  0.6643 -0.3381
 3512TIP3   OH232026   0.346   6.304  11.759 -0.0845  0.1917 -0.5954
 3512TIP3    H132027   0.343   6.268  11.671 -0.1123  0.4182 -0.6898
 3512TIP3    H232028   0.367   6.397  11.746 -1.1300  0.4675 -0.4342
 3513TIP3   OH232029   6.822   2.216   5.090  0.3138 -0.3255 -0.5896
 3513TIP3    H132030   6.774   2.296   5.068  2.4468  1.9505  2.2671
 3513TIP3    H232031   6.849   2.181   5.005  0.3937  2.7049 -1.9539
 3514TIP3   OH232032   1.768   0.937  13.759  0.0633 -0.0420 -0.0477
 3514TIP3    H132033   1.726   1.016  13.793  0.0129 -0.1004  0.0255
 3514TIP3    H232034   1.748   0.937  13.666  0.1457  0.0836 -0.0664
 3515TIP3   OH232035   6.082   2.473  12.611  0.3558  0.0190  0.3435
 3515TIP3    H132036   6.077   2.519  12.527 -0.3692 -1.8484 -0.6898
 3515TIP3    H232037   6.001   2.497  12.656  0.0902 -0.0465 -0.0899
 3516TIP3   OH232038   1.241   3.196   2.362 -0.2497  0.0532 -0.1697
 3516TIP3    H132039   1.293   3.244   2.298 -0.6090 -0.2592 -0.7039
 3516TIP3    H232040   1.174   3.151   2.310 -1.6241  1.1610  0.5713
 3517TIP3   OH232041   1.122   3.786   3.796  0.0397  0.5447  0.1071
 3517TIP3    H132042   1.033   3.802   3.764 -0.3871 -1.3021  0.2267
 3517TIP3    H232043   1.138   3.693   3.777  1.8955  0.8005  0.2229
 3518TIP3   OH232044   5.620   1.532  11.795 -0.0484 -0.7943 -0.1708
 3518TIP3    H132045   5.674   1.483  11.733 -0.7511 -1.0272 -0.6089
 3518TIP3    H232046   5.547   1.566  11.743  1.0172  1.7568 -0.1303
 3519TIP3   OH232047   3.635   3.594   3.152  0.1636  0.6037 -0.2057
 3519TIP3    H132048   3.571   3.534   3.191  0.4787  0.6029  0.3017
 3519TIP3    H232049   3.682   3.540   3.089  1.1523  0.0421  0.9846
 3520TIP3   OH232050   3.508   6.770  16.663  0.0545  0.1602  0.0637
 3520TIP3    H132051   3.414   6.789  16.658  0.5098  3.5371  1.4961
 3520TIP3    H232052   3.542   6.796  16.577 -0.5515 -4.0540 -1.6888
 3521TIP3   OH232053   4.261   5.397   2.863 -0.0982  0.5662  0.0175
 3521TIP3    H132054   4.186   5.449   2.890 -1.4608 -1.6098  0.7089
 3521TIP3    H232055   4.288   5.351   2.943  1.0400  0.1990 -0.5567
 3522TIP3   OH232056   5.083   3.477   4.512  0.6685 -0.3616 -0.8669
 3522TIP3    H132057   5.115   3.564   4.488 -0.2695  0.5312  0.8612
 3522TIP3    H232058   4.990   3.490   4.529  0.9525 -1.0920  1.7945
 3523TIP3   OH232059   4.342   5.236   1.562 -0.6068  0.5615 -0.0510
 3523TIP3    H132060   4.401   5.290   1.614  0.1651  0.0689 -0.4018
 3523TIP3    H232061   4.261   5.287   1.557 -0.3638  1.0497  0.7961
 3524TIP3   OH232062   2.918   4.664   3.934  0.0976 -0.6619 -0.5755
 3524TIP3    H132063   2.949   4.582   3.897  1.3694 -0.6570  0.4144
 3524TIP3    H232064   2.997   4.717   3.947 -0.5860  0.3207 -0.2408
 3525TIP3   OH232065   0.813   1.406  13.415 -0.5589 -0.2162 -0.2531
 3525TIP3    H132066   0.781   1.349  13.485  0.8998  0.1519  0.7712
 3525TIP3    H232067   0.737   1.423  13.360 -1.9393  0.0345  1.6345
 3526TIP3   OH232068   0.801   6.708  12.021 -0.7382 -0.5027  0.0056
 3526TIP3    H132069   0.894   6.707  11.999 -0.3933 -2.4721  1.2733
 3526TIP3    H232070   0.761   6.646  11.960 -1.2903  0.5449 -0.7176
 3527TIP3   OH232071   3.428   2.952   3.299 -0.5210  0.1704 -0.3928
 3527TIP3    H132072   3.358   2.992   3.351 -1.1905 -1.6584  0.1978
 3527TIP3    H232073   3.504   2.950   3.358 -0.6418  0.0825 -0.2406
 3528TIP3   OH232074   5.522   0.028   5.219  0.0730 -0.4673 -0.2952
 3528TIP3    H132075   5.429   0.007   5.228  0.6395 -2.7190  1.1275
 3528TIP3    H232076   5.546  -0.008   5.134 -0.3812  0.3667 -0.7936
 3529TIP3   OH232077   2.911   4.846  15.472 -0.4704  0.1697  0.0143
 3529TIP3    H132078   2.960   4.928  15.477 -0.8228  0.4415 -0.9060
 3529TIP3    H232079   2.869   4.848  15.387 -2.0895 -0.0731  0.7786
 3530TIP3   OH232080   5.110   6.066  10.927 -0.5651 -0.5536  0.1997
 3530TIP3    H132081   5.118   6.040  11.018  1.2795 -0.9789 -0.0426
 3530TIP3    H232082   5.148   5.992  10.878  1.1323  0.8497 -0.7155
 3531TIP3   OH232083   0.665   0.848  11.317 -0.6467 -0.0644  0.1254
 3531TIP3    H132084   0.640   0.759  11.291 -0.1834  0.1479 -1.1328
 3531TIP3    H232085   0.586   0.885  11.357 -1.2512 -0.6055 -0.5409
 3532TIP3   OH232086   2.658   0.741  15.656  0.2693  0.1853 -0.2183
 3532TIP3    H132087   2.662   0.815  15.716  0.1350 -0.1571  0.2162
 3532TIP3    H232088   2.610   0.774  15.580  0.2049  0.5377 -0.0260
 3533TIP3   OH232089   6.771   0.311  10.730 -0.2983 -0.3188 -0.1879
 3533TIP3    H132090   6.683   0.273  10.737 -1.2113  1.3663 -1.7397
 3533TIP3    H232091   6.758   0.391  10.679  1.8900  0.8478  0.9698
 3534TIP3   OH232092   3.085   0.590   2.249  0.4521  0.5343  0.1936
 3534TIP3    H132093   3.119   0.538   2.177 -0.2021  0.0851  0.2056
 3534TIP3    H232094   3.163   0.625   2.293  1.0112 -1.9187  1.3122
 3535TIP3   OH232095   2.176   2.681  14.034  0.0778 -0.3742 -0.4107
 3535TIP3    H132096   2.208   2.659  13.947  2.0605  1.2386 -0.1722
 3535TIP3    H232097   2.197   2.774  14.045  0.1190 -0.5807  1.8635
 3536TIP3   OH232098   6.773   1.261   2.549 -0.5752  0.2518  0.1671
 3536TIP3    H132099   6.844   1.197   2.549 -1.7877 -1.1379  0.0973
 3536TIP3    H232100   6.693   1.209   2.548 -1.6214  1.7725  0.7521
 3537TIP3   OH232101   3.896   5.474  15.505  0.3097  0.0816 -0.2595
 3537TIP3    H132102   3.834   5.494  15.435 -0.8718 -0.4140  0.5935
 3537TIP3    H232103   3.908   5.557  15.552  0.5906  0.2640 -0.6531
 3538TIP3   OH232104   2.787   1.796   4.161  0.1442 -0.0479  0.1740
 3538TIP3    H132105   2.719   1.737   4.128  1.0961 -1.5489  0.8089
 3538TIP3    H232106   2.755   1.825   4.246 -0.1248 -0.0094  0.0590
 3539TIP3   OH232107   2.650   4.196   5.793 -0.1412 -0.6379  0.1812
 3539TIP3    H132108   2.610   4.159   5.871  0.5490  2.7811  2.4049
 3539TIP3    H232109   2.743   4.205   5.816  0.1750 -0.0398 -1.2146
 3540TIP3   OH232110   4.221   0.680  16.539  0.1845 -0.5299 -0.5721
 3540TIP3    H132111   4.208   0.675  16.444  1.0232  1.6360 -0.8702
 3540TIP3    H232112   4.133   0.678  16.576 -0.2020 -0.5596 -1.4754
 3541TIP3   OH232113   4.907   4.971   5.198 -0.1920  0.4651 -0.0869
 3541TIP3    H132114   4.976   5.029   5.165 -0.9829  1.4704 -0.0421
 3541TIP3    H232115   4.939   4.883   5.181  1.0666  0.9117 -0.1327
 3542TIP3   OH232116   3.604   5.534   6.258 -0.0941  1.1018  0.1156
 3542TIP3    H132117   3.561   5.618   6.274 -1.2807  0.3001  1.4141
 3542TIP3    H232118   3.532   5.474   6.236  0.4363 -0.0187  1.2531
 3543TIP3   OH232119   5.980   2.853   1.068  0.3896 -0.4365 -0.1634
 3543TIP3    H132120   5.965   2.760   1.083  0.9999 -0.6159 -0.6148
 3543TIP3    H232121   5.940   2.897   1.143  1.9710 -1.1839  1.1772
 3544TIP3   OH232122   5.332   4.820   5.618  0.4325  0.2884 -0.2537
 3544TIP3    H132123   5.337   4.843   5.711  0.7492  1.7604 -0.5948
 3544TIP3    H232124   5.239   4.805   5.602  0.1821  1.4222  0.0231
 3545TIP3   OH232125   6.460   3.277  14.814  0.4096  0.0810 -0.0263
 3545TIP3    H132126   6.540   3.325  14.792 -0.0459  0.7215 -0.3200
 3545TIP3    H232127   6.489   3.208  14.874  0.8683  1.7721  1.8268
 3546TIP3   OH232128   2.580   5.390   4.883 -0.1460  0.1646 -0.2602
 3546TIP3    H132129   2.496   5.402   4.927 -0.2714  0.8796 -0.6985
 3546TIP3    H232130   2.600   5.297   4.896 -0.2676  0.3111  1.1442
 3547TIP3   OH232131   4.430   2.546   0.091  0.2923  0.0899 -0.2498
 3547TIP3    H132132   4.496   2.615   0.086 -0.7482  1.0469 -1.9794
 3547TIP3    H232133   4.366   2.579   0.155  1.4639 -0.8993  1.5291
 3548TIP3   OH232134   6.674   4.612   1.540 -0.0695  0.6869  0.1165
 3548TIP3    H132135   6.769   4.613   1.529  0.1427 -1.0074  1.3322
 3548TIP3    H232136   6.645   4.532   1.495 -0.3080 -1.1392  3.1774
 3549TIP3   OH232137   2.520   6.754   3.916 -0.2617  0.0396 -0.0411
 3549TIP3    H132138   2.505   6.708   3.999  1.4475 -0.4258  0.0483
 3549TIP3    H232139   2.597   6.807   3.932 -0.5689  0.8145 -1.0154
 3550TIP3   OH232140   0.990   3.094   4.310  0.3680  0.4412 -0.2065
 3550TIP3    H132141   0.988   3.016   4.255  1.2072 -0.1653  0.5894
 3550TIP3    H232142   0.913   3.085   4.366  0.7605 -0.1173  0.2610
 3551TIP3   OH232143   5.739   6.440  16.293  0.2631  0.2325  0.4271
 3551TIP3    H132144   5.733   6.509  16.359 -0.7245 -0.4227  1.0534
 3551TIP3    H232145   5.657   6.447  16.244  0.5970  0.1363 -0.1490
 3552TIP3   OH232146   3.070   4.346  12.092  0.1112  0.7554  0.1452
 3552TIP3    H132147   3.104   4.432  12.118  1.6138  0.7219 -1.4842
 3552TIP3    H232148   3.043   4.305  12.174  1.4534  1.9276  1.2301
 3553TIP3   OH232149   0.472   2.169   1.947 -0.2792 -0.2414  0.2238
 3553TIP3    H132150   0.446   2.219   1.869  0.8784 -1.0457 -0.7164
 3553TIP3    H232151   0.414   2.094   1.948 -1.8299  0.9183  1.4756
 3554TIP3   OH232152   5.870   2.392  13.162 -0.4383 -0.2698 -0.4218
 3554TIP3    H132153   5.825   2.461  13.212  0.0812  0.1670 -0.5416
 3554TIP3    H232154   5.860   2.314  13.216  2.0069  0.6419  1.5373
 3555TIP3   OH232155   6.005   2.202  15.812  0.2442  0.4116 -0.0497
 3555TIP3    H132156   6.041   2.114  15.809  0.7954  0.6509 -1.2535
 3555TIP3    H232157   6.032   2.237  15.897  0.5333 -0.3594  0.1813
 3556TIP3   OH232158   5.196   4.241  16.280 -0.8927  0.1062  0.4350
 3556TIP3    H132159   5.181   4.150  16.307 -1.8087  0.2340  0.3770
 3556TIP3    H232160   5.209   4.236  16.185 -1.5503  0.0997  0.3414
 3557TIP3   OH232161   4.167   5.793   3.991  0.1746 -0.0658  0.2291
 3557TIP3    H132162   4.151   5.816   4.082 -1.6154 -1.6451  0.3667
 3557TIP3    H232163   4.157   5.876   3.944  0.8255  0.7111  1.3952
 3558TIP3   OH232164   5.491   3.327  13.102  0.4815 -0.0527 -0.2386
 3558TIP3    H132165   5.449   3.319  13.187 -0.7465  2.2176 -0.5515
 3558TIP3    H232166   5.425   3.299  13.039 -0.2379  2.3492 -0.6546
 3559TIP3   OH232167   1.848   5.679   0.369  1.0998 -0.0516 -0.1975
 3559TIP3    H132168   1.808   5.708   0.287 -0.1725 -1.2599 -0.0504
 3559TIP3    H232169   1.898   5.601   0.345 -1.0710 -1.7620  0.4405
 3560TIP3   OH232170   2.018   3.941   1.624  0.1847 -0.1649 -0.1162
 3560TIP3    H132171   2.026   3.922   1.530  1.0993 -0.0716 -0.0701
 3560TIP3    H232172   2.033   3.857   1.667  1.0381  0.0264 -0.0203
 3561TIP3   OH232173   1.544   5.107   0.904 -0.0404  0.1714 -0.1157
 3561TIP3    H132174   1.479   5.173   0.879  0.4249  0.5591 -0.2989
 3561TIP3    H232175   1.587   5.143   0.981  1.1845  0.7403 -1.0360
 3562TIP3   OH232176   4.133   1.668   0.165  0.3499 -0.6156  0.3178
 3562TIP3    H132177   4.167   1.652   0.076  0.5406 -0.8366  0.4272
 3562TIP3    H232178   4.042   1.693   0.152  0.6348  0.3006 -0.0052
 3563TIP3   OH232179   2.049   6.613   0.134 -0.4139  0.2857  0.2903
 3563TIP3    H132180   1.961   6.611   0.096 -0.6597  1.2221  0.7786
 3563TIP3    H232181   2.058   6.528   0.177 -0.0733 -0.8776 -1.9295
 3564TIP3   OH232182   1.398   1.183   0.437 -0.6748 -0.2683 -0.3469
 3564TIP3    H132183   1.450   1.225   0.506 -1.2632  2.1575 -1.2888
 3564TIP3    H232184   1.310   1.179   0.473 -0.4391 -1.7837  0.1475
 3565TIP3   OH232185   3.140   6.558   4.412 -0.0579  0.2319  0.4040
 3565TIP3    H132186   3.135   6.524   4.323 -0.3968 -0.7640  0.7928
 3565TIP3    H232187   3.149   6.481   4.467  2.2374  0.9458  1.1116
 3566TIP3   OH232188   6.214   5.791   0.099 -0.4136 -0.0705  0.1661
 3566TIP3    H132189   6.134   5.739   0.094 -0.4817 -0.0930  1.2567
 3566TIP3    H232190   6.187   5.874   0.137 -0.3520  0.9174 -1.8138
 3567TIP3   OH232191   4.920   5.766   0.395  0.0069 -0.0971  0.6701
 3567TIP3    H132192   4.905   5.844   0.341  0.3943  0.2928  1.1210
 3567TIP3    H232193   4.861   5.777   0.469 -1.3695 -1.1880 -0.2131
 3568TIP3   OH232194   0.869   4.954  13.124  1.2081  0.5236 -0.0594
 3568TIP3    H132195   0.949   4.919  13.085  0.4049 -0.4220 -0.9038
 3568TIP3    H232196   0.805   4.884  13.115 -0.1984  1.8449 -0.9129
 3569TIP3   OH232197   1.527   3.734  10.290  0.1829  0.5462  0.0761
 3569TIP3    H132198   1.594   3.714  10.356  0.9330  0.0807 -0.8040
 3569TIP3    H232199   1.536   3.664  10.226 -2.3453 -0.5549  0.8001
 3570TIP3   OH232200   0.106   5.186  10.586  0.1537  0.4573 -0.5431
 3570TIP3    H132201   0.191   5.142  10.578 -0.4884 -0.8178 -0.6835
 3570TIP3    H232202   0.060   5.162  10.506 -1.4463 -1.4203  0.8431
 3571TIP3   OH232203   3.834   3.515  11.918  0.3205  0.3275 -0.0144
 3571TIP3    H132204   3.883   3.572  11.859  0.0035  0.3512 -0.2574
 3571TIP3    H232205   3.790   3.575  11.978 -1.9803  0.5337 -1.7529
 3572TIP3   OH232206   3.454   2.863   1.026 -0.0708 -0.5695  0.5562
 3572TIP3    H132207   3.359   2.855   1.023 -0.1488 -0.3531  1.7723
 3572TIP3    H232208   3.473   2.946   0.982 -0.5813  0.0935  1.5451
 3573TIP3   OH232209   1.304   6.255   1.563  0.9463  0.2795  0.2211
 3573TIP3    H132210   1.337   6.326   1.619  1.6727  0.4316 -0.3784
 3573TIP3    H232211   1.209   6.267   1.564  1.1018  2.1718 -0.9831
 3574TIP3   OH232212   5.498   4.603  10.617 -0.0860  0.3225  0.2229
 3574TIP3    H132213   5.550   4.675  10.654  0.3736  0.1008  0.0225
 3574TIP3    H232214   5.487   4.627  10.525  1.3575 -0.5688 -0.2201
 3575TIP3   OH232215   4.358   6.352   3.438 -0.2833  0.2407  0.6064
 3575TIP3    H132216   4.360   6.445   3.414  1.7357 -0.1287 -0.8630
 3575TIP3    H232217   4.419   6.345   3.511  2.8726 -0.4686 -1.8717
 3576TIP3   OH232218   2.421   2.432  13.935 -0.1507 -0.1768  0.5257
 3576TIP3    H132219   2.407   2.339  13.951 -1.1144  0.1492  1.6841
 3576TIP3    H232220   2.516   2.440  13.926  0.0047 -1.1535  1.1405
 3577TIP3   OH232221   6.593   4.126  15.125  0.4126 -0.1856  0.4097
 3577TIP3    H132222   6.589   4.089  15.214 -0.9656 -1.0378  0.0227
 3577TIP3    H232223   6.550   4.061  15.070  0.4082  0.7684 -0.7471
 3578TIP3   OH232224   1.024   4.840   3.479 -0.2901  0.3490 -0.1121
 3578TIP3    H132225   1.028   4.877   3.391  0.6875 -1.5829 -0.9177
 3578TIP3    H232226   0.950   4.779   3.476  1.7098 -2.2056 -0.6783
 3579TIP3   OH232227   1.919   6.170   4.242 -0.2624 -0.0543 -0.2502
 3579TIP3    H132228   2.005   6.132   4.261  0.4610  0.6982 -1.8215
 3579TIP3    H232229   1.931   6.264   4.255 -1.2935 -0.0654  0.9860
 3580TIP3   OH232230   5.841   3.404   1.920  0.4157 -0.0023 -0.5656
 3580TIP3    H132231   5.776   3.335   1.908 -0.2637  0.6677 -0.7861
 3580TIP3    H232232   5.790   3.483   1.935  1.1846  0.5059 -0.5612
 3581TIP3   OH232233   1.419   0.841  16.885 -0.9687 -0.2193  0.1395
 3581TIP3    H132234   1.473   0.771  16.922 -0.1458  0.4721  0.2797
 3581TIP3    H232235   1.419   0.824  16.791 -1.5892 -0.9615  0.2666
 3582TIP3   OH232236   0.455   4.551  12.964  0.2834 -0.1586  0.4530
 3582TIP3    H132237   0.470   4.565  13.057  0.2517 -1.4972  0.6775
 3582TIP3    H232238   0.531   4.590  12.921  0.3380  0.3954  1.0310
 3583TIP3   OH232239   4.265   2.156  10.754 -0.3010 -0.2822 -0.1320
 3583TIP3    H132240   4.353   2.118  10.753 -0.7075 -1.2774  0.5253
 3583TIP3    H232241   4.267   2.222  10.684  0.9876 -0.2207 -0.0705
 3584TIP3   OH232242   2.814   0.412  11.749 -0.2981 -0.3110  0.1264
 3584TIP3    H132243   2.782   0.472  11.682 -0.9309 -2.4155 -1.5233
 3584TIP3    H232244   2.747   0.414  11.818 -0.0113  1.2793  0.3991
 3585TIP3   OH232245   2.028   3.119  10.966  0.2751  0.4137  0.3516
 3585TIP3    H132246   2.080   3.145  11.042 -0.1578  0.5446  0.6090
 3585TIP3    H232247   1.989   3.201  10.935  1.3113  0.5369 -0.6796
 3586TIP3   OH232248   1.378   3.934   5.518 -0.0133 -0.3647 -0.9323
 3586TIP3    H132249   1.354   4.016   5.474 -0.1586 -0.9189 -1.8996
 3586TIP3    H232250   1.294   3.895   5.543  0.0872  0.5447  1.0096
 3587TIP3   OH232251   2.501   3.539   5.041  0.2776 -0.3640  0.0005
 3587TIP3    H132252   2.593   3.564   5.050  0.4540 -0.8309 -0.5005
 3587TIP3    H232253   2.502   3.446   5.021 -0.3064 -0.3689 -0.0453
 3588TIP3   OH232254   2.650   3.319  13.173  0.3541  0.0026 -0.3651
 3588TIP3    H132255   2.622   3.235  13.137  1.1482  0.1444 -1.3587
 3588TIP3    H232256   2.670   3.301  13.264 -0.5213 -0.6426 -0.2913
 3589TIP3   OH232257   2.423   3.175   5.814 -0.5292  0.1202 -0.3731
 3589TIP3    H132258   2.452   3.233   5.884 -0.6188 -1.3212  0.9079
 3589TIP3    H232259   2.499   3.167   5.756 -0.4935  1.4220 -0.5449
 3590TIP3   OH232260   0.981   2.197  14.072 -0.0335 -0.3925 -0.1562
 3590TIP3    H132261   0.950   2.247  13.997 -0.3633 -1.5440 -0.8186
 3590TIP3    H232262   0.902   2.161  14.111 -0.2305  2.7833  2.7478
 3591TIP3   OH232263   0.423   0.364  11.306  0.3644  0.1353  0.2645
 3591TIP3    H132264   0.360   0.300  11.272 -0.8495  1.7288 -0.6122
 3591TIP3    H232265   0.488   0.372  11.236  0.4918 -0.0896  0.3556
 3592TIP3   OH232266   1.756   6.745   2.307 -0.1217  0.1054  0.5460
 3592TIP3    H132267   1.743   6.840   2.298  1.5873  0.4936  1.6220
 3592TIP3    H232268   1.682   6.706   2.260 -0.9948  1.9644  0.2724
 3593TIP3   OH232269   3.324   5.922  13.505 -0.2100  0.1133 -0.2725
 3593TIP3    H132270   3.268   5.952  13.434 -1.1305  1.5596  0.9924
 3593TIP3    H232271   3.263   5.885  13.570  0.6501 -1.7009 -0.4374
 3594TIP3   OH232272   3.455   3.539  12.678 -0.5747 -0.4120 -0.0966
 3594TIP3    H132273   3.490   3.592  12.606 -0.1760 -1.2548 -0.5468
 3594TIP3    H232274   3.369   3.576  12.695  1.0312  2.7834  2.1372
 3595TIP3   OH232275   2.546   6.307   3.382  0.0508  0.6050 -0.1397
 3595TIP3    H132276   2.633   6.320   3.344  0.4776 -0.6776  0.3110
 3595TIP3    H232277   2.542   6.212   3.398 -1.6544  0.5652 -0.6594
 3596TIP3   OH232278   6.245   0.483  13.768  0.1455  0.1462  0.3063
 3596TIP3    H132279   6.237   0.578  13.760  0.8680  0.3581  1.8843
 3596TIP3    H232280   6.162   0.450  13.733  0.1353  1.2951 -0.8684
 3597TIP3   OH232281   5.034   5.173  14.604 -0.4439  0.1091 -0.5458
 3597TIP3    H132282   4.951   5.161  14.557 -0.5175 -2.3748  0.0804
 3597TIP3    H232283   5.022   5.125  14.686  1.2605  0.5631  0.0068
 3598TIP3   OH232284   5.163   4.600   4.791 -0.3255 -0.0432  0.2455
 3598TIP3    H132285   5.148   4.549   4.711 -0.3073  0.1449  0.1210
 3598TIP3    H232286   5.078   4.636   4.813 -0.2451  0.2713  0.0565
 3599TIP3   OH232287   5.715   3.778  12.321  0.3371 -0.1610 -0.4341
 3599TIP3    H132288   5.744   3.868  12.305  1.5945  0.1116  2.6822
 3599TIP3    H232289   5.627   3.775  12.283  0.5204  2.1363 -1.2553
 3600TIP3   OH232290   1.780   4.537   3.355 -0.0225  0.2766 -0.2693
 3600TIP3    H132291   1.704   4.557   3.410  0.2720 -0.4074  0.4115
 3600TIP3    H232292   1.743   4.499   3.276 -0.4341  0.8480 -0.3572
 3601TIP3   OH232293   4.475   3.100  13.979 -0.3763  0.4124  0.4553
 3601TIP3    H132294   4.406   3.165  13.965  0.5079  0.9698 -1.8714
 3601TIP3    H232295   4.480   3.052  13.896 -0.0197 -1.7063  1.6347
 3602TIP3   OH232296   4.967   1.679  16.978 -0.3292  0.4312 -0.1326
 3602TIP3    H132297   5.012   1.660  17.060  1.1403  1.2906 -0.7077
 3602TIP3    H232298   4.944   1.772  16.983 -0.9504  0.2978 -0.3648
 3603TIP3   OH232299   0.024   1.610  15.670 -0.4301  0.3594  0.4025
 3603TIP3    H132300   0.070   1.576  15.748  1.4185  2.0580  0.1332
 3603TIP3    H232301   0.093   1.623  15.606 -1.4560  1.9380 -0.4438
 3604TIP3   OH232302   4.282   4.716  14.967  0.7012  0.2123 -0.3817
 3604TIP3    H132303   4.347   4.779  14.995 -1.0981  1.2723  1.7709
 3604TIP3    H232304   4.319   4.631  14.990  2.4997  0.5333 -1.8952
 3605TIP3   OH232305   4.518   4.321   3.863 -0.7656 -0.4171  0.2923
 3605TIP3    H132306   4.440   4.376   3.851 -1.6102 -1.6486 -0.1008
 3605TIP3    H232307   4.585   4.380   3.896 -1.2152  1.1447 -1.4413
 3606TIP3   OH232308   5.475   0.786   5.994 -0.2062 -0.6069  0.3756
 3606TIP3    H132309   5.454   0.848   6.065 -1.1135  1.3486 -1.4812
 3606TIP3    H232310   5.552   0.739   6.026  0.3040  1.2184  2.0849
 3607TIP3   OH232311   2.801   6.064  16.827 -0.2913 -0.3503 -0.0478
 3607TIP3    H132312   2.840   6.016  16.753  0.6847 -0.0419  0.2465
 3607TIP3    H232313   2.847   6.031  16.904  0.3301  0.9673  0.1692
 3608TIP3   OH232314   0.035   2.410   1.177 -0.0283  0.3582  0.3817
 3608TIP3    H132315   0.071   2.361   1.103  0.6885  0.6922  0.4952
 3608TIP3    H232316   0.051   2.355   1.253  0.2163  0.4956  0.4293
 3609TIP3   OH232317   6.408   5.222  15.927  0.1957 -0.7836 -0.1464
 3609TIP3    H132318   6.315   5.242  15.912  0.2237  0.1809  0.8623
 3609TIP3    H232319   6.436   5.181  15.845 -1.2769 -1.7030 -0.2238
 3610TIP3   OH232320   0.828   5.600  10.896 -0.3012  0.0855  0.1004
 3610TIP3    H132321   0.791   5.583  10.810 -1.1439 -0.7471  0.6105
 3610TIP3    H232322   0.805   5.523  10.948 -0.4152  0.8765  1.2629
 3611TIP3   OH232323   2.333   1.032   2.815 -0.3169  0.8083 -0.3000
 3611TIP3    H132324   2.262   1.004   2.872 -1.0646  2.5429 -0.3110
 3611TIP3    H232325   2.316   1.125   2.800  1.0999  0.9001 -1.5594
 3612TIP3   OH232326   3.646   6.395  15.466  0.5283 -0.0351  0.4997
 3612TIP3    H132327   3.726   6.428  15.425  0.8869  0.4122  1.5434
 3612TIP3    H232328   3.655   6.417  15.558  0.2106 -1.9380  1.0267
 3613TIP3   OH232329   1.102   4.584  13.675 -0.6865 -0.2571  0.6696
 3613TIP3    H132330   1.018   4.620  13.702 -1.1029 -2.2594  2.2695
 3613TIP3    H232331   1.081   4.520  13.608 -0.4269 -0.6377  0.9468
 3614TIP3   OH232332   1.496   3.359   0.739  0.6778  0.5706  0.1487
 3614TIP3    H132333   1.407   3.377   0.769  0.8714  1.5964  0.1397
 3614TIP3    H232334   1.512   3.424   0.671  1.4456  0.4011  0.1562
 3615TIP3   OH232335   5.626   3.397  10.974  0.1627 -0.0780  0.1142
 3615TIP3    H132336   5.647   3.490  10.979 -0.2084  0.0956 -1.2366
 3615TIP3    H232337   5.634   3.376  10.881 -0.1715 -1.2974  0.3519
 3616TIP3   OH232338   4.121   0.856  15.024 -0.0178  0.4217 -0.1809
 3616TIP3    H132339   4.070   0.887  15.099  0.9358 -1.1624  1.2009
 3616TIP3    H232340   4.064   0.791  14.983 -0.2882  0.8290 -0.4591
 3617TIP3   OH232341   5.075   5.066  15.361  0.0258 -0.4398  0.4680
 3617TIP3    H132342   5.012   5.052  15.432  0.6067 -0.0864  1.0696
 3617TIP3    H232343   5.038   5.020  15.286 -0.1764 -1.5699  1.2396
 3618TIP3   OH232344   0.085   3.048  13.601 -0.3738  0.6903 -0.5077
 3618TIP3    H132345   0.048   3.116  13.545  0.0228  2.0196  0.7778
 3618TIP3    H232346   0.053   3.069  13.689 -0.2029 -0.7711 -0.0660
 3619TIP3   OH232347   6.537   3.404  15.876  0.1388  0.1321 -0.0533
 3619TIP3    H132348   6.570   3.332  15.929 -1.4817  0.5765  1.6524
 3619TIP3    H232349   6.454   3.429  15.917  1.2121  3.8067  0.2118
 3620TIP3   OH232350   6.336   0.289  13.142 -0.2688 -0.1516 -0.6381
 3620TIP3    H132351   6.248   0.299  13.177 -0.4745  0.9228 -1.3905
 3620TIP3    H232352   6.365   0.379  13.125  0.6698 -0.5280 -1.1175
 3621TIP3   OH232353   4.202   1.241   1.140  0.3296  0.7673 -0.7766
 3621TIP3    H132354   4.191   1.147   1.127 -1.3179  0.6583  0.9391
 3621TIP3    H232355   4.215   1.276   1.052 -0.5854 -0.8874 -1.6224
 3622TIP3   OH232356   6.445   3.148  15.423  0.0220 -0.2457 -0.5425
 3622TIP3    H132357   6.472   3.163  15.513 -0.9302 -2.0239  0.0838
 3622TIP3    H232358   6.526   3.157  15.372  0.8082 -0.4630  0.6359
 3623TIP3   OH232359   0.880   4.107   2.314 -0.3218 -0.1146  0.2662
 3623TIP3    H132360   0.879   4.174   2.382 -1.1944 -0.9284  1.0881
 3623TIP3    H232361   0.928   4.033   2.353 -1.0253 -0.6708  0.1090
 3624TIP3   OH232362   0.753   3.990   5.610  0.0925 -0.1309 -0.1163
 3624TIP3    H132363   0.714   4.056   5.668 -1.3874  2.2530 -3.5277
 3624TIP3    H232364   0.679   3.950   5.565  1.2057  0.6250 -2.8292
 3625TIP3   OH232365   1.406   2.831   4.973  0.4363  0.0838 -1.2191
 3625TIP3    H132366   1.458   2.834   4.893  1.9707 -2.1959 -0.4263
 3625TIP3    H232367   1.438   2.753   5.019 -1.4819  0.4284  0.8729
 3626TIP3   OH232368   0.706   6.451  11.143 -0.2726 -0.5269 -0.0680
 3626TIP3    H132369   0.697   6.509  11.067 -0.3702 -2.0495 -1.2574
 3626TIP3    H232370   0.791   6.409  11.132  0.3611  0.2596  1.4569
 3627TIP3   OH232371   5.428   4.464  13.304 -0.0928 -0.5025 -0.4879
 3627TIP3    H132372   5.463   4.391  13.253  0.1172 -1.7519  1.3755
 3627TIP3    H232373   5.490   4.476  13.376 -1.1679  0.1792  0.3635
 3628TIP3   OH232374   1.028   5.325   0.848  0.6387  0.0996  0.0040
 3628TIP3    H132375   0.972   5.249   0.834 -0.5167  0.8886  0.1419
 3628TIP3    H232376   0.977   5.380   0.909  1.0601  1.3624 -0.7579
 3629TIP3   OH232377   6.183   4.398  11.399  0.4403 -0.1836  0.6395
 3629TIP3    H132378   6.123   4.439  11.336  0.0848 -0.2626  0.9277
 3629TIP3    H232379   6.269   4.434  11.376 -0.0226  1.6881  1.6471
 3630TIP3   OH232380   5.559   0.260  15.256  0.3701  0.0986 -0.0554
 3630TIP3    H132381   5.613   0.197  15.303 -0.9084 -0.1239  1.1918
 3630TIP3    H232382   5.505   0.206  15.197  1.8666  0.3652 -1.7375
 3631TIP3   OH232383   0.481   4.822  11.159  0.2096 -0.0667  0.0794
 3631TIP3    H132384   0.517   4.765  11.227  2.8069 -0.9130 -1.8215
 3631TIP3    H232385   0.547   4.821  11.090 -2.4347  0.3594 -2.6959
 3632TIP3   OH232386   4.330   6.672   4.484 -0.4658 -0.0291  0.3102
 3632TIP3    H132387   4.340   6.751   4.538  0.1700 -0.3589  0.6820
 3632TIP3    H232388   4.264   6.620   4.528 -0.2458 -0.1072  0.5491
 3633TIP3   OH232389   5.682   2.503   1.959 -1.1660 -0.3084  0.2267
 3633TIP3    H132390   5.660   2.574   1.899  2.3008  1.0275  0.2598
 3633TIP3    H232391   5.606   2.495   2.017 -2.5552  1.8611 -1.1577
 3634TIP3   OH232392   4.451   1.161  16.621 -0.1611 -0.0754  0.0291
 3634TIP3    H132393   4.451   1.085  16.678 -0.7871  0.1142  0.2925
 3634TIP3    H232394   4.487   1.232  16.674 -1.0762  0.1865  0.3232
 3635TIP3   OH232395   3.860   4.593   1.250 -0.1125 -0.1315  1.0472
 3635TIP3    H132396   3.789   4.599   1.314 -2.0095 -3.5070 -0.4616
 3635TIP3    H232397   3.891   4.503   1.257  0.8414 -0.0881 -1.5191
 3636TIP3   OH232398   3.991   6.200   4.485 -0.3522 -0.2320  0.1631
 3636TIP3    H132399   4.012   6.172   4.396  1.6472  0.6252  0.3203
 3636TIP3    H232400   4.055   6.155   4.540 -3.2995 -3.0580  1.6332
 3637TIP3   OH232401   1.578   5.545  14.092 -0.5231  0.2298 -0.1605
 3637TIP3    H132402   1.531   5.556  14.009  0.5623 -0.1996 -0.8555
 3637TIP3    H232403   1.574   5.631  14.133 -0.5157  0.6282 -0.9682
 3638TIP3   OH232404   0.032   6.549   3.664  0.1185  0.6943 -0.6234
 3638TIP3    H132405  -0.062   6.541   3.651  0.3419 -0.4810 -1.7821
 3638TIP3    H232406   0.050   6.643   3.659 -1.1648  1.0866  1.1883
 3639TIP3   OH232407   2.089   5.134   5.284  0.0563 -0.0656  0.7417
 3639TIP3    H132408   2.024   5.195   5.248 -0.1846 -0.5898  0.2642
 3639TIP3    H232409   2.101   5.069   5.215  0.9955 -0.0538  0.8845
 3640TIP3   OH232410   5.858   3.964  12.677  0.7909  0.2999 -0.0189
 3640TIP3    H132411   5.791   3.903  12.709  1.5867 -0.9574 -0.6287
 3640TIP3    H232412   5.924   3.966  12.746  1.9397 -1.4925 -0.9894
 3641TIP3   OH232413   6.259   0.973   0.577  0.2759  0.3234 -0.8718
 3641TIP3    H132414   6.349   0.997   0.557  0.1031  1.6537 -0.1814
 3641TIP3    H232415   6.265   0.882   0.607  1.2210  0.0432 -1.8296
 3642TIP3   OH232416   5.374   6.762   3.725 -0.0175 -0.2015  0.4274
 3642TIP3    H132417   5.329   6.804   3.651  0.5735 -0.6538 -0.2043
 3642TIP3    H232418   5.325   6.681   3.740 -0.4912  0.1662  0.9276
 3643TIP3   OH232419   6.774   5.530  16.828 -0.0752  0.0273  0.1997
 3643TIP3    H132420   6.829   5.607  16.845  0.4590 -0.1409 -0.7186
 3643TIP3    H232421   6.687   5.556  16.858  0.1594  0.8908  0.1590
 3644TIP3   OH232422   6.040   1.729   4.134  0.2300 -0.0003 -0.2971
 3644TIP3    H132423   6.080   1.653   4.091 -0.4422 -0.2540 -0.4942
 3644TIP3    H232424   5.976   1.761   4.070 -0.4004 -0.0555  0.2988
 3645TIP3   OH232425   2.686   4.060   4.632 -0.2266 -0.6465  0.6528
 3645TIP3    H132426   2.612   4.001   4.620 -1.3065  0.5601  1.1382
 3645TIP3    H232427   2.757   4.004   4.663 -0.7991 -1.8940 -0.1994
 3646TIP3   OH232428   6.333   0.943   3.291 -0.2603  0.2123  0.9730
 3646TIP3    H132429   6.392   0.927   3.217 -0.9566  0.3183  0.3728
 3646TIP3    H232430   6.304   0.855   3.317 -0.2700  0.1919  0.8960
 3647TIP3   OH232431   0.898   1.163   5.440 -0.4589  0.0287  0.2596
 3647TIP3    H132432   0.902   1.159   5.536 -2.0014  0.5521  0.3743
 3647TIP3    H232433   0.881   1.073   5.413  2.4300 -0.6229  0.2610
 3648TIP3   OH232434   4.109   5.176   2.437  0.5608 -0.2283 -0.2313
 3648TIP3    H132435   4.186   5.190   2.491  0.0968 -1.1139  0.7043
 3648TIP3    H232436   4.045   5.238   2.471  0.4997 -0.2947 -0.2237
 3649TIP3   OH232437   3.813   6.069  11.410 -0.2030 -0.3866 -0.5607
 3649TIP3    H132438   3.749   5.998  11.402  1.4861 -2.1263  0.3350
 3649TIP3    H232439   3.776   6.128  11.475 -0.2487 -2.1650  1.1069
 3650TIP3   OH232440   2.964   5.992  12.513  0.5828 -0.0357 -0.0468
 3650TIP3    H132441   2.915   6.031  12.586  1.5640 -3.0998  2.5067
 3650TIP3    H232442   2.973   6.063  12.450 -4.5784  1.5471  0.4842
 3651TIP3   OH232443   1.622   5.079  12.204  0.1172 -0.2772  0.6069
 3651TIP3    H132444   1.606   5.150  12.142 -1.0971  0.6209  1.8890
 3651TIP3    H232445   1.607   4.999  12.154  0.0970  0.4068 -0.4950
 3652TIP3   OH232446   6.328   0.016   3.261  0.1897  0.3936 -0.3576
 3652TIP3    H132447   6.382  -0.061   3.245 -0.6141 -0.0191 -1.1595
 3652TIP3    H232448   6.376   0.088   3.221 -0.2731 -0.1198 -1.8993
 3653TIP3   OH232449   2.733   5.370  10.618 -0.5043  0.1203  0.2933
 3653TIP3    H132450   2.736   5.348  10.525 -0.8099  0.5149  0.1855
 3653TIP3    H232451   2.823   5.394  10.640 -0.3179 -0.5184  0.2381
 3654TIP3   OH232452   5.904   0.823   4.921  0.2006 -0.0423 -0.1955
 3654TIP3    H132453   5.993   0.837   4.953  0.2799  1.5744 -1.0319
 3654TIP3    H232454   5.850   0.820   5.001  0.8834 -0.1477  0.2724
 3655TIP3   OH232455   3.911   1.727   5.374  0.0501 -0.0637 -0.4130
 3655TIP3    H132456   3.831   1.779   5.369 -0.3426 -0.4997  0.8692
 3655TIP3    H232457   3.982   1.790   5.361 -0.4558  0.5475 -0.2581
 3656TIP3   OH232458   6.502   6.081   0.885 -0.2853  0.1787 -0.3459
 3656TIP3    H132459   6.549   6.000   0.861  1.9760  1.3005  0.0256
 3656TIP3    H232460   6.489   6.074   0.980 -2.3575 -0.8021 -0.6346
 3657TIP3   OH232461   2.876   1.690  13.022 -0.1053  0.5392 -0.6713
 3657TIP3    H132462   2.909   1.769  12.979  2.6605 -0.4727 -0.6587
 3657TIP3    H232463   2.863   1.716  13.114  0.1668  1.1336 -0.7990
 3658TIP3   OH232464   6.258   6.705   5.710 -0.7615  0.1826 -0.1186
 3658TIP3    H132465   6.260   6.712   5.614 -0.1110 -0.9027 -0.1998
 3658TIP3    H232466   6.179   6.752   5.736 -0.1695  1.7673 -1.0677
 3659TIP3   OH232467   6.509   4.986   0.273  0.0253  0.2534  0.2007
 3659TIP3    H132468   6.473   4.922   0.335 -2.9655  1.8329  0.2666
 3659TIP3    H232469   6.461   4.971   0.193  0.1444  1.6349 -0.1519
 3660TIP3   OH232470   5.462   0.410  16.472 -0.1124 -0.4186 -0.1543
 3660TIP3    H132471   5.505   0.384  16.554  3.7442  0.0934 -1.7617
 3660TIP3    H232472   5.480   0.504  16.465 -1.7623 -0.1404 -0.8723
 3661TIP3   OH232473   0.294   3.510   0.506 -0.3027  0.2178  0.3112
 3661TIP3    H132474   0.377   3.487   0.465  0.2373  2.0004  0.3116
 3661TIP3    H232475   0.301   3.604   0.523 -2.7387  0.6607 -0.6949
 3662TIP3   OH232476   6.424   0.301   3.695  0.4528  0.4570  0.2677
 3662TIP3    H132477   6.464   0.302   3.782 -0.9133 -0.2105  0.9441
 3662TIP3    H232478   6.421   0.208   3.671 -0.7911  0.4640  0.3129
 3663TIP3   OH232479   6.617   4.348  10.840  0.6828 -0.1684 -0.1200
 3663TIP3    H132480   6.605   4.433  10.798 -1.1667  0.1479  0.9642
 3663TIP3    H232481   6.668   4.297  10.776  0.7268  1.3255 -1.3303
 3664TIP3   OH232482   1.971   6.597  13.177  0.3720 -0.7649  0.0881
 3664TIP3    H132483   1.937   6.634  13.258 -0.3059 -1.4907  0.1532
 3664TIP3    H232484   2.039   6.536  13.204  0.5904 -0.5317  0.0666
 3665TIP3   OH232485   4.786   5.559  11.574  0.5229  0.5293 -0.2859
 3665TIP3    H132486   4.751   5.471  11.565  0.6158  0.1764  2.0952
 3665TIP3    H232487   4.850   5.567  11.503 -0.1931 -0.9440 -1.1403
 3666TIP3   OH232488   3.528   5.216   5.840 -0.2461  0.3469 -0.1874
 3666TIP3    H132489   3.477   5.267   5.902 -1.5279  0.4704 -1.3152
 3666TIP3    H232490   3.463   5.166   5.790  0.8074 -0.3496 -0.9045
 3667TIP3   OH232491   0.874   3.368   4.130 -0.3903  0.5228  0.4094
 3667TIP3    H132492   0.922   3.312   4.191  0.9888  1.9501  0.7059
 3667TIP3    H232493   0.792   3.388   4.176 -0.5703 -0.6092  0.6160
 3668TIP3   OH232494   3.798   3.598  17.160 -0.1441 -0.3335  0.1905
 3668TIP3    H132495   3.803   3.588  17.065 -1.0927  2.4639 -0.2427
 3668TIP3    H232496   3.801   3.508  17.193  1.0110 -1.3574 -2.3997
 3669TIP3   OH232497   0.691   3.038  10.758  0.3257  0.0393 -0.2735
 3669TIP3    H132498   0.681   3.083  10.842  1.5285  0.2220 -0.2160
 3669TIP3    H232499   0.731   2.954  10.781  0.5165  0.0289 -0.6478
 3670TIP3   OH232500   2.275   2.642   2.695 -0.0453  0.4502  0.4967
 3670TIP3    H132501   2.313   2.723   2.729  0.2777  0.3400  0.3959
 3670TIP3    H232502   2.183   2.664   2.680  0.0283  0.7844  0.5215
 3671TIP3   OH232503   5.666   2.356   0.004  0.2238 -0.4019 -0.3863
 3671TIP3    H132504   5.722   2.411   0.059 -0.5904 -0.4692  0.5275
 3671TIP3    H232505   5.665   2.272   0.048 -0.4411 -0.4574 -0.5070
 3672TIP3   OH232506   5.002   6.180   0.498 -0.5104  0.0069 -0.3358
 3672TIP3    H132507   5.030   6.092   0.472  0.3818  0.0903  0.3063
 3672TIP3    H232508   5.076   6.236   0.478 -0.2582  0.2669  1.1999
 3673TIP3   OH232509   0.637   6.327  14.197  0.4704  0.1009  0.0626
 3673TIP3    H132510   0.547   6.355  14.182  0.4894  0.1052 -0.0463
 3673TIP3    H232511   0.650   6.336  14.292  0.1592 -0.4816  0.1633
 3674TIP3   OH232512   3.382   3.565   2.781  0.4420  0.3677  0.4823
 3674TIP3    H132513   3.396   3.503   2.853  0.6131 -0.6742 -0.4107
 3674TIP3    H232514   3.312   3.526   2.729 -0.1123  1.4233  0.4159
 3675TIP3   OH232515   4.778   4.110  16.602 -0.3088  0.1770  0.0178
 3675TIP3    H132516   4.766   4.166  16.679 -0.4596  0.2565 -0.0640
 3675TIP3    H232517   4.853   4.149  16.556  0.8656 -0.8328  0.9948
 3676TIP3   OH232518   5.471   0.059  16.364  0.1841 -0.4928  0.6971
 3676TIP3    H132519   5.501  -0.012  16.307  1.4682 -1.0836  2.0279
 3676TIP3    H232520   5.482   0.138  16.312  0.5456 -1.0919 -0.1565
 3677TIP3   OH232521   5.365   6.400   6.796 -0.4305  0.6228  0.3903
 3677TIP3    H132522   5.294   6.464   6.786  0.7886  1.8953 -0.6251
 3677TIP3    H232523   5.443   6.446   6.764  0.7069 -1.0058  0.6989
 3678TIP3   OH232524   1.803   2.219   0.207  0.2133 -0.3973  0.0937
 3678TIP3    H132525   1.711   2.196   0.191  0.5823 -2.0846  0.1996
 3678TIP3    H232526   1.852   2.142   0.179  1.5135 -0.0060  1.1873
 3679TIP3   OH232527   4.417   0.036  16.521 -0.0728  0.3680 -0.4184
 3679TIP3    H132528   4.345   0.099  16.533 -0.4524 -0.1237 -0.1031
 3679TIP3    H232529   4.478   0.081  16.462 -0.2332  1.1235 -0.0321
 3680TIP3   OH232530   1.370   0.422  10.684  0.3837 -0.1733 -0.1879
 3680TIP3    H132531   1.364   0.348  10.744  3.0180 -0.0706  0.3365
 3680TIP3    H232532   1.401   0.384  10.601  1.0539  0.2122 -0.1268
 3681TIP3   OH232533   3.888   1.769  16.195  0.0492  0.3526  0.1744
 3681TIP3    H132534   3.826   1.819  16.249 -0.2973 -0.5323  0.6190
 3681TIP3    H232535   3.870   1.677  16.217  1.0737  0.0532 -0.1892
 3682TIP3   OH232536   4.240   5.277  16.926  0.6010 -0.6278  0.5518
 3682TIP3    H132537   4.248   5.372  16.916  0.6199 -0.8845 -2.7906
 3682TIP3    H232538   4.148   5.262  16.945 -0.2141 -0.0444 -2.4561
 3683TIP3   OH232539   4.814   5.902   4.423 -0.3376 -0.4827 -0.1857
 3683TIP3    H132540   4.790   5.824   4.473  2.6670 -1.0410  0.5354
 3683TIP3    H232541   4.890   5.876   4.372 -0.6149  1.3800 -1.6754
 3684TIP3   OH232542   3.293   1.139   1.987  0.1986 -0.1344  0.3226
 3684TIP3    H132543   3.327   1.228   1.992  0.0049 -0.0285 -0.2653
 3684TIP3    H232544   3.299   1.115   1.895  0.2869 -0.7458  0.4800
 3685TIP3   OH232545   5.913   6.346  13.379  0.1744  0.5083  0.2727
 3685TIP3    H132546   5.883   6.434  13.357  2.0353  1.4375  1.1720
 3685TIP3    H232547   5.920   6.300  13.295  0.4425  1.6603 -0.3445
 3686TIP3   OH232548   6.105   6.696  16.405 -0.8013  0.3573 -0.0327
 3686TIP3    H132549   6.066   6.692  16.493 -0.2174  0.1700  0.2232
 3686TIP3    H232550   6.049   6.641  16.351 -1.1020  0.3808  0.2488
 3687TIP3   OH232551   1.177   2.153  16.454 -1.1551 -0.3645  0.3789
 3687TIP3    H132552   1.189   2.230  16.511  0.1060  0.0901 -0.4514
 3687TIP3    H232553   1.150   2.189  16.370 -0.5308 -0.8102 -0.0264
 3688TIP3   OH232554   0.725   5.337   1.115 -0.2984  0.0906  0.0835
 3688TIP3    H132555   0.765   5.408   1.064 -1.2308  0.1518 -0.6033
 3688TIP3    H232556   0.792   5.268   1.117  0.5903  0.9387  0.6949
 3689TIP3   OH232557   6.557   2.834  13.346 -0.8269  0.3376  0.4542
 3689TIP3    H132558   6.614   2.911  13.351 -2.6528  2.2044 -3.2350
 3689TIP3    H232559   6.469   2.869  13.361 -1.5114 -1.4705  0.8662
 3690TIP3   OH232560   5.410   4.883  13.553  0.5516 -0.5014 -0.0603
 3690TIP3    H132561   5.418   4.816  13.620  1.4801 -0.2861  0.0593
 3690TIP3    H232562   5.387   4.963  13.601  0.4143 -0.5230 -0.0898
 3691TIP3   OH232563   3.750   0.370   0.188  0.0649 -0.3504  0.0004
 3691TIP3    H132564   3.767   0.430   0.260  2.2272 -1.2219  0.3107
 3691TIP3    H232565   3.694   0.302   0.225  0.1998 -0.1708  0.5351
 3692TIP3   OH232566   0.675   2.022  11.919 -0.0188 -0.3909 -0.1089
 3692TIP3    H132567   0.690   2.074  11.840  0.8382  1.7129  1.3084
 3692TIP3    H232568   0.607   2.070  11.966  0.1780 -1.0312  0.8561
 3693TIP3   OH232569   6.382   6.352   3.945 -0.0273 -0.1466 -0.2371
 3693TIP3    H132570   6.339   6.296   3.880  1.0529  1.0782 -2.0869
 3693TIP3    H232571   6.468   6.311   3.959  0.0078 -0.0236 -0.0925
 3694TIP3   OH232572   2.854   6.575   3.048  0.4728  0.7916  0.4508
 3694TIP3    H132573   2.843   6.668   3.070  0.4217  1.2133 -1.2045
 3694TIP3    H232574   2.766   6.544   3.029  0.6686  0.8844 -0.6874
 3695TIP3   OH232575   2.239   0.561   1.012 -0.0503  0.2789  0.2320
 3695TIP3    H132576   2.275   0.473   1.023  0.4918  0.3047 -1.1435
 3695TIP3    H232577   2.304   0.619   1.052  0.5436  0.1866 -0.5850
 3696TIP3   OH232578   5.997   1.118  13.676 -0.0380  0.0346 -0.3380
 3696TIP3    H132579   5.995   1.208  13.709 -2.0876 -0.3084  0.6309
 3696TIP3    H232580   5.983   1.064  13.753  0.1699 -1.0760 -1.0584
 3697TIP3   OH232581   0.447   1.678   4.397 -0.2746 -0.0015 -0.0964
 3697TIP3    H132582   0.381   1.700   4.463 -0.7432  0.6363 -0.7725
 3697TIP3    H232583   0.503   1.755   4.392 -0.3981  0.0547 -0.6343
 3698TIP3   OH232584   2.312   5.097   4.311 -0.6265 -0.2034  0.5921
 3698TIP3    H132585   2.286   5.061   4.395 -0.9755 -0.2153  0.4817
 3698TIP3    H232586   2.359   5.026   4.267 -1.8107 -0.7208  0.1408
 3699TIP3   OH232587   0.248   6.248  15.018  0.1628  0.2394  0.0068
 3699TIP3    H132588   0.211   6.260  14.930 -0.7696 -0.1614  0.3434
 3699TIP3    H232589   0.235   6.332  15.061  1.5619  0.7884 -0.5590
 3700TIP3   OH232590   1.086   2.197   5.158 -0.1792  0.5633 -0.3704
 3700TIP3    H132591   1.075   2.116   5.109  0.0055 -0.3838  1.1053
 3700TIP3    H232592   1.180   2.217   5.151 -0.3786  1.1453 -1.4757
 3701TIP3   OH232593   4.915   1.124  15.182 -0.7793  0.3676 -0.6269
 3701TIP3    H132594   4.936   1.178  15.258 -0.9624 -0.1884 -0.1828
 3701TIP3    H232595   4.819   1.122  15.180 -0.7727  0.1649 -0.7230
 3702TIP3   OH232596   2.597   5.397  11.387  0.5650  0.1802  0.0092
 3702TIP3    H132597   2.688   5.407  11.360  0.2993  0.7367 -0.7172
 3702TIP3    H232598   2.558   5.483  11.371  0.1824  0.2981  1.4153
 3703TIP3   OH232599   0.515   2.747  17.204  0.2730 -0.2657 -0.0973
 3703TIP3    H132600   0.456   2.777  17.135 -1.1586 -2.2028  0.2094
 3703TIP3    H232601   0.514   2.818  17.269  0.5977  0.9849 -1.3927
 3704TIP3   OH232602   3.619   5.529   2.552  0.2980 -0.0164  0.1870
 3704TIP3    H132603   3.584   5.489   2.631  0.1170  0.2056  0.2202
 3704TIP3    H232604   3.647   5.616   2.579 -2.8700  1.4190 -0.6582
 3705TIP3   OH232605   1.580   3.790   3.885  0.0661  0.0615  0.0064
 3705TIP3    H132606   1.668   3.753   3.878  0.2389  0.3208  0.7044
 3705TIP3    H232607   1.523   3.715   3.903 -0.0948 -0.3254 -1.8766
 3706TIP3   OH232608   6.001   2.574   3.188 -0.0013  0.3959  0.8252
 3706TIP3    H132609   6.061   2.648   3.181 -0.5499  0.8964  1.2843
 3706TIP3    H232610   5.969   2.561   3.099  0.9173  0.0049  0.5423
 3707TIP3   OH232611   2.022   3.452  12.564 -0.3378 -0.0711 -0.1455
 3707TIP3    H132612   1.940   3.440  12.517 -1.0111  0.4155  0.8738
 3707TIP3    H232613   2.070   3.370  12.550 -0.6880 -0.0915 -1.3219
 3708TIP3   OH232614   3.714   0.391   2.967  0.4738 -0.3824  0.1511
 3708TIP3    H132615   3.776   0.341   3.019 -1.5663 -3.2197  0.0782
 3708TIP3    H232616   3.716   0.350   2.881 -1.1919 -0.3131  0.0406
 3709TIP3   OH232617   2.985   1.747   3.408 -0.3347  0.2767 -0.7590
 3709TIP3    H132618   2.974   1.724   3.500  1.3927 -1.6414 -0.9423
 3709TIP3    H232619   3.041   1.825   3.409  0.6137 -0.3909 -0.1628
 3710TIP3   OH232620   0.055   3.654   4.999  0.2042 -0.9837  0.1722
 3710TIP3    H132621  -0.006   3.644   4.926 -0.1625  0.8124  0.1935
 3710TIP3    H232622   0.002   3.639   5.077 -0.2945  0.6693  0.1955
 3711TIP3   OH232623   6.163   3.875  13.919  0.1428  0.5178  0.6220
 3711TIP3    H132624   6.199   3.955  13.956 -0.2769  0.9826  0.0475
 3711TIP3    H232625   6.070   3.895  13.905  0.5760  0.9587 -2.1868
 3712TIP3   OH232626   3.149   3.561  10.258 -0.7018 -0.1828  0.2402
 3712TIP3    H132627   3.210   3.547  10.330  0.8444  0.0919 -0.9581
 3712TIP3    H232628   3.149   3.478  10.210 -0.5954  0.0897 -0.2408
 3713TIP3   OH232629   6.751   0.563  15.770  0.1022 -0.0895 -0.0179
 3713TIP3    H132630   6.701   0.643  15.786 -0.4643 -0.2859 -0.7514
 3713TIP3    H232631   6.842   0.593  15.758 -0.0976  0.4398 -0.2206
 3714TIP3   OH232632   2.254   0.621  11.186 -0.3972 -0.4676 -0.0904
 3714TIP3    H132633   2.217   0.551  11.132 -0.1813 -0.8490  0.2582
 3714TIP3    H232634   2.242   0.592  11.276 -2.1525  0.8613  0.1628
 3715TIP3   OH232635   5.729   5.050   3.621 -0.1596 -0.3262 -0.4023
 3715TIP3    H132636   5.672   4.998   3.677  0.5674  0.4774  1.1608
 3715TIP3    H232637   5.731   5.136   3.663 -2.2524  1.4241 -3.4905
 3716TIP3   OH232638   6.471   5.197   1.771 -0.3327 -0.4434 -0.4013
 3716TIP3    H132639   6.550   5.216   1.821  0.0269  0.5095 -1.2749
 3716TIP3    H232640   6.455   5.278   1.721 -0.9701 -1.1645 -1.3946
 3717TIP3   OH232641   5.096   0.377   5.837 -0.2216  0.6864 -0.1935
 3717TIP3    H132642   5.161   0.445   5.820 -0.7081  0.8884 -1.3714
 3717TIP3    H232643   5.110   0.352   5.928  1.0831  1.1629 -0.2477
 3718TIP3   OH232644   5.018   3.717   3.656  0.2908 -0.2260 -0.2237
 3718TIP3    H132645   5.018   3.689   3.747  0.8385  1.2204  0.2488
 3718TIP3    H232646   4.966   3.651   3.610 -0.9339 -0.3776  1.3270
 3719TIP3   OH232647   3.025   2.166   5.237  0.2184 -0.4060 -0.3037
 3719TIP3    H132648   3.025   2.252   5.196  1.1510  0.3613  1.1910
 3719TIP3    H232649   3.113   2.158   5.274  0.8487 -2.8821 -2.1274
 3720TIP3   OH232650   3.082   0.422   3.165 -0.1755 -0.1762 -0.7397
 3720TIP3    H132651   2.987   0.433   3.177 -0.5106 -1.9008 -1.5751
 3720TIP3    H232652   3.120   0.450   3.248 -1.5393 -0.9378  0.1862
 3721TIP3   OH232653   3.140   2.544  11.614 -0.0183  0.5985  0.9369
 3721TIP3    H132654   3.227   2.525  11.650 -0.3664  1.4019  2.2673
 3721TIP3    H232655   3.159   2.600  11.538  0.6956 -0.6839  0.1228
 3722TIP3   OH232656   4.416   4.060   4.001 -0.3868  0.0353  0.7688
 3722TIP3    H132657   4.431   4.155   4.005 -1.4848  0.3095 -0.5998
 3722TIP3    H232658   4.500   4.024   3.972 -0.1462  0.6733  0.6415
 3723TIP3   OH232659   5.335   0.894   1.453 -0.2036 -0.0982 -1.4126
 3723TIP3    H132660   5.350   0.842   1.532 -1.0182  0.3292 -0.9630
 3723TIP3    H232661   5.409   0.955   1.450 -0.6713  0.5593 -0.4071
 3724TIP3   OH232662   1.379   5.172  11.591 -0.6600  0.6378 -0.2383
 3724TIP3    H132663   1.474   5.160  11.593 -0.2211  3.3123 -1.1025
 3724TIP3    H232664   1.357   5.177  11.498 -1.4729  0.9903 -0.0375
 3725TIP3   OH232665   3.174   1.786   1.567 -0.2582  0.1858 -0.0074
 3725TIP3    H132666   3.226   1.820   1.640  0.1941  0.3472 -0.3965
 3725TIP3    H232667   3.088   1.828   1.577  0.3737  1.7225 -0.6570
 3726TIP3   OH232668   4.533   5.386   3.554  0.0475 -0.2356 -0.7239
 3726TIP3    H132669   4.607   5.427   3.598 -0.2855  1.2784 -1.5157
 3726TIP3    H232670   4.564   5.370   3.465  0.3145 -2.1529 -0.3289
 3727TIP3   OH232671   3.618   0.061  14.268 -0.0612  0.1295 -0.0921
 3727TIP3    H132672   3.665   0.013  14.335  0.2217 -1.6343 -1.4762
 3727TIP3    H232673   3.609   0.150  14.303  2.0208 -0.1554  1.2951
 3728TIP3   OH232674   5.755   0.905   2.184 -0.0615 -0.4570  0.1980
 3728TIP3    H132675   5.732   0.948   2.101 -1.4861 -1.6207 -0.0448
 3728TIP3    H232676   5.715   0.819   2.179  2.1883 -1.6373  0.9454
 3729TIP3   OH232677   4.159   1.871  13.617 -0.3154 -0.2289 -0.0209
 3729TIP3    H132678   4.173   1.856  13.711  0.8832  2.0018  0.2245
 3729TIP3    H232679   4.095   1.805  13.592 -0.8723 -0.7277  2.4184
 3730TIP3   OH232680   4.740   4.720   4.121  0.0900 -0.1954  0.0968
 3730TIP3    H132681   4.832   4.741   4.107  0.3743 -1.0572  0.5980
 3730TIP3    H232682   4.741   4.652   4.189 -0.7213 -2.2215 -1.7703
 3731TIP3   OH232683   3.508   1.791   2.105 -0.3251  0.5854  0.2602
 3731TIP3    H132684   3.461   1.833   2.033 -1.4100 -1.3807 -0.2519
 3731TIP3    H232685   3.587   1.756   2.065 -0.5196  0.2222  0.1851
 3732TIP3   OH232686   2.000   4.184  16.520 -0.4097  0.4437  0.4964
 3732TIP3    H132687   1.927   4.208  16.463 -0.4303  0.3410  0.4778
 3732TIP3    H232688   2.060   4.258  16.516 -0.6076  0.6141  0.6678
 3733TIP3   OH232689   0.207   5.236   0.929 -0.2220 -0.4856  0.1847
 3733TIP3    H132690   0.281   5.272   0.879 -0.4849  0.7753  0.6677
 3733TIP3    H232691   0.248   5.192   1.003  0.0490  1.5713  1.3302
 3734TIP3   OH232692   0.770   3.336  10.324 -0.7140 -0.1957 -0.0032
 3734TIP3    H132693   0.736   3.282  10.395 -0.7960 -1.9572 -1.3196
 3734TIP3    H232694   0.832   3.279  10.279 -0.2893  1.0619 -1.0554
 3735TIP3   OH232695   2.088   4.504   3.872 -0.6062  0.1313  0.8911
 3735TIP3    H132696   2.102   4.485   3.780  0.6746  0.6943  0.9511
 3735TIP3    H232697   2.058   4.595   3.874 -0.5568  0.1460  1.0227
 3736TIP3   OH232698   4.703   0.883  13.454  0.0334 -0.3804  0.4706
 3736TIP3    H132699   4.780   0.935  13.431  0.4372 -1.7370 -1.4988
 3736TIP3    H232700   4.729   0.836  13.533  0.9438 -0.2041  0.2910
 3737TIP3   OH232701   5.558   1.247   2.932  0.1894  0.2522  0.3402
 3737TIP3    H132702   5.635   1.301   2.913  0.5592 -0.5614 -0.5607
 3737TIP3    H232703   5.502   1.303   2.986  0.6907  1.4337 -0.3192
 3738TIP3   OH232704   2.984   5.470   5.491  0.3466  0.9100 -0.2210
 3738TIP3    H132705   3.044   5.534   5.452  2.8494 -1.2192 -0.1382
 3738TIP3    H232706   2.965   5.409   5.420 -2.0248  1.6535 -0.3035
 3739TIP3   OH232707   1.930   0.434   3.164 -0.2704 -0.0620  0.1655
 3739TIP3    H132708   1.990   0.422   3.090  0.8525 -0.0171  1.0476
 3739TIP3    H232709   1.943   0.356   3.218 -0.0415  0.5525  1.0164
 3740TIP3   OH232710   1.966   1.022   6.040 -0.6755  0.1497  0.2372
 3740TIP3    H132711   1.917   0.982   5.969  0.9166  1.5263 -1.7762
 3740TIP3    H232712   1.925   1.107   6.053 -0.4161  0.2653  0.3231
 3741TIP3   OH232713   2.815   1.975   3.977  0.3001 -0.5768  0.5641
 3741TIP3    H132714   2.836   1.901   4.034  2.4759 -0.3232  0.1740
 3741TIP3    H232715   2.869   2.047   4.010  0.4068  0.0097 -0.8099
 3742TIP3   OH232716   6.363   3.969  12.899  0.1968  0.2804 -0.1428
 3742TIP3    H132717   6.414   3.921  12.834 -1.4156 -0.6506 -0.7717
 3742TIP3    H232718   6.403   3.945  12.983  0.2477 -1.1282 -0.5496
 3743TIP3   OH232719   2.298   5.141  13.565 -0.2167 -0.3287 -0.0163
 3743TIP3    H132720   2.274   5.143  13.657  0.1155 -0.5226  0.0744
 3743TIP3    H232721   2.369   5.077  13.560  1.2727  1.2868 -0.0540
 3744TIP3   OH232722   6.770   5.516  15.644 -0.5054  0.5100 -0.0157
 3744TIP3    H132723   6.682   5.505  15.679 -0.1448 -0.7588  0.5669
 3744TIP3    H232724   6.810   5.582  15.699 -0.8918  0.6416  0.1123
 3745TIP3   OH232725   3.519   1.633   2.470  0.1790  0.2982 -0.5166
 3745TIP3    H132726   3.546   1.715   2.513 -0.9997 -0.0655  1.0053
 3745TIP3    H232727   3.544   1.564   2.531  0.3867 -0.4242 -1.4005
 3746TIP3   OH232728   3.471   5.455  11.543  0.5048 -0.2347 -0.5680
 3746TIP3    H132729   3.540   5.498  11.593 -0.1667  0.7294 -0.4351
 3746TIP3    H232730   3.414   5.527  11.515 -0.8412 -1.0724 -0.0727
 3747TIP3   OH232731   1.985   1.530   4.063 -0.1458 -0.2397 -0.0719
 3747TIP3    H132732   2.047   1.539   3.991  0.0679  1.1826  0.2664
 3747TIP3    H232733   1.901   1.510   4.020 -0.2174  1.5106 -0.8021
 3748TIP3   OH232734   3.958   4.142  13.898  0.2844  0.6652  0.8039
 3748TIP3    H132735   4.029   4.159  13.960  2.5145 -0.3520 -1.2869
 3748TIP3    H232736   3.908   4.071  13.938  2.3472 -0.7587  1.0227
 3749TIP3   OH232737   0.307   4.447   0.142 -0.6142  0.5768 -0.7211
 3749TIP3    H132738   0.221   4.405   0.134 -0.6653  0.7264 -0.9504
 3749TIP3    H232739   0.330   4.435   0.234 -0.5932 -0.0225 -0.8017
 3750TIP3   OH232740   4.616   4.371  12.788 -0.1775  0.3084 -0.1709
 3750TIP3    H132741   4.535   4.415  12.764 -0.0613  0.0164 -1.1838
 3750TIP3    H232742   4.670   4.439  12.828 -0.2007  0.9894 -1.2422
 3751TIP3   OH232743   5.982   0.352  16.125 -0.4904  0.0844 -0.2255
 3751TIP3    H132744   5.886   0.360  16.125 -0.6478 -1.4934  0.1429
 3751TIP3    H232745   6.000   0.284  16.061  0.1847 -1.2696  1.3264
 3752TIP3   OH232746   0.389   6.153  15.448  0.4465 -0.1286 -0.2049
 3752TIP3    H132747   0.432   6.075  15.413  0.0712 -0.9256  1.0492
 3752TIP3    H232748   0.386   6.138  15.542 -1.0272  0.7082 -0.0935
 3753TIP3   OH232749   1.434   3.348  16.079 -0.4617 -0.2429  0.0525
 3753TIP3    H132750   1.426   3.300  16.161  0.7069 -1.2834 -0.4266
 3753TIP3    H232751   1.372   3.306  16.020 -1.3657  0.5603  0.3851
 3754TIP3   OH232752   2.816   0.306   6.134 -0.5151 -0.4565 -0.1128
 3754TIP3    H132753   2.858   0.392   6.140 -2.4346  0.5936 -0.6784
 3754TIP3    H232754   2.885   0.247   6.104  1.2060  0.5691  1.6228
 3755TIP3   OH232755   3.935   3.903  11.131  0.5572  0.0214 -0.2017
 3755TIP3    H132756   3.957   3.938  11.045 -1.9168 -0.2314 -1.0101
 3755TIP3    H232757   3.947   3.977  11.191 -1.1907  1.3309 -1.3612
 3756TIP3   OH232758   0.857   4.721  12.051 -0.5682  0.6562  0.6515
 3756TIP3    H132759   0.940   4.755  12.019 -1.3821  2.4848  0.3426
 3756TIP3    H232760   0.819   4.794  12.100 -1.6848 -0.3763  1.3882
 3757TIP3   OH232761   6.588   1.156  13.555  0.2928  0.3451  0.6931
 3757TIP3    H132762   6.585   1.107  13.638 -0.4974 -2.2825 -0.7564
 3757TIP3    H232763   6.499   1.188  13.543  0.0669 -0.4096  0.2740
 3758TIP3   OH232764   3.320   3.370  11.459  0.6045  0.0533  0.2023
 3758TIP3    H132765   3.284   3.286  11.429  1.4806 -0.6061  0.9295
 3758TIP3    H232766   3.410   3.349  11.483  0.3686  0.8550  1.8928
 3759TIP3   OH232767   6.750   5.139   4.401  0.1377  0.2607 -0.8154
 3759TIP3    H132768   6.755   5.045   4.383  1.7412 -0.3305  2.1197
 3759TIP3    H232769   6.788   5.180   4.323  2.5711 -1.7508 -0.8168
 3760TIP3   OH232770   6.319   0.928   2.693  0.4312  0.3881 -0.9039
 3760TIP3    H132771   6.383   0.896   2.630  2.1973  0.1891  0.8667
 3760TIP3    H232772   6.291   1.012   2.658  1.1022  0.1412 -2.0944
 3761TIP3   OH232773   1.414   1.795  11.698  0.4083  0.0933  0.6038
 3761TIP3    H132774   1.331   1.820  11.738  0.5251 -0.5135  1.2376
 3761TIP3    H232775   1.392   1.721  11.641  0.4236  0.2766  0.3585
 3762TIP3   OH232776   4.885   3.241   3.641 -0.5642 -0.2851 -0.0875
 3762TIP3    H132777   4.957   3.304   3.649 -0.7673 -0.0010 -0.4823
 3762TIP3    H232778   4.829   3.258   3.717 -0.3431 -0.3481  0.0921
 3763TIP3   OH232779   6.756   2.769   5.449 -0.1441  0.2650  0.8227
 3763TIP3    H132780   6.794   2.701   5.394 -0.2111  0.1012  0.9773
 3763TIP3    H232781   6.830   2.804   5.499  0.0446  0.9382  0.0760
 3764TIP3   OH232782   6.366   4.842   3.564 -0.3125 -0.3458 -0.9496
 3764TIP3    H132783   6.367   4.763   3.509 -1.9612 -1.3847  0.3706
 3764TIP3    H232784   6.279   4.841   3.605 -0.4685  2.3106 -1.0456
 3765TIP3   OH232785   1.453   4.262  13.505 -0.4478 -0.1630  0.2133
 3765TIP3    H132786   1.508   4.296  13.575 -1.1864 -1.1785  1.3243
 3765TIP3    H232787   1.500   4.185  13.472 -1.0121 -0.8471  0.9531
 3766TIP3   OH232788   0.801   0.536   0.091  0.2071 -0.7274  0.4182
 3766TIP3    H132789   0.744   0.563   0.019 -0.7913  2.3470  2.1569
 3766TIP3    H232790   0.846   0.617   0.116  1.3847 -1.9540  2.5026
 3767TIP3   OH232791   1.880   1.325   2.401  0.1497 -0.4392 -0.6142
 3767TIP3    H132792   1.867   1.361   2.489  1.4041  1.6150 -1.1897
 3767TIP3    H232793   1.968   1.287   2.404  1.3135  1.9971 -1.6284
 3768TIP3   OH232794   6.406   4.269  17.101  0.3463 -0.2189 -0.1709
 3768TIP3    H132795   6.471   4.293  17.036  0.6870  0.6723  0.4795
 3768TIP3    H232796   6.405   4.342  17.162  0.8639 -1.5249  1.4825
 3769TIP3   OH232797   2.191   6.770  17.109  0.7399  0.3724 -0.6742
 3769TIP3    H132798   2.229   6.806  17.029 -0.1040 -0.7495 -1.6234
 3769TIP3    H232799   2.159   6.683  17.083  0.0315  0.1750  0.7622
 3770TIP3   OH232800   1.731   1.005   5.326 -0.2742  0.0740 -0.4583
 3770TIP3    H132801   1.659   0.974   5.271 -0.8218  0.2184  0.1726
 3770TIP3    H232802   1.702   0.989   5.416  0.5191  0.0454 -0.1974
 3771TIP3   OH232803   1.341   1.992   1.588  0.3801 -0.0255 -0.2668
 3771TIP3    H132804   1.357   1.901   1.563  0.8391 -0.3252  1.0108
 3771TIP3    H232805   1.292   1.986   1.670 -2.9076  0.9064 -1.9759
 3772TIP3   OH232806   5.391   1.306   2.253  0.1398  0.5251 -0.4112
 3772TIP3    H132807   5.479   1.270   2.266 -0.4242 -0.0182  2.5305
 3772TIP3    H232808   5.383   1.314   2.158  3.0160 -0.2489 -0.8253
 3773TIP3   OH232809   5.800   0.970  11.567  0.4511 -0.2596  0.4345
 3773TIP3    H132810   5.801   0.927  11.653  0.8392  1.1932  1.1836
 3773TIP3    H232811   5.874   1.030  11.570 -0.9273  1.5335 -0.0150
 3774TIP3   OH232812   3.595   2.002  13.393  0.7069  0.0763 -0.0461
 3774TIP3    H132813   3.583   2.089  13.431  1.2980  0.5356 -0.8732
 3774TIP3    H232814   3.525   1.950  13.431  0.2956  0.9268  0.4072
 3775TIP3   OH232815   3.034   3.773  15.900 -0.2381  0.4611  0.3441
 3775TIP3    H132816   2.945   3.738  15.895  0.2137 -0.5074 -1.8914
 3775TIP3    H232817   3.059   3.758  15.991 -1.7347 -0.8611  0.5906
 3776TIP3   OH232818   3.978   1.350   0.296 -0.4335  0.4422 -0.0620
 3776TIP3    H132819   3.934   1.269   0.271  0.0341  0.4665 -1.0162
 3776TIP3    H232820   3.911   1.418   0.289 -0.5752  0.2854 -0.2161
 3777TIP3   OH232821   1.294   3.634  14.030 -0.4605  0.7674 -0.2509
 3777TIP3    H132822   1.334   3.664  14.112  2.0205  0.4049 -1.2223
 3777TIP3    H232823   1.239   3.560  14.056  2.1593 -0.9146  0.9016
 3778TIP3   OH232824   6.492   5.712  15.780  0.2945 -0.0922  0.2497
 3778TIP3    H132825   6.426   5.706  15.849 -1.1657  0.2752 -1.0813
 3778TIP3    H232826   6.491   5.626  15.738  0.4653  0.0112  0.0310
 3779TIP3   OH232827   1.521   0.161  15.334  0.2625 -0.0113 -0.0758
 3779TIP3    H132828   1.500   0.156  15.427  0.0631  0.2872 -0.1015
 3779TIP3    H232829   1.613   0.185  15.331  0.7102 -1.6161  0.0401
 3780TIP3   OH232830   1.665   5.069  11.582  0.4482  0.1532 -0.1770
 3780TIP3    H132831   1.732   5.108  11.527  0.7265  0.9633  0.7230
 3780TIP3    H232832   1.707   5.057  11.667 -0.5094  0.5632  0.3660
 3781TIP3   OH232833   0.055   1.435   4.077 -0.2529  0.0889 -0.5515
 3781TIP3    H132834   0.116   1.507   4.063 -1.5932  2.1021  2.8576
 3781TIP3    H232835  -0.015   1.473   4.130 -1.4068 -3.5552  0.8352
 3782TIP3   OH232836   6.162   6.024   0.995 -0.1508  0.5568  0.1107
 3782TIP3    H132837   6.131   6.112   1.012  0.4968  0.7519  0.3112
 3782TIP3    H232838   6.160   6.016   0.900 -0.3822  0.7216  0.1015
 3783TIP3   OH232839   1.194   2.186  13.061 -0.4040  0.3123 -0.2701
 3783TIP3    H132840   1.242   2.214  12.983 -1.9760 -0.5863 -1.6120
 3783TIP3    H232841   1.228   2.098  13.079 -0.1974  0.4346 -0.0454
 3784TIP3   OH232842   2.285   0.776  15.140 -0.1118 -0.3906  0.5283
 3784TIP3    H132843   2.208   0.722  15.156 -1.2897  1.0003 -0.2037
 3784TIP3    H232844   2.259   0.864  15.167  1.0637  0.1892 -0.1386
 3785TIP3   OH232845   5.513   4.523   4.683  0.6002  0.3075 -0.7091
 3785TIP3    H132846   5.546   4.464   4.615  0.9268 -1.0248  0.5432
 3785TIP3    H232847   5.569   4.505   4.759 -0.7119  0.6186  0.3732
 3786TIP3   OH232848   5.704   5.406   2.211 -0.3884  0.0560  0.2763
 3786TIP3    H132849   5.750   5.484   2.241  1.5975 -1.2107  0.7397
 3786TIP3    H232850   5.773   5.352   2.172 -1.4462 -2.0367  1.1845
 3787TIP3   OH232851   3.109   0.497   5.542  0.2159  0.4352 -0.3003
 3787TIP3    H132852   3.089   0.477   5.633 -1.1300 -0.3094 -0.7287
 3787TIP3    H232853   3.185   0.443   5.521 -0.6908 -0.9231 -0.1822
 3788TIP3   OH232854   0.779   1.427   5.547  0.4139 -0.1032  0.5285
 3788TIP3    H132855   0.841   1.355   5.553 -0.4246 -0.7989  1.0216
 3788TIP3    H232856   0.735   1.428   5.632 -1.3645 -0.6535 -0.3524
 3789TIP3   OH232857   3.733   2.879  15.792  0.3343  0.4152  0.0689
 3789TIP3    H132858   3.808   2.847  15.843  1.3592  0.7879 -1.1547
 3789TIP3    H232859   3.763   2.962  15.754 -0.9911  0.9865  0.1971
 3790TIP3   OH232860   2.938   3.703  14.628  0.1142  0.3213 -0.2538
 3790TIP3    H132861   3.033   3.694  14.640  0.0109  0.0616  0.3895
 3790TIP3    H232862   2.924   3.686  14.535  0.8579  1.7425 -0.6524
 3791TIP3   OH232863   2.981   0.272   2.320 -0.1902  0.0340 -0.3203
 3791TIP3    H132864   2.900   0.235   2.354 -0.2689 -0.6933 -1.2488
 3791TIP3    H232865   2.959   0.362   2.296 -0.2965  0.3449  0.9064
 3792TIP3   OH232866   0.088   3.926   1.994 -0.0145 -0.0673 -0.0901
 3792TIP3    H132867   0.047   3.999   2.041  0.6853  0.1409  0.2133
 3792TIP3    H232868   0.181   3.938   2.008  0.1537 -0.5594 -0.7366
 3793TIP3   OH232869   6.489   5.342   5.898  0.5555  0.4429 -0.2116
 3793TIP3    H132870   6.556   5.378   5.957  0.2283 -0.9200  1.0670
 3793TIP3    H232871   6.531   5.265   5.859  0.8722  1.4947 -2.0621
 3794TIP3   OH232872   1.611   4.455   1.993 -0.5489  0.1949 -0.5163
 3794TIP3    H132873   1.678   4.519   2.015 -0.9410 -0.2064  2.1701
 3794TIP3    H232874   1.626   4.435   1.900  1.4517  1.9094 -0.6328
 3795TIP3   OH232875   0.162   5.833   0.161  0.4159  0.3668  0.1647
 3795TIP3    H132876   0.105   5.796   0.094  2.2563 -1.5125 -0.4540
 3795TIP3    H232877   0.113   5.820   0.243 -0.0648 -1.1824 -0.3352
 3796TIP3   OH232878   1.729   3.967  12.571  0.1999  0.3677  0.4258
 3796TIP3    H132879   1.776   4.034  12.523 -0.3583 -0.5079 -1.4311
 3796TIP3    H232880   1.672   3.926  12.506 -0.5405 -0.9331  1.8222
 3797TIP3   OH232881   5.089   3.862   3.059 -0.2952 -0.0135  0.2329
 3797TIP3    H132882   5.000   3.841   3.031  0.2340  0.2324 -1.7947
 3797TIP3    H232883   5.144   3.794   3.019  0.6502  1.1168 -0.4805
 3798TIP3   OH232884   2.833   0.384   3.797 -0.2145 -0.0348 -0.0061
 3798TIP3    H132885   2.813   0.298   3.760  1.7047 -0.2079 -0.7497
 3798TIP3    H232886   2.869   0.365   3.884 -1.2980  0.1417  0.4942
 3799TIP3   OH232887   6.412   3.356   0.063 -0.0930  0.0892 -0.4989
 3799TIP3    H132888   6.321   3.344   0.088 -0.1752  1.9506  0.2915
 3799TIP3    H232889   6.414   3.442   0.021  1.2871  0.0389 -0.5855
 3800TIP3   OH232890   5.289   6.465   1.514  0.6482 -0.0037 -0.1387
 3800TIP3    H132891   5.265   6.383   1.558  2.1528 -0.0208  0.7455
 3800TIP3    H232892   5.212   6.520   1.522 -0.4631 -1.3924 -0.9299
 3801TIP3   OH232893   1.683   6.046   5.267  0.4177  0.4772  0.3313
 3801TIP3    H132894   1.722   6.063   5.181  1.0621 -0.2690  0.4634
 3801TIP3    H232895   1.612   5.984   5.249  0.9600 -0.1842  0.3960
 3802TIP3   OH232896   0.883   3.109  10.523 -0.5910 -0.0507 -0.3657
 3802TIP3    H132897   0.936   3.029  10.519 -0.2367  0.0197  1.6428
 3802TIP3    H232898   0.860   3.117  10.616 -4.0153  0.0382 -1.1152
 3803TIP3   OH232899   6.315   3.304  11.959  0.6205 -0.5889 -0.3282
 3803TIP3    H132900   6.291   3.211  11.957 -2.1580  0.0305 -0.0362
 3803TIP3    H232901   6.318   3.326  12.052  1.7098 -0.4614 -0.3845
 3804TIP3   OH232902   0.647   1.542   4.101  0.0583  0.0765 -0.3475
 3804TIP3    H132903   0.734   1.517   4.068 -0.1467 -0.3464 -0.5671
 3804TIP3    H232904   0.608   1.461   4.132 -0.1808  0.2999 -0.0551
 3805TIP3   OH232905   3.702   3.712  12.073  0.2995 -0.3230 -0.3417
 3805TIP3    H132906   3.610   3.734  12.086  0.6233  0.2489  1.1670
 3805TIP3    H232907   3.747   3.796  12.070  0.6517 -0.5242 -2.5154
 3806TIP3   OH232908   4.754   1.172  12.767 -0.0405  0.2627  0.3235
 3806TIP3    H132909   4.762   1.107  12.838 -0.8146  0.9712  1.0817
 3806TIP3    H232910   4.836   1.164  12.718  0.1746 -0.7902  0.8309
 3807TIP3   OH232911   1.594   5.601   0.512 -0.3541 -0.1444  0.1410
 3807TIP3    H132912   1.570   5.626   0.423  0.7061 -1.4480 -0.5491
 3807TIP3    H232913   1.683   5.632   0.522 -0.3752 -0.2497  0.6563
 3808TIP3   OH232914   3.773   2.386  10.900 -0.1779  0.1367  0.4605
 3808TIP3    H132915   3.686   2.395  10.860  0.3070 -0.6362 -0.8676
 3808TIP3    H232916   3.804   2.475  10.912 -0.4752  0.4052 -0.6642
 3809TIP3   OH232917   4.667   1.100  14.662 -0.0623  0.0326 -0.6801
 3809TIP3    H132918   4.729   1.039  14.621 -0.8962 -0.9978 -0.4108
 3809TIP3    H232919   4.702   1.115  14.750  0.3336  0.2487 -0.8663
 3810TIP3   OH232920   1.793   4.266   4.090 -0.4795  0.0478 -0.0192
 3810TIP3    H132921   1.797   4.304   4.002 -1.2813 -1.3331 -0.6810
 3810TIP3    H232922   1.704   4.286   4.120 -1.1819 -1.8716 -0.6815
 3811TIP3   OH232923   2.277   6.428  16.254  0.5776  0.2559  0.0858
 3811TIP3    H132924   2.240   6.409  16.340  0.3145 -0.4488 -0.1712
 3811TIP3    H232925   2.326   6.509  16.266 -0.3358  0.7442  0.6371
 3812TIP3   OH232926   5.123   1.258  17.087 -0.5201 -0.4920 -0.6963
 3812TIP3    H132927   5.216   1.236  17.084 -0.3490  0.2310 -0.8992
 3812TIP3    H232928   5.091   1.215  17.165 -0.3444 -1.9888 -1.4095
 3813TIP3   OH232929   1.064   6.790  12.563 -0.4086 -0.0907  0.0842
 3813TIP3    H132930   0.998   6.814  12.628 -1.7239 -1.2773 -0.7659
 3813TIP3    H232931   1.063   6.861  12.499 -0.9819 -0.1777 -0.0041
 3814TIP3   OH232932   6.142   1.579   6.567  0.2076  0.4184  0.6854
 3814TIP3    H132933   6.146   1.487   6.591  0.1820 -0.1087 -1.2013
 3814TIP3    H232934   6.114   1.624   6.647 -4.8447 -1.7698  0.5173
 3815TIP3   OH232935   2.655   1.943   3.268  0.3028  0.2378  0.2522
 3815TIP3    H132936   2.745   1.935   3.238 -0.5375  0.7247 -2.7233
 3815TIP3    H232937   2.619   2.016   3.217 -1.9522 -0.3602  0.8767
 3816TIP3   OH232938   3.694   1.844  11.950  0.1624  0.4088  0.3460
 3816TIP3    H132939   3.763   1.787  11.915  0.0054  0.8491 -0.7082
 3816TIP3    H232940   3.640   1.785  12.003  1.4203  0.0897  1.3347
 3817TIP3   OH232941   3.933   6.436   5.274  0.4908  0.2171  0.1139
 3817TIP3    H132942   3.860   6.452   5.214 -0.4401 -0.2675  1.0883
 3817TIP3    H232943   3.908   6.355   5.320  1.8234 -0.1683  0.1882
 3818TIP3   OH232944   3.523   0.837  12.060  0.0351  0.0509  0.5681
 3818TIP3    H132945   3.475   0.822  12.141 -0.0823  0.8831  0.6577
 3818TIP3    H232946   3.561   0.925  12.070  0.0803  0.1326 -0.2428
 3819TIP3   OH232947   0.682   2.547   5.501  0.0757  0.3061 -0.1657
 3819TIP3    H132948   0.653   2.459   5.525 -0.3122  0.1826 -1.0411
 3819TIP3    H232949   0.751   2.568   5.563 -0.2524 -0.3714  0.4358
 3820TIP3   OH232950   3.677   2.370  16.725  0.3852  0.4877  0.2225
 3820TIP3    H132951   3.696   2.460  16.752 -1.4477  1.1541 -0.5602
 3820TIP3    H232952   3.695   2.369  16.631 -0.1796  0.2239  0.1126
 3821TIP3   OH232953   3.213   0.790  13.766 -0.1691  0.1715 -0.0337
 3821TIP3    H132954   3.124   0.819  13.751  0.4175  0.5050 -3.6043
 3821TIP3    H232955   3.205   0.697  13.789 -1.4520  0.5600  1.2084
 3822TIP3   OH232956   0.572   3.716  10.493 -0.1808 -0.1498  0.2443
 3822TIP3    H132957   0.478   3.697  10.488 -0.4035  0.3631  1.8226
 3822TIP3    H232958   0.609   3.675  10.415 -1.4571 -1.9708  0.5217
 3823TIP3   OH232959   3.459   3.672   2.525 -0.0596 -0.5690 -0.0717
 3823TIP3    H132960   3.464   3.657   2.620  1.3373  0.7698  0.1162
 3823TIP3    H232961   3.543   3.713   2.503 -1.0436  0.7696 -1.5715
 3824TIP3   OH232962   1.384   3.957   3.198  0.6698 -0.5190 -0.4013
 3824TIP3    H132963   1.306   3.923   3.154  1.4228 -0.7354 -1.6031
 3824TIP3    H232964   1.449   3.888   3.189  1.1356 -0.1724  0.2156
 3825TIP3   OH232965   4.848   4.580  12.432 -0.2900 -0.1902 -0.1512
 3825TIP3    H132966   4.775   4.530  12.468 -0.6502  0.6198  0.2700
 3825TIP3    H232967   4.863   4.543  12.345 -0.3156 -1.2602  0.2952
 3826TIP3   OH232968   5.736   4.279   0.622 -0.4330 -0.7151 -0.0969
 3826TIP3    H132969   5.718   4.306   0.532  3.3736 -1.1152 -1.1551
 3826TIP3    H232970   5.708   4.187   0.625 -1.3530 -0.4631 -0.5805
 3827TIP3   OH232971   2.064   1.336   4.290 -0.0286  0.0747 -0.4809
 3827TIP3    H132972   2.041   1.254   4.246  3.2630 -0.9763 -0.5396
 3827TIP3    H232973   2.057   1.403   4.223 -0.9323 -0.4549 -0.9324
 3828TIP3   OH232974   2.486   6.408  13.994  0.3001  0.3239  0.5826
 3828TIP3    H132975   2.451   6.493  13.966 -3.0737 -1.1481 -0.1059
 3828TIP3    H232976   2.410   6.359  14.023  1.6948 -3.3331 -1.3113
 3829TIP3   OH232977   6.703   5.505   0.378  0.3827 -1.3992 -0.1440
 3829TIP3    H132978   6.685   5.415   0.404 -0.4029 -1.5358 -1.1024
 3829TIP3    H232979   6.617   5.544   0.362  0.6823 -0.3288  0.6826
 3830TIP3   OH232980   4.354   1.781  15.739 -0.3740 -0.0137  0.3100
 3830TIP3    H132981   4.312   1.855  15.696 -0.2974 -0.4953 -0.6293
 3830TIP3    H232982   4.345   1.799  15.833  2.2362  2.6573  0.1936
 3831TIP3   OH232983   3.209   6.490   0.028  0.3721 -0.2869  0.0383
 3831TIP3    H132984   3.114   6.490   0.029  0.3565 -0.5243 -0.8610
 3831TIP3    H232985   3.233   6.535  -0.053  1.0352  0.2486  0.5146
 3832TIP3   OH232986   5.654   0.381  13.321  0.6995 -0.2900 -0.5730
 3832TIP3    H132987   5.645   0.438  13.245  0.1824 -0.7621 -0.8694
 3832TIP3    H232988   5.565   0.351  13.340  0.9881 -1.1847 -0.5685
 3833TIP3   OH232989   3.042   4.649  11.339  0.4044 -0.3317  0.2970
 3833TIP3    H132990   3.043   4.657  11.243 -1.3650 -0.6026  0.2247
 3833TIP3    H232991   2.964   4.697  11.366  0.4093 -0.9918  1.5360
 3834TIP3   OH232992   5.217   6.072  12.332 -0.2458 -0.2365  0.1504
 3834TIP3    H132993   5.166   6.127  12.272  0.2780 -0.5438 -0.5896
 3834TIP3    H232994   5.299   6.120  12.344 -0.8930  0.5312  1.7772
 3835TIP3   OH232995   4.293   1.124   3.456  0.0324 -0.3282  0.3193
 3835TIP3    H132996   4.268   1.185   3.526 -0.3980  0.0889 -0.1900
 3835TIP3    H232997   4.303   1.040   3.500 -1.2031 -0.2813  0.7266
 3836TIP3   OH232998   2.128   4.579   2.733  0.5495 -0.5695  0.2065
 3836TIP3    H132999   2.152   4.670   2.717 -2.0246 -0.0351 -1.1354
 3836TIP3    H233000   2.068   4.583   2.808 -1.1126 -0.8275 -1.0372
 3837TIP3   OH233001   6.771   1.526   2.671 -0.1717  0.0154  0.7202
 3837TIP3    H133002   6.855   1.562   2.643 -0.0708 -1.1093 -0.5199
 3837TIP3    H233003   6.768   1.439   2.631 -1.7741 -0.1042  1.0388
 3838TIP3   OH233004   0.771   5.292  15.471 -0.2633 -0.3800  0.0071
 3838TIP3    H133005   0.692   5.244  15.496  1.0654 -2.0224  1.2524
 3838TIP3    H233006   0.819   5.305  15.552 -0.4378  3.0155 -0.2924
 3839TIP3   OH233007   4.688   1.207  13.518  0.2870 -0.5042 -0.1250
 3839TIP3    H133008   4.761   1.266  13.538  1.8884 -2.2279 -0.5229
 3839TIP3    H233009   4.731   1.127  13.487 -1.7780 -1.8730  0.3687
 3840TIP3   OH233010   1.283   4.725   4.699 -0.0267  0.1309 -0.3039
 3840TIP3    H133011   1.290   4.638   4.660  0.5411 -0.1721  0.4451
 3840TIP3    H233012   1.282   4.784   4.624 -1.6662 -0.5605 -0.8809
 3841TIP3   OH233013   4.667   3.039   4.057  0.5087 -0.7876 -0.9973
 3841TIP3    H133014   4.633   2.951   4.074  0.3944 -0.4846  0.5125
 3841TIP3    H233015   4.718   3.030   3.976 -0.4108 -1.9837 -1.4707
 3842TIP3   OH233016   2.116   1.176   4.890  0.0080 -0.7369  0.3945
 3842TIP3    H133017   2.049   1.123   4.934  0.3579 -2.1898 -0.7612
 3842TIP3    H233018   2.074   1.205   4.809  0.4123 -0.7366  0.1843
 3843TIP3   OH233019   1.034   4.071   0.388 -0.3007 -0.0182 -0.7731
 3843TIP3    H133020   1.116   4.098   0.346 -0.2611 -0.5774 -1.0647
 3843TIP3    H233021   0.981   4.038   0.315 -0.7004  0.1482 -0.5526
 3844TIP3   OH233022   4.326   2.405   1.291  0.1247 -0.3314  0.5757
 3844TIP3    H133023   4.278   2.366   1.218 -1.3144 -0.3096  1.4713
 3844TIP3    H233024   4.401   2.448   1.249  0.8779 -2.5883 -0.6038
 3845TIP3   OH233025   4.492   3.070   1.093 -0.0418 -0.2921  0.4651
 3845TIP3    H133026   4.480   3.071   1.188 -2.4796 -0.0111  0.2093
 3845TIP3    H233027   4.422   3.125   1.059  2.2277  1.6644 -1.4266
 3846TIP3   OH233028   3.808   6.318  12.948 -0.3637 -0.5285  0.0443
 3846TIP3    H133029   3.852   6.264  13.014  0.5778  2.6359  2.2865
 3846TIP3    H233030   3.870   6.389  12.931 -1.8794  0.3942 -1.9779
 3847TIP3   OH233031   4.084   4.950  11.770 -0.2791  1.0656 -1.0056
 3847TIP3    H133032   4.042   5.030  11.738 -0.0787  0.6452 -2.3893
 3847TIP3    H233033   4.092   4.895  11.692  0.3158  0.0196 -0.2238
 3848TIP3   OH233034   4.165   5.013   1.839 -0.5876  0.5856 -0.1811
 3848TIP3    H133035   4.156   5.108   1.832  1.4093  0.8211 -0.1888
 3848TIP3    H233036   4.246   5.000   1.889 -1.7825 -1.1351  1.4776
 3849TIP3   OH233037   0.097   3.121  15.144 -0.2486 -0.2014 -0.0128
 3849TIP3    H133038   0.078   3.187  15.077  0.9205 -2.2852 -2.5955
 3849TIP3    H233039   0.192   3.129  15.159 -0.4699  0.1275  1.3353
 3850TIP3   OH233040   6.304   1.948   1.617  0.0080 -0.3410  0.2355
 3850TIP3    H133041   6.300   1.891   1.540 -0.5655  0.9184 -0.7207
 3850TIP3    H233042   6.329   1.891   1.689  3.6019 -1.0950 -1.4057
 3851TIP3   OH233043   6.697   3.222  16.001 -0.0618 -0.0594 -0.2109
 3851TIP3    H133044   6.780   3.216  15.955  0.4724  0.5745  0.6369
 3851TIP3    H233045   6.717   3.273  16.080 -0.9183 -1.2011  0.7799
 3852TIP3   OH233046   2.554   3.260  15.000 -0.1654 -0.0343 -0.6102
 3852TIP3    H133047   2.516   3.184  15.044  2.8108 -0.5544  1.3519
 3852TIP3    H233048   2.531   3.334  15.056 -0.7570  0.1164 -1.0437
 3853TIP3   OH233049   0.055   6.748   6.006 -0.0336 -0.0168 -0.7886
 3853TIP3    H133050   0.007   6.702   5.938 -1.3120  3.1083 -2.2110
 3853TIP3    H233051  -0.001   6.743   6.083 -0.2999 -0.4972 -1.0110
 3854TIP3   OH233052   3.655   5.842   1.035  0.4036 -0.6745  0.0953
 3854TIP3    H133053   3.611   5.797   1.107 -2.5289 -1.1033 -1.7863
 3854TIP3    H233054   3.690   5.771   0.981  0.8473 -0.4355  0.0651
 3855TIP3   OH233055   5.285   3.802   4.021  0.2113 -0.2739 -0.2964
 3855TIP3    H133056   5.214   3.737   4.021  0.2202 -0.3200 -1.9377
 3855TIP3    H233057   5.240   3.886   4.037  0.0844 -0.5541  0.8892
 3856TIP3   OH233058   0.696   3.261  15.321 -0.0578 -0.0185  0.3857
 3856TIP3    H133059   0.603   3.282  15.315  0.3054  2.1124  0.9981
 3856TIP3    H233060   0.739   3.332  15.272  1.2690 -0.4343  0.9071
 3857TIP3   OH233061   3.556   6.589   6.609 -0.5125 -0.1384  0.0021
 3857TIP3    H133062   3.604   6.632   6.538 -0.5002 -0.0498  0.0624
 3857TIP3    H233063   3.617   6.593   6.684 -1.4197  1.9419  0.7005
 3858TIP3   OH233064   4.275   3.224  17.216 -0.2798  0.0016  0.0255
 3858TIP3    H133065   4.366   3.194  17.217  0.0529  0.9459 -0.4139
 3858TIP3    H233066   4.239   3.195  17.301 -0.4321 -2.8134 -0.8835
 3859TIP3   OH233067   3.295   4.324   5.289 -0.3670  0.8457  0.1582
 3859TIP3    H133068   3.348   4.384   5.237 -0.6522  0.1437 -0.9805
 3859TIP3    H233069   3.234   4.286   5.226 -0.7373 -0.0107  1.0184
 3860TIP3   OH233070   6.551   0.876   0.802 -0.1357 -0.0249 -0.3198
 3860TIP3    H133071   6.530   0.958   0.758  1.2635  0.4495 -0.1628
 3860TIP3    H233072   6.595   0.823   0.735 -0.8706 -0.5836 -0.3711
 3861TIP3   OH233073   0.882   4.151  13.383  0.2687  0.4493  0.8005
 3861TIP3    H133074   0.795   4.168  13.419 -0.8143 -0.2218 -1.2823
 3861TIP3    H233075   0.883   4.057  13.368  0.6780  0.6786 -0.7618
 3862TIP3   OH233076   5.280   5.299   0.393  0.0444  0.4561 -0.4119
 3862TIP3    H133077   5.372   5.326   0.392 -0.1384  1.1853  0.4220
 3862TIP3    H233078   5.273   5.241   0.469  0.1647 -1.0107 -1.4786
 3863TIP3   OH233079   6.514   0.776  12.968  1.0765  0.3104 -0.7456
 3863TIP3    H133080   6.458   0.779  12.890 -0.3053 -0.0130  0.1997
 3863TIP3    H233081   6.551   0.864  12.974 -0.0006  0.8042 -0.9401
 3864TIP3   OH233082   0.683   0.990   4.177  0.3336 -0.2423 -0.5583
 3864TIP3    H133083   0.770   0.950   4.179  0.4460  0.0198 -0.0941
 3864TIP3    H233084   0.699   1.084   4.173  0.0758 -0.1834 -0.3011
 3865TIP3   OH233085   3.955   3.703  15.339  0.4642  0.2215  0.7279
 3865TIP3    H133086   3.914   3.742  15.262  2.7520  0.1856 -0.5763
 3865TIP3    H233087   3.907   3.621  15.352 -1.2026  1.1292  0.5546
 3866TIP3   OH233088   2.178   5.401  16.408  0.5511 -0.1486  0.7888
 3866TIP3    H133089   2.088   5.429  16.389  0.5797 -0.7050 -0.2235
 3866TIP3    H233090   2.228   5.483  16.411 -0.3054  0.4014  3.4903
 3867TIP3   OH233091   3.775   3.703  12.685  0.2046  0.4218  0.0502
 3867TIP3    H133092   3.822   3.785  12.669  1.0969  0.3255  1.9511
 3867TIP3    H233093   3.805   3.675  12.772 -1.8136 -0.7324  0.4196
 3868TIP3   OH233094   0.453   0.086  14.383 -0.1261 -0.5255 -0.1009
 3868TIP3    H133095   0.388   0.154  14.362 -0.3490 -1.0412 -1.1478
 3868TIP3    H233096   0.499   0.120  14.459  1.6156  2.1307 -2.1238
 3869TIP3   OH233097   0.576   6.271   3.973 -0.0585 -0.2260 -0.4250
 3869TIP3    H133098   0.581   6.338   4.041  1.7386  0.1850 -0.9164
 3869TIP3    H233099   0.626   6.197   4.008 -0.5779 -0.6776 -0.6110
 3870TIP3   OH233100   6.760   5.769   4.815 -0.0313  0.4495  0.2954
 3870TIP3    H133101   6.782   5.682   4.849  0.6324  0.5454  0.1218
 3870TIP3    H233102   6.667   5.763   4.793  0.6301 -1.2421 -2.6463
 3871TIP3   OH233103   2.498   1.741   2.027  0.0151  0.2875 -0.7303
 3871TIP3    H133104   2.552   1.791   1.965 -0.0937 -0.5224 -1.5060
 3871TIP3    H233105   2.554   1.729   2.103  0.8394 -0.3040 -1.4170
 3872TIP3   OH233106   4.023   6.100  14.110 -0.3125 -0.0369 -0.0713
 3872TIP3    H133107   3.982   6.014  14.113  1.1502 -0.7489  0.5830
 3872TIP3    H233108   4.079   6.103  14.188  0.9151  0.8467 -0.9468
 3873TIP3   OH233109   6.769   2.834  16.596  0.2224 -0.0941 -0.5380
 3873TIP3    H133110   6.763   2.922  16.558  1.4808  0.5770  0.7252
 3873TIP3    H233111   6.679   2.813  16.623 -0.3006  0.2953 -1.8853
 3874TIP3   OH233112   4.642   6.382   3.870  0.2427  0.0892  0.1769
 3874TIP3    H133113   4.651   6.473   3.900 -0.3808  0.0577  0.4780
 3874TIP3    H233114   4.728   6.343   3.887  0.5287  0.6291  0.0081
 3875TIP3   OH233115   6.168   2.737   4.058  0.4623 -0.3989 -0.0217
 3875TIP3    H133116   6.259   2.716   4.076  0.5207  0.2700  0.4951
 3875TIP3    H233117   6.118   2.675   4.111  0.6324  0.2063  0.8842
 3876TIP3   OH233118   3.945   4.630   1.729  0.2314 -0.2593  0.0668
 3876TIP3    H133119   3.962   4.573   1.655 -0.9598 -0.3948 -0.1114
 3876TIP3    H233120   3.941   4.718   1.691  2.3134  0.0189  0.3749
 3877TIP3   OH233121   0.188   6.628   0.034 -0.1029 -0.1701 -0.1896
 3877TIP3    H133122   0.099   6.652   0.007  0.2162  1.8348  0.3448
 3877TIP3    H233123   0.213   6.558  -0.026 -1.1493  0.9299 -2.0145
 3878TIP3   OH233124   3.730   6.575  14.800  0.5271  0.1747  0.2198
 3878TIP3    H133125   3.707   6.667  14.799 -1.4003 -0.2689 -1.2075
 3878TIP3    H233126   3.808   6.568  14.745  0.4855  0.8877  0.0700
 3879TIP3   OH233127   0.527   1.148   2.293  0.6030 -0.0919  0.5800
 3879TIP3    H133128   0.600   1.136   2.233 -0.3455 -3.6198 -0.1131
 3879TIP3    H233129   0.553   1.100   2.372 -0.1026  0.4879  1.1829
 3880TIP3   OH233130   6.151   0.649  16.069  0.0727 -0.3636 -0.4826
 3880TIP3    H133131   6.064   0.667  16.107 -0.5216 -2.6676 -0.6244
 3880TIP3    H233132   6.166   0.722  16.008 -0.5506  1.4988  1.4396
 3881TIP3   OH233133   6.154   1.717  12.413  0.3698  0.1508 -0.0293
 3881TIP3    H133134   6.110   1.721  12.328 -0.5129 -0.7744  0.3706
 3881TIP3    H233135   6.192   1.629  12.416 -0.4009 -0.1652  0.9048
 3882TIP3   OH233136   1.387   5.722   0.633 -0.0602 -0.1480  0.0685
 3882TIP3    H133137   1.466   5.668   0.626 -0.8907 -1.4211  0.1322
 3882TIP3    H233138   1.332   5.693   0.560 -0.7463  0.2218  0.4333
 3883TIP3   OH233139   0.982   1.387   0.451  0.1227 -0.3634 -0.8441
 3883TIP3    H133140   0.963   1.446   0.377  0.0150  0.4367 -0.1919
 3883TIP3    H233141   1.070   1.411   0.479  0.1825 -0.7002 -0.7372
 3884TIP3   OH233142   6.337   6.076   2.114 -0.0997 -0.4395  0.1513
 3884TIP3    H133143   6.358   6.039   2.028  0.7673  1.0013 -0.2922
 3884TIP3    H233144   6.420   6.112   2.145 -0.4029 -0.9431  1.6127
 3885TIP3   OH233145   2.569   2.067  11.450 -0.3098 -0.1112 -0.0337
 3885TIP3    H133146   2.576   1.983  11.406 -2.5239 -0.2654 -0.2238
 3885TIP3    H233147   2.478   2.071  11.479  0.1288  1.5868  1.2772
 3886TIP3   OH233148   1.676   4.998  12.815  0.1098 -0.4357  0.6397
 3886TIP3    H133149   1.647   5.062  12.751  2.0908 -0.5940 -0.5056
 3886TIP3    H233150   1.608   4.997  12.882 -0.8295  1.5282 -0.2283
 3887TIP3   OH233151   3.518   5.033   1.399  0.2571  0.0006 -0.2051
 3887TIP3    H133152   3.527   5.094   1.326 -0.3005 -0.5474 -0.7481
 3887TIP3    H233153   3.564   4.954   1.370 -0.1756 -0.3045 -0.0708
 3888TIP3   OH233154   4.022   6.236   3.126  0.2456  0.1157 -0.2973
 3888TIP3    H133155   4.020   6.172   3.055 -1.4657  2.0935 -2.1847
 3888TIP3    H233156   4.086   6.302   3.098  2.1604 -0.7335  1.7228
 3889TIP3   OH233157   6.454   4.995  14.200  0.1651  0.6776  0.2176
 3889TIP3    H133158   6.451   4.922  14.137  2.3837  0.5328  0.1979
 3889TIP3    H233159   6.390   4.971  14.267 -1.7794  0.5070 -1.5765
 3890TIP3   OH233160   2.233   0.999   1.248 -0.3972 -0.0663 -0.0915
 3890TIP3    H133161   2.157   0.996   1.191  0.0527 -0.2682 -0.6869
 3890TIP3    H233162   2.200   1.038   1.329 -0.9565  0.5473 -0.6045
 3891TIP3   OH233163   3.955   3.426   2.505  0.0776  0.7112  0.3638
 3891TIP3    H133164   3.965   3.445   2.411 -0.9503  0.6584  0.2244
 3891TIP3    H233165   4.016   3.354   2.522  1.4372  1.7614  0.1042
 3892TIP3   OH233166   4.955   5.271   2.685 -0.0181 -0.1371 -0.1335
 3892TIP3    H133167   4.884   5.263   2.748  0.0696  0.7772  0.1045
 3892TIP3    H233168   4.914   5.315   2.610  0.5585  1.5931  0.5138
 3893TIP3   OH233169   2.771   0.415  12.920  0.4517  0.2623  0.2276
 3893TIP3    H133170   2.850   0.369  12.893  0.9928  0.6972  1.0257
 3893TIP3    H233171   2.700   0.353  12.903  1.2619 -1.3595  2.3229
 3894TIP3   OH233172   4.222   6.636   3.311 -1.2331 -0.1256  0.6266
 3894TIP3    H133173   4.292   6.699   3.298 -0.2293 -1.1155  1.0717
 3894TIP3    H233174   4.173   6.671   3.386 -1.4368  0.7405  0.1081
 3895TIP3   OH233175   3.134   5.854   5.924 -0.6888  0.5860  0.3299
 3895TIP3    H133176   3.160   5.929   5.870  0.3805  0.2507  0.3553
 3895TIP3    H233177   3.094   5.793   5.863  0.4927  0.2186 -0.1125
 3896TIP3   OH233178   0.374   5.988   0.336 -0.1106 -0.8253  0.6608
 3896TIP3    H133179   0.348   5.932   0.263 -1.5065 -0.5130  0.8873
 3896TIP3    H233180   0.405   5.928   0.403  2.3378 -1.0584 -0.5788
 3897TIP3   OH233181   0.415   6.436   3.236 -0.1457 -0.3612  0.7149
 3897TIP3    H133182   0.346   6.489   3.195  0.7309  1.0670  1.0250
 3897TIP3    H233183   0.418   6.468   3.327  1.6976  0.4082  0.4058
 3898TIP3   OH233184   5.275   3.626   3.108 -0.0867 -0.0058  0.2757
 3898TIP3    H133185   5.247   3.626   3.200  0.8420 -0.0282  0.5686
 3898TIP3    H233186   5.239   3.546   3.071  0.8183 -0.7838  1.0365
 3899TIP3   OH233187   2.749   0.037  14.692  0.0332  0.0467 -0.1184
 3899TIP3    H133188   2.689  -0.029  14.726  0.0430  0.4392  0.6721
 3899TIP3    H233189   2.718   0.119  14.728 -1.6329  0.9407 -3.2042
 3900TIP3   OH233190   3.474   6.004  13.243 -0.1759 -0.0087 -0.0559
 3900TIP3    H133191   3.384   5.981  13.265 -0.8061  2.5597  0.3970
 3900TIP3    H233192   3.517   6.018  13.328  0.2748  0.0493 -0.2889
 3901TIP3   OH233193   2.142   3.695   5.514  0.0470  0.1974  0.0452
 3901TIP3    H133194   2.171   3.709   5.605 -0.9190  1.4477  0.1813
 3901TIP3    H233195   2.177   3.769   5.466  0.7169 -0.5633 -0.6662
 3902TIP3   OH233196   5.183   5.727  15.913  0.6332  0.0689 -0.7994
 3902TIP3    H133197   5.219   5.651  15.959 -2.5472 -0.1833  1.6027
 3902TIP3    H233198   5.208   5.802  15.968 -2.3272 -0.1351  1.0709
 3903TIP3   OH233199   2.597   3.528   5.775 -0.0934  0.0909  0.2109
 3903TIP3    H133200   2.583   3.463   5.844 -0.1472  0.6358  0.7233
 3903TIP3    H233201   2.648   3.598   5.818  0.3540  0.1828 -0.4467
 3904TIP3   OH233202   5.056   1.781  12.729 -0.3923  0.1469 -0.2994
 3904TIP3    H133203   5.099   1.724  12.666  1.7831  0.3302  0.9294
 3904TIP3    H233204   5.079   1.870  12.702 -1.3357  0.3473 -0.5083
 3905TIP3   OH233205   1.462   3.602  15.261  0.5483  0.1888  0.2231
 3905TIP3    H133206   1.386   3.545  15.256 -0.6056  1.7395 -1.0646
 3905TIP3    H233207   1.536   3.543  15.274 -0.6835 -1.4836 -0.0936
 3906TIP3   OH233208   3.384   5.204  10.098 -0.4244 -0.6756 -0.8096
 3906TIP3    H133209   3.352   5.142  10.033 -1.5774 -0.1082 -0.8263
 3906TIP3    H233210   3.451   5.157  10.146 -1.3991 -2.0118 -0.6907
 3907TIP3   OH233211   0.645   0.064   2.017 -0.0242  0.0903  0.2027
 3907TIP3    H133212   0.612   0.049   1.928  1.7341 -1.2464 -0.2778
 3907TIP3    H233213   0.678   0.154   2.015  2.1039 -0.6591 -1.2553
 3908TIP3   OH233214   2.212   0.077  13.089 -0.4880 -0.0452  0.7077
 3908TIP3    H133215   2.149   0.047  13.153 -0.5226  0.6509  1.0090
 3908TIP3    H233216   2.288   0.105  13.140  0.4096 -1.6431  0.3078
 3909TIP3   OH233217   3.038   5.727  13.347 -0.7640  0.5462  0.4431
 3909TIP3    H133218   2.945   5.711  13.365 -1.1918  1.2255 -1.0528
 3909TIP3    H233219   3.084   5.682  13.418 -2.2252 -0.0079  1.0723
 3910TIP3   OH233220   6.824   6.146  16.776 -0.3013 -0.1924  0.0195
 3910TIP3    H133221   6.788   6.059  16.794 -3.6767  0.6352 -1.8197
 3910TIP3    H233222   6.787   6.169  16.691  2.8632  1.9231 -0.9512
 3911TIP3   OH233223   0.177   4.226   2.410  0.4134  0.7259  0.1152
 3911TIP3    H133224   0.150   4.171   2.483 -0.7216 -0.0831 -0.8913
 3911TIP3    H233225   0.125   4.305   2.419 -2.4955 -0.8140 -1.8041
 3912TIP3   OH233226   6.580   2.592  13.897  0.2863  0.5760  0.5470
 3912TIP3    H133227   6.507   2.591  13.835  0.0499 -2.4733  0.7181
 3912TIP3    H233228   6.651   2.637  13.851 -0.8449  1.1266 -0.6996
 3913TIP3   OH233229   1.995   3.451  14.813  0.4680  0.0960 -0.5763
 3913TIP3    H133230   2.027   3.530  14.769 -1.3918  1.8245  1.0031
 3913TIP3    H233231   1.900   3.461  14.814  0.2385 -1.7962  0.4060
 3914TIP3   OH233232   5.486   0.941  11.974 -0.7164 -0.3971  0.2286
 3914TIP3    H133233   5.581   0.939  11.963 -0.9039 -0.5473 -1.6164
 3914TIP3    H233234   5.460   1.029  11.948 -1.1387 -0.5424  0.1396
 3915TIP3   OH233235   5.066   5.660  14.079  0.1082  0.1089  0.0669
 3915TIP3    H133236   5.034   5.597  14.143 -1.2912  1.2226  0.5305
 3915TIP3    H233237   5.116   5.724  14.131 -0.8269  0.8839  0.0495
 3916TIP3   OH233238   1.995   4.489  12.493  0.3546  0.0656 -0.2729
 3916TIP3    H133239   2.073   4.434  12.500  0.8183  0.9019  1.5923
 3916TIP3    H233240   1.924   4.427  12.474  0.6330 -1.4901  3.0348
 3917TIP3   OH233241   5.584   6.496   2.639 -0.2888 -0.0894  0.4926
 3917TIP3    H133242   5.564   6.517   2.548 -1.6870 -0.2318  0.7511
 3917TIP3    H233243   5.550   6.571   2.688  0.0441 -0.2299  0.9405
 3918TIP3   OH233244   3.075   0.179  16.393  0.4179  0.0790  0.0108
 3918TIP3    H133245   3.051   0.200  16.483 -0.1071 -0.9535  0.1333
 3918TIP3    H233246   3.018   0.105  16.370  0.1002  0.7137 -1.3823
 3919TIP3   OH233247   5.753   5.269  11.616  0.2375 -0.1592  0.5684
 3919TIP3    H133248   5.693   5.291  11.545  2.1150  2.4010 -0.3775
 3919TIP3    H233249   5.744   5.342  11.678  0.5029 -1.0623  1.7055
 3920TIP3   OH233250   6.330   3.300   5.569 -0.2660 -0.8821  0.1079
 3920TIP3    H133251   6.261   3.366   5.558  1.5356  1.1492  0.3161
 3920TIP3    H233252   6.396   3.343   5.624  1.3287 -2.6062 -0.3541
 3921TIP3   OH233253   5.630   2.365   5.759  0.5932 -0.0400 -0.0582
 3921TIP3    H133254   5.628   2.351   5.664 -1.3048  0.8752 -0.2120
 3921TIP3    H233255   5.712   2.326   5.788  0.5418 -1.6084 -1.8690
 3922TIP3   OH233256   4.916   1.328  14.656  0.5764  0.3351  0.1940
 3922TIP3    H133257   4.832   1.321  14.610  1.5528  0.5616 -1.7221
 3922TIP3    H233258   4.981   1.299  14.592  1.9084 -0.7005  1.9329
 3923TIP3   OH233259   6.653   4.841   3.704 -0.1631 -0.1808  0.4283
 3923TIP3    H133260   6.666   4.747   3.714 -0.4537 -0.3060 -0.2769
 3923TIP3    H233261   6.611   4.850   3.618 -1.1963  0.5028  0.9844
 3924TIP3   OH233262   3.261   3.048  10.949  0.0137 -0.7104  0.1792
 3924TIP3    H133263   3.256   2.956  10.920 -0.5161 -0.7055  0.2624
 3924TIP3    H233264   3.317   3.090  10.883 -1.3299 -0.6560 -0.9601
 3925TIP3   OH233265   0.984   6.378  10.840 -0.3686  0.3297  0.1519
 3925TIP3    H133266   0.980   6.349  10.932 -0.2668  0.4147  0.1831
 3925TIP3    H233267   0.903   6.426  10.827  0.3166  1.6611  0.6530
 3926TIP3   OH233268   4.933   5.260   0.235 -0.2732  0.2302 -0.0501
 3926TIP3    H133269   4.839   5.265   0.252 -0.0976 -0.6058  1.2790
 3926TIP3    H233270   4.960   5.352   0.228 -1.1455  0.4860 -0.2395
 3927TIP3   OH233271   0.345   5.095  16.123  0.0887 -0.0406  0.4024
 3927TIP3    H133272   0.301   5.180  16.116  0.9641  0.2888 -1.8349
 3927TIP3    H233273   0.411   5.107  16.191 -0.1691  0.8742  0.4995
 3928TIP3   OH233274   4.069   1.476  15.845 -0.4891 -0.0617  0.3332
 3928TIP3    H133275   4.059   1.525  15.763  0.6278  0.0889  0.2655
 3928TIP3    H233276   4.040   1.538  15.912 -1.9198 -0.3712  0.0356
 3929TIP3   OH233277   1.140   2.676   2.333 -0.6435 -0.2923  0.0176
 3929TIP3    H133278   1.063   2.649   2.384 -0.7121  0.1003  0.1220
 3929TIP3    H233279   1.157   2.602   2.275 -1.5595 -0.0824 -0.5372
 3930TIP3   OH233280   5.461   6.252   4.276 -0.0466 -0.7755  0.3308
 3930TIP3    H133281   5.371   6.245   4.308  0.1841 -0.0006  1.2007
 3930TIP3    H233282   5.475   6.346   4.266  1.3331 -0.7144  2.2398
 3931TIP3   OH233283   2.308   0.421  16.729 -0.0209 -0.3464 -0.0606
 3931TIP3    H133284   2.257   0.500  16.747  0.2271 -0.1260 -0.3326
 3931TIP3    H233285   2.265   0.353  16.782 -0.7201 -0.2090 -0.4274
 3932TIP3   OH233286   1.256   4.629   5.670  0.5020  0.4140  0.4897
 3932TIP3    H133287   1.248   4.543   5.630  1.6736 -0.0792  1.2397
 3932TIP3    H233288   1.329   4.620   5.731  1.3965  2.2457 -0.2280
 3933TIP3   OH233289   5.598   1.528  13.186  0.5291 -0.5463 -0.7708
 3933TIP3    H133290   5.561   1.462  13.245  0.4367  0.0803 -0.1127
 3933TIP3    H233291   5.603   1.484  13.101  0.2621 -1.3259 -0.3931
 3934TIP3   OH233292   0.260   1.885  11.259  0.7830 -0.3187  0.0223
 3934TIP3    H133293   0.177   1.919  11.292  0.0942 -2.0929  0.2208
 3934TIP3    H233294   0.248   1.878  11.165  0.3884 -1.3251  0.1339
 3935TIP3   OH233295   6.449   4.615   3.808  0.1211 -0.1582 -0.0501
 3935TIP3    H133296   6.422   4.524   3.790  1.9025 -0.6180 -0.6176
 3935TIP3    H233297   6.449   4.657   3.722  1.9150 -0.4045 -0.2045
 3936TIP3   OH233298   2.701   6.073  12.104 -0.0367 -0.0461  0.0709
 3936TIP3    H133299   2.652   6.100  12.182  1.4273  0.0554  0.9981
 3936TIP3    H233300   2.742   5.991  12.129  2.4554  1.1940  0.3412
 3937TIP3   OH233301   2.212   6.524  11.396 -0.5609  0.6300  0.8181
 3937TIP3    H133302   2.216   6.484  11.309  0.1071  1.0589  0.6419
 3937TIP3    H233303   2.156   6.601  11.384  0.3140  1.2416  0.5238
 3938TIP3   OH233304   6.579   1.281   5.450  0.1242 -0.8862  0.8756
 3938TIP3    H133305   6.536   1.210   5.402  1.4509 -1.9550  1.2038
 3938TIP3    H233306   6.537   1.283   5.535 -2.5386  1.2908 -0.3239
 3939TIP3   OH233307   6.053   0.095   1.796 -0.2332  0.4004 -0.1313
 3939TIP3    H133308   6.000   0.162   1.753 -0.1643  0.7121  0.2576
 3939TIP3    H233309   6.038   0.109   1.889 -0.0749 -0.0128 -0.0417
 3940TIP3   OH233310   2.756   1.975   0.140 -0.3501  0.1465  0.2068
 3940TIP3    H133311   2.831   2.013   0.184 -0.3685  2.0638 -1.2919
 3940TIP3    H233312   2.794   1.912   0.078 -0.0838  0.0775  0.4411
 3941TIP3   OH233313   1.912   0.105  11.223  0.0059 -0.0296 -0.0819
 3941TIP3    H133314   1.853   0.053  11.168 -0.7797  0.7788 -0.0162
 3941TIP3    H233315   1.870   0.105  11.309  0.2238  0.3585  0.0228
 3942TIP3   OH233316   5.557   0.693  14.022  0.4342 -0.1275  0.1680
 3942TIP3    H133317   5.597   0.726  14.102  0.7348 -0.1913  0.0451
 3942TIP3    H233318   5.495   0.627  14.051 -0.5328  0.8710  0.4585
 3943TIP3   OH233319   3.967   2.605   0.967  0.4652 -0.5199 -0.1103
 3943TIP3    H133320   3.971   2.696   0.998 -2.0302 -1.0497  2.0733
 3943TIP3    H233321   3.920   2.610   0.884 -0.3831  0.1312  0.3953
 3944TIP3   OH233322   5.185   1.403  12.247 -0.0110 -0.2582  0.2832
 3944TIP3    H133323   5.279   1.387  12.254  0.1270  0.2725 -0.2297
 3944TIP3    H233324   5.166   1.395  12.153 -0.7429 -1.7198  0.5214
 3945TIP3   OH233325   2.743   1.540  14.212  0.0113  0.0389  0.5084
 3945TIP3    H133326   2.746   1.549  14.117  1.7128  2.3603  0.7090
 3945TIP3    H233327   2.669   1.595  14.239  1.3043  1.8019  0.6608
 3946TIP3   OH233328   4.641   4.982   1.955 -0.5015  0.6324 -0.0041
 3946TIP3    H133329   4.697   5.052   1.987  1.6059 -0.8457 -0.2347
 3946TIP3    H233330   4.660   4.978   1.861 -1.0362  0.1351 -0.0925
 3947TIP3   OH233331   2.578   2.700  14.125  0.2914 -0.1491 -0.0901
 3947TIP3    H133332   2.571   2.786  14.083 -0.2014  0.6872  1.5918
 3947TIP3    H233333   2.528   2.641  14.068 -0.5117  0.9597 -0.5751
 3948TIP3   OH233334   3.604   3.924  13.142  0.7348 -0.1873 -0.7350
 3948TIP3    H133335   3.545   3.852  13.163  1.2644 -0.3317  0.3230
 3948TIP3    H233336   3.692   3.886  13.150  1.0041  0.4086 -0.8051
 3949TIP3   OH233337   0.107   6.439   2.327  0.0876 -0.0466  0.3175
 3949TIP3    H133338   0.042   6.450   2.396 -1.4557 -0.8213 -0.9636
 3949TIP3    H233339   0.150   6.356   2.348 -2.4903 -1.9095 -1.2111
 3950TIP3   OH233340   4.828   4.529  10.372  0.0798  0.3726  0.2069
 3950TIP3    H133341   4.778   4.480  10.308  0.2220  0.1467  0.2653
 3950TIP3    H233342   4.799   4.619  10.362  0.5925  0.4543 -0.6440
 3951TIP3   OH233343   1.052   4.633  10.735  0.1976  0.5151  0.2517
 3951TIP3    H133344   1.090   4.662  10.652 -1.4430  1.9147 -0.0514
 3951TIP3    H233345   1.049   4.537  10.727 -1.1045  0.6671 -1.8882
 3952TIP3   OH233346   4.027   4.126   5.342 -0.4056  0.1069 -0.1534
 3952TIP3    H133347   4.115   4.156   5.362  0.6295 -2.4541 -0.4318
 3952TIP3    H233348   3.981   4.129   5.425 -0.5914  2.8553 -0.2696
 3953TIP3   OH233349   0.746   1.950  13.612 -0.2798  0.0280 -0.9082
 3953TIP3    H133350   0.692   1.988  13.542 -2.0089 -2.6223 -1.1418
 3953TIP3    H233351   0.685   1.934  13.684  1.1061  0.9474  0.5261
 3954TIP3   OH233352   6.261   2.335   1.370 -0.1957 -0.5110 -0.0213
 3954TIP3    H133353   6.234   2.251   1.407 -0.7501 -0.1355  0.4430
 3954TIP3    H233354   6.240   2.399   1.438  0.8012 -0.0615 -0.1185
 3955TIP3   OH233355   3.486   2.349  16.194  0.5125  0.3573  0.0799
 3955TIP3    H133356   3.435   2.320  16.119 -1.1872 -0.6288  1.5398
 3955TIP3    H233357   3.427   2.406  16.243  1.1545  0.0401  1.2610
 3956TIP3   OH233358   4.879   0.690  12.149  0.0850 -0.4114 -0.5742
 3956TIP3    H133359   4.943   0.654  12.210  0.4656  2.8468  1.1600
 3956TIP3    H233360   4.931   0.742  12.087 -0.6673  0.1910 -0.7198
 3957TIP3   OH233361   1.388   5.180  11.050 -0.0428 -0.6931 -0.0853
 3957TIP3    H133362   1.319   5.246  11.048  1.2783  0.7463 -2.6423
 3957TIP3    H233363   1.359   5.114  10.988  0.5874 -0.3636 -0.7413
 3958TIP3   OH233364   6.818   0.778   1.739  0.4471 -0.1677  0.4297
 3958TIP3    H133365   6.772   0.706   1.782  0.1030 -0.9750 -1.2074
 3958TIP3    H233366   6.819   0.848   1.804 -0.4112 -1.1795  1.5806
 3959TIP3   OH233367   4.568   0.795   5.416  0.3677  0.6795  0.2087
 3959TIP3    H133368   4.516   0.874   5.430  0.8460  1.0361 -0.0034
 3959TIP3    H233369   4.636   0.822   5.354  1.5206  0.5414  1.3789
 3960TIP3   OH233370   5.869   5.889  13.910 -0.7222 -0.2744 -0.4109
 3960TIP3    H133371   5.939   5.935  13.955 -1.2333 -0.8241  1.0105
 3960TIP3    H233372   5.902   5.874  13.821 -0.0503  1.6517 -0.5203
 3961TIP3   OH233373   1.678   1.651  14.962  0.0351 -0.2946 -0.0819
 3961TIP3    H133374   1.681   1.558  14.983 -0.5428 -0.2140  0.3800
 3961TIP3    H233375   1.598   1.662  14.910  0.5526 -0.1945 -0.8896
 3962TIP3   OH233376   0.870   5.861  13.128  0.0819  0.3582 -0.0001
 3962TIP3    H133377   0.922   5.889  13.203 -1.5015  0.3746  1.1321
 3962TIP3    H233378   0.867   5.938  13.071  0.3354  0.7143  0.4613
 3963TIP3   OH233379   4.216   1.233   6.250 -0.1838 -0.1946 -0.3868
 3963TIP3    H133380   4.253   1.160   6.298 -0.3192 -0.6341 -0.9447
 3963TIP3    H233381   4.253   1.311   6.292  0.0706 -0.5816  0.1135
 3964TIP3   OH233382   6.113   1.918   0.160 -0.2602 -0.0379  0.0842
 3964TIP3    H133383   6.150   1.874   0.083 -1.2414 -0.5809 -0.1018
 3964TIP3    H233384   6.186   1.967   0.197  0.6385 -1.0646 -0.2634
 3965TIP3   OH233385   6.018   5.206  10.529 -0.4782 -0.5024 -0.3475
 3965TIP3    H133386   6.062   5.123  10.547 -2.2200 -1.3148  0.3759
 3965TIP3    H233387   5.973   5.228  10.611 -1.1920  0.4212 -0.9607
 3966TIP3   OH233388   2.133   6.783   0.679 -0.0014  0.4252  0.1307
 3966TIP3    H133389   2.072   6.716   0.710  1.5089 -2.2681 -2.2258
 3966TIP3    H233390   2.087   6.825   0.607 -0.5994  1.3761  1.0330
 3967TIP3   OH233391   6.163   0.379  14.031 -0.6138 -0.5961  0.1154
 3967TIP3    H133392   6.245   0.344  13.996  0.6720  0.6997  1.6513
 3967TIP3    H233393   6.147   0.458  13.980  1.5853  1.6297  2.5966
 3968TIP3   OH233394   4.408   2.862  16.149  0.3585 -0.1264  0.3496
 3968TIP3    H133395   4.367   2.939  16.109  0.9090  1.3635  2.5107
 3968TIP3    H233396   4.499   2.866  16.120 -0.1971 -1.6685 -1.8771
 3969TIP3   OH233397   4.017   3.149   2.397  0.1926 -0.3497  0.0211
 3969TIP3    H133398   4.072   3.174   2.472 -0.4451  1.3935 -0.0327
 3969TIP3    H233399   4.010   3.230   2.346  0.7753 -1.5571 -2.0573
 3970TIP3   OH233400   4.937   5.216   5.799  0.4981  0.0250 -0.7294
 3970TIP3    H133401   4.902   5.295   5.757  0.4948  0.8049  0.6823
 3970TIP3    H233402   4.958   5.157   5.726  2.3644  2.0737 -1.9403
 3971TIP3   OH233403   4.903   2.412  12.530 -0.5126 -0.1184  0.3875
 3971TIP3    H133404   4.937   2.382  12.446  0.0501 -1.4318  1.0592
 3971TIP3    H233405   4.948   2.495  12.545  1.5186 -1.2238  0.6755
 3972TIP3   OH233406   2.506   1.596  15.813 -0.9598 -0.2630 -0.2075
 3972TIP3    H133407   2.428   1.599  15.869  0.1991 -0.2663  1.4806
 3972TIP3    H233408   2.523   1.687  15.790 -0.6431 -0.0883  0.6588
 3973TIP3   OH233409   4.530   4.911  16.313 -0.0023 -0.1331 -0.2934
 3973TIP3    H133410   4.499   4.862  16.389  0.3533  0.9940  0.6041
 3973TIP3    H233411   4.495   4.999  16.324 -0.8634 -0.2070 -2.0207
 3974TIP3   OH233412   2.816   6.511   4.556  0.1594 -0.3035  0.3428
 3974TIP3    H133413   2.877   6.559   4.613  1.0980 -2.3723  1.1729
 3974TIP3    H233414   2.740   6.492   4.612  0.8469 -1.8592  0.8040
 3975TIP3   OH233415   2.045   6.348   4.670 -0.1654  0.9415  0.3900
 3975TIP3    H133416   1.966   6.315   4.712 -0.5645  1.0908 -0.2248
 3975TIP3    H233417   2.019   6.365   4.580  0.7386  0.3798  0.0032
 3976TIP3   OH233418   1.495   3.725   3.102  0.8230 -0.3583 -0.1802
 3976TIP3    H133419   1.552   3.770   3.039  0.0681  1.6826  0.4987
 3976TIP3    H233420   1.409   3.723   3.058  0.6393 -0.3105  0.1779
 3977TIP3   OH233421   2.724   3.903  12.517  0.3003 -0.2024 -0.0133
 3977TIP3    H133422   2.654   3.846  12.548 -1.7520  0.9132 -2.2565
 3977TIP3    H233423   2.725   3.892  12.422 -0.0694  3.2219 -0.5726
 3978TIP3   OH233424   0.298   1.354  12.147  0.2830  0.2799 -0.2830
 3978TIP3    H133425   0.279   1.391  12.061  2.0307  1.2649 -0.2961
 3978TIP3    H233426   0.238   1.398  12.206  0.2256  0.8551 -0.7605
 3979TIP3   OH233427   2.771   1.799  15.335  0.0094  0.0855  0.1807
 3979TIP3    H133428   2.803   1.870  15.390  0.0471 -0.2953  0.6526
 3979TIP3    H233429   2.847   1.743  15.320 -0.0330  0.1127 -0.1441
 3980TIP3   OH233430   2.978   5.481  16.039  0.9127 -0.2137 -0.6175
 3980TIP3    H133431   2.901   5.480  16.096  0.2678  1.0131 -1.4262
 3980TIP3    H233432   3.050   5.509  16.095  0.4857 -0.0042 -0.1745
 3981TIP3   OH233433   6.778   6.406  15.299  0.2025  0.3536  0.5245
 3981TIP3    H133434   6.869   6.380  15.316  0.7196  2.1655  0.6869
 3981TIP3    H233435   6.729   6.370  15.373  0.8492 -0.2621  0.6671
 3982TIP3   OH233436   3.542   4.910   4.041 -0.2106  0.3778 -0.2960
 3982TIP3    H133437   3.489   4.831   4.052 -0.7885  0.8443  0.4205
 3982TIP3    H233438   3.486   4.981   4.074  0.3630  1.0635 -0.7588
 3983TIP3   OH233439   2.431   6.621   5.606  0.4486 -0.3163 -0.7872
 3983TIP3    H133440   2.435   6.673   5.685  0.8499 -1.0811 -0.2907
 3983TIP3    H233441   2.348   6.646   5.564 -0.1065 -0.4209  0.2323
 3984TIP3   OH233442   5.402   6.271  14.001  0.5535 -0.0360  0.2202
 3984TIP3    H133443   5.392   6.200  14.064 -0.3368 -0.5416 -0.4466
 3984TIP3    H233444   5.492   6.300  14.010  0.7190 -0.7679  1.0209
 3985TIP3   OH233445   3.800   0.576  15.118  0.9743 -0.0700  0.8258
 3985TIP3    H133446   3.894   0.565  15.133  0.6370 -2.7240  1.4801
 3985TIP3    H233447   3.782   0.520  15.042 -0.3153 -0.9275  1.7358
 3986TIP3   OH233448   6.066   4.843   5.030 -0.2177  0.1565  0.0882
 3986TIP3    H133449   6.088   4.852   4.937 -1.3717 -1.5148 -0.3883
 3986TIP3    H233450   6.110   4.763   5.058 -1.5309 -0.4937  0.4082
 3987TIP3   OH233451   6.269   5.703   1.980 -0.1903 -0.8649  0.5470
 3987TIP3    H133452   6.232   5.699   1.892 -1.7784  1.1721  1.0528
 3987TIP3    H233453   6.354   5.658   1.972 -0.3558 -0.8859 -1.9535
 3988TIP3   OH233454   0.251   4.528   3.940  0.0737 -0.0091 -0.1873
 3988TIP3    H133455   0.191   4.522   4.014 -0.2767  1.0588 -0.3628
 3988TIP3    H233456   0.276   4.621   3.938  2.5894 -0.5933  0.5685
 3989TIP3   OH233457   5.970   3.522  15.541  0.6602  0.5680  0.4038
 3989TIP3    H133458   5.991   3.480  15.457 -1.4988 -0.0797  0.1392
 3989TIP3    H233459   6.018   3.470  15.606  0.9990  0.0198 -0.2687
 3990TIP3   OH233460   4.842   1.915   6.229 -0.5969  0.5564  0.4323
 3990TIP3    H133461   4.781   1.985   6.249 -1.7060 -0.2831  0.1211
 3990TIP3    H233462   4.872   1.883   6.315  1.4343  2.6086  0.5948
 3991TIP3   OH233463   0.131   3.179  10.876  0.2090 -0.0612 -0.0776
 3991TIP3    H133464   0.108   3.249  10.937  0.3529  0.4196 -0.5649
 3991TIP3    H233465   0.090   3.101  10.913 -0.0864  0.3085  0.3933
 3992TIP3   OH233466   4.919   0.527   0.701  0.0391 -0.2131  0.0686
 3992TIP3    H133467   4.971   0.607   0.689  0.1393 -0.1537  0.8461
 3992TIP3    H233468   4.829   0.558   0.711  0.0558 -0.2098  0.2087
 3993TIP3   OH233469   2.642   0.807   3.138 -0.1369  0.2518  0.3938
 3993TIP3    H133470   2.633   0.858   3.057  0.9401  0.2110  0.2350
 3993TIP3    H233471   2.734   0.780   3.139  0.0021  0.7375  1.9287
 3994TIP3   OH233472   1.572   5.195   2.281 -0.0890 -0.1599 -0.6782
 3994TIP3    H133473   1.623   5.124   2.243  0.3485 -0.4032  0.3246
 3994TIP3    H233474   1.630   5.233   2.347 -0.5289  0.7598 -0.8068
 3995TIP3   OH233475   3.150   5.256  16.737 -0.1091 -0.1776 -0.1857
 3995TIP3    H133476   3.089   5.202  16.787 -0.0768 -0.4187 -0.4059
 3995TIP3    H233477   3.237   5.221  16.758 -0.1530 -0.8110 -1.0470
 3996TIP3   OH233478   3.448   0.649  15.111  0.2566 -0.3428  0.2913
 3996TIP3    H133479   3.415   0.560  15.098 -0.9122  0.1033  0.0649
 3996TIP3    H233480   3.390   0.704  15.058  0.3348  0.6638  1.2198
 3997TIP3   OH233481   1.748   4.345   1.714  0.5855 -0.0598  0.5031
 3997TIP3    H133482   1.748   4.338   1.618 -1.3122  0.5812  0.4237
 3997TIP3    H233483   1.840   4.358   1.736  0.8031  2.9135 -1.5085
 3998TIP3   OH233484   3.064   3.031  14.776 -0.2219 -0.1483 -0.2189
 3998TIP3    H133485   2.998   2.978  14.822  0.4264 -0.1840  0.6994
 3998TIP3    H233486   3.124   2.967  14.739  0.2515 -0.0790  0.4171
 3999TIP3   OH233487   3.530   2.482  13.506  0.0937 -0.4678  0.1585
 3999TIP3    H133488   3.502   2.561  13.552 -0.7927 -0.7959  0.2110
 3999TIP3    H233489   3.617   2.463  13.541 -0.5041 -0.6403  1.6265
 4000TIP3   OH233490   2.941   4.218   2.084 -0.3464 -0.0964  0.2422
 4000TIP3    H133491   3.014   4.159   2.106 -0.7908  0.0325  2.2589
 4000TIP3    H233492   2.979   4.282   2.024  0.8479 -0.8256  0.1886
 4001TIP3   OH233493   4.300   6.009   3.251 -0.2566 -0.4936  0.2199
 4001TIP3    H133494   4.332   5.997   3.341 -0.6928 -0.7215  0.3509
 4001TIP3    H233495   4.214   5.967   3.251  0.0199 -1.0853 -0.4912
 4002TIP3   OH233496   4.185   4.491   2.139 -0.2283  0.3371 -0.4241
 4002TIP3    H133497   4.150   4.551   2.204  1.7650  0.4252  0.6321
 4002TIP3    H233498   4.122   4.419   2.137 -1.8706  1.7253 -0.6246
 4003TIP3   OH233499   2.521   4.827  14.093 -1.0819  0.1257  0.4414
 4003TIP3    H133500   2.468   4.749  14.076 -0.5966 -0.0292 -0.3926
 4003TIP3    H233501   2.572   4.839  14.014  1.5743 -0.8616  1.8803
 4004TIP3   OH233502   5.853   2.057   4.409 -0.1592 -0.0121 -0.1600
 4004TIP3    H133503   5.813   2.125   4.463 -0.4223 -1.1284  1.0729
 4004TIP3    H233504   5.820   2.075   4.321 -1.3585  0.6021  0.3954
 4005TIP3   OH233505   3.534   0.791  11.779  0.0744  0.0786  0.3783
 4005TIP3    H133506   3.628   0.780  11.763  0.2152  0.8563  0.6459
 4005TIP3    H233507   3.529   0.847  11.856 -0.6067 -0.8738  1.0671
 4006TIP3   OH233508   1.453   5.816   3.082 -0.3453  0.3343 -0.1021
 4006TIP3    H133509   1.432   5.890   3.138 -0.4352  0.8100 -0.7591
 4006TIP3    H233510   1.535   5.781   3.119  0.9407  2.1423 -1.1160
 4007TIP3   OH233511   6.779   4.522   3.604 -0.0424 -0.5289  0.3388
 4007TIP3    H133512   6.795   4.428   3.594  2.9877 -0.0454 -0.3143
 4007TIP3    H233513   6.778   4.556   3.515 -0.1738  0.2134  0.6133
 4008TIP3   OH233514   5.676   2.455   3.475  0.0249  0.1003 -0.4080
 4008TIP3    H133515   5.696   2.391   3.406  1.5469  0.2821 -0.1721
 4008TIP3    H233516   5.670   2.539   3.429  1.4508  0.2838 -0.2886
 4009TIP3   OH233517   6.731   4.514  16.474 -0.1364 -0.2380 -0.3576
 4009TIP3    H133518   6.735   4.609  16.462  1.2844 -0.0601  1.1619
 4009TIP3    H233519   6.796   4.495  16.542 -0.7586 -2.2457 -0.2412
 4010TIP3   OH233520   1.788   0.054   1.031  0.1719  0.1434 -0.2160
 4010TIP3    H133521   1.862  -0.007   1.026  0.0057 -0.0052 -1.1235
 4010TIP3    H233522   1.819   0.133   0.987 -0.3331 -0.0606 -0.9580
 4011TIP3   OH233523   3.384   6.826   0.843 -0.1302 -0.1005  0.6006
 4011TIP3    H133524   3.384   6.800   0.935 -1.9896  0.2228  0.7376
 4011TIP3    H233525   3.456   6.888   0.835  1.0308 -1.2841  1.4624
 4012TIP3   OH233526   5.155   6.621  13.070 -0.0351  0.0308  0.1669
 4012TIP3    H133527   5.198   6.561  13.131  0.2926 -1.0975 -1.1237
 4012TIP3    H233528   5.091   6.567  13.024  0.3253  0.6219 -1.0966
 4013TIP3   OH233529   5.155   5.037   4.533 -0.0343  0.0127  0.2282
 4013TIP3    H133530   5.141   4.986   4.453 -0.0147 -0.4180  0.4961
 4013TIP3    H233531   5.250   5.045   4.540  0.1460 -2.2505  1.6058
 4014TIP3   OH233532   0.714   5.168   4.475 -0.1604  0.5938 -0.3445
 4014TIP3    H133533   0.746   5.258   4.469  3.0307 -0.0570  3.2413
 4014TIP3    H233534   0.772   5.126   4.539 -1.3790 -4.1237 -1.9636
 4015TIP3   OH233535   5.737   0.043   0.787  0.2582  0.3498 -0.3136
 4015TIP3    H133536   5.717  -0.013   0.862  0.9554 -0.7657 -0.9242
 4015TIP3    H233537   5.660   0.099   0.777 -0.7972 -1.0340 -0.1597
 4016TIP3   OH233538   1.283   1.938   2.937  0.6056 -0.2025 -0.2389
 4016TIP3    H133539   1.372   1.937   2.971  1.2540 -1.7356 -1.7767
 4016TIP3    H233540   1.293   1.960   2.844 -0.6107 -0.3976 -0.4378
 4017TIP3   OH233541   1.457   3.791  16.990  0.5182 -0.3309 -0.1136
 4017TIP3    H133542   1.519   3.725  17.020  0.0294 -0.3465  0.8957
 4017TIP3    H233543   1.442   3.847  17.067  1.0343  1.0449 -0.9743
 4018TIP3   OH233544   3.055   6.749  14.316  0.0333 -0.5235 -0.4061
 4018TIP3    H133545   3.067   6.781  14.406 -2.7875 -1.9269  0.6010
 4018TIP3    H233546   3.106   6.668  14.312 -0.5276 -0.9193  0.2494
 4019TIP3   OH233547   2.065   0.534   2.814 -0.3626  0.0273 -0.0312
 4019TIP3    H133548   2.018   0.618   2.820  1.2412  1.0721 -1.1068
 4019TIP3    H233549   1.996   0.469   2.806 -1.6606  1.3192  0.1243
 4020TIP3   OH233550   2.000   5.075  15.443 -0.5649  0.7927 -0.0382
 4020TIP3    H133551   2.077   5.131  15.437  0.5611 -0.7978 -1.7796
 4020TIP3    H233552   1.931   5.126  15.400 -0.3964  2.0172  1.0638
 4021TIP3   OH233553   4.249   5.510  13.414 -0.2274  0.1237  0.2461
 4021TIP3    H133554   4.259   5.555  13.330 -0.4766 -1.7533 -0.8284
 4021TIP3    H233555   4.205   5.574  13.470  1.5817  2.0833 -0.4310
 4022TIP3   OH233556   5.516   1.911   0.959  0.2396  0.2460 -0.0624
 4022TIP3    H133557   5.505   2.005   0.945 -2.3151  0.2900  1.5509
 4022TIP3    H233558   5.446   1.871   0.908  1.2858 -0.7970 -0.7134
 4023TIP3   OH233559   2.288   1.601  11.839 -0.0909  0.2437 -0.4602
 4023TIP3    H133560   2.352   1.588  11.909 -1.2320 -0.9045  0.4377
 4023TIP3    H233561   2.322   1.674  11.788  1.6164  0.0494  0.3264
 4024TIP3   OH233562   0.400   0.048  16.226  0.1229  0.1494 -0.3339
 4024TIP3    H133563   0.473   0.019  16.281 -0.7809 -1.6042  0.0151
 4024TIP3    H233564   0.442   0.089  16.150  1.4200  1.2138  0.8868
 4025TIP3   OH233565   1.359   0.118  13.960  0.2197  0.2535 -0.0217
 4025TIP3    H133566   1.391   0.115  14.050  1.1732 -1.9685 -0.3581
 4025TIP3    H233567   1.303   0.195  13.957  1.1478  1.1006  2.1252
 4026TIP3   OH233568   3.858   1.349   4.808 -0.0755 -0.2113 -0.0963
 4026TIP3    H133569   3.891   1.431   4.844 -0.2346 -0.1781 -0.0228
 4026TIP3    H233570   3.893   1.345   4.719 -0.8338  0.3953 -0.4316
 4027TIP3   OH233571   4.908   0.093   2.028  0.1320 -0.0770 -0.3805
 4027TIP3    H133572   4.949   0.099   1.942 -1.8730 -2.1962 -1.6195
 4027TIP3    H233573   4.898   0.184   2.056 -1.0074  0.8554 -3.3725
 4028TIP3   OH233574   1.104   0.820   1.431 -0.3807 -0.4422  0.3494
 4028TIP3    H133575   1.059   0.850   1.510 -0.8372 -1.2842  0.4270
 4028TIP3    H233576   1.039   0.827   1.361  0.6329  2.2731 -0.4275
 4029TIP3   OH233577   4.196   0.460  11.103  0.1832  0.0486 -0.0712
 4029TIP3    H133578   4.234   0.470  11.190  1.2422 -0.8818 -0.4054
 4029TIP3    H233579   4.176   0.367  11.096  0.5595  0.0215 -0.9799
 4030TIP3   OH233580   5.382   3.305   5.730  0.2164  0.1428 -0.5917
 4030TIP3    H133581   5.434   3.225   5.731  0.3633  0.1618  2.8082
 4030TIP3    H233582   5.366   3.325   5.822 -2.3240  2.4367 -1.3945
 4031TIP3   OH233583   3.107   0.922   4.750  0.1531 -0.1139  0.2410
 4031TIP3    H133584   3.168   0.849   4.746 -0.7923 -0.9313  0.5611
 4031TIP3    H233585   3.021   0.882   4.759 -0.3154  1.0542  1.2117
 4032TIP3   OH233586   4.847   3.431  14.584 -0.1929 -0.1732 -0.1942
 4032TIP3    H133587   4.791   3.359  14.612 -0.1731  0.4175  1.4135
 4032TIP3    H233588   4.912   3.390  14.526  0.0120 -1.5011  0.9481
 4033TIP3   OH233589   0.938   2.754  16.305 -0.9173  0.1749  0.2918
 4033TIP3    H133590   0.935   2.767  16.210  2.2484  0.9339  0.1826
 4033TIP3    H233591   0.971   2.665  16.315 -1.1077  0.1478  0.6940
 4034TIP3   OH233592   1.145   0.670  13.053 -0.3381 -0.0904 -0.1390
 4034TIP3    H133593   1.124   0.582  13.020  2.5251  0.5023 -4.1715
 4034TIP3    H233594   1.073   0.724  13.023 -0.9030 -0.5991  0.2537
 4035TIP3   OH233595   0.443   6.553   3.498  0.1138 -0.3328  0.2630
 4035TIP3    H133596   0.515   6.597   3.543  0.8742 -0.0922 -1.1402
 4035TIP3    H233597   0.401   6.500   3.566  0.2844  1.1568  1.5814
 4036TIP3   OH233598   1.276   6.669  13.969 -0.0233  0.1159 -0.2712
 4036TIP3    H133599   1.323   6.752  13.963 -1.0553  0.6085 -2.2540
 4036TIP3    H233600   1.331   6.606  13.924 -0.2346  0.2020 -0.6500
 4037TIP3   OH233601   4.681   2.504  16.400  0.3152  0.0435  0.7339
 4037TIP3    H133602   4.588   2.515  16.383 -0.4179 -1.4376  3.2416
 4037TIP3    H233603   4.715   2.459  16.323 -0.6792  1.8433 -0.8537
 4038TIP3   OH233604   4.289   1.690  12.676 -0.5825  0.3596 -0.0190
 4038TIP3    H133605   4.228   1.681  12.750 -0.8200  1.4665 -0.0587
 4038TIP3    H233606   4.241   1.745  12.613 -0.1612 -0.1039 -0.7523
 4039TIP3   OH233607   2.426   0.936  12.481 -0.1492  0.7425  0.1041
 4039TIP3    H133608   2.370   0.881  12.426 -0.4992  2.8609 -1.8114
 4039TIP3    H233609   2.374   1.016  12.495  0.7080  1.0134  1.9539
 4040TIP3   OH233610   4.714   3.596  16.517 -0.0229  0.0505  0.1787
 4040TIP3    H133611   4.784   3.531  16.516 -0.1857 -0.3800 -4.3422
 4040TIP3    H233612   4.759   3.680  16.524  0.5106 -0.3311  1.7401
 4041TIP3   OH233613   4.020   5.788   1.276 -0.4010 -0.4804  0.5303
 4041TIP3    H133614   3.961   5.791   1.351 -1.2244  0.4919 -0.1199
 4041TIP3    H233615   4.020   5.877   1.242 -0.1582 -0.9230 -0.6887
 4042TIP3   OH233616   3.326   1.880   1.048 -0.6611 -0.1319  0.6879
 4042TIP3    H133617   3.264   1.843   0.986  0.6872 -0.4911 -0.4886
 4042TIP3    H233618   3.281   1.874   1.133 -1.6965 -1.6095  0.0844
 4043TIP3   OH233619   4.756   4.193  11.712 -0.2621  0.1580 -0.0688
 4043TIP3    H133620   4.680   4.221  11.661 -0.5045  2.6307  1.4473
 4043TIP3    H233621   4.719   4.137  11.781 -0.2433 -1.1936 -1.1166
 4044TIP3   OH233622   5.307   3.582  14.933 -0.1463  0.2732 -0.0551
 4044TIP3    H133623   5.227   3.634  14.945 -1.3606 -0.9343 -2.2816
 4044TIP3    H233624   5.290   3.529  14.855  0.9958 -3.4149  1.9307
 4045TIP3   OH233625   4.703   5.339   1.691  0.1261 -0.5438  0.0425
 4045TIP3    H133626   4.700   5.352   1.786  1.0003  1.9229 -0.1817
 4045TIP3    H233627   4.780   5.284   1.677 -0.2857 -1.3288  0.7701
 4046TIP3   OH233628   1.735   1.459   3.959  0.3816  0.2212  0.3573
 4046TIP3    H133629   1.648   1.495   3.977  0.6474  0.8954  0.3304
 4046TIP3    H233630   1.719   1.368   3.933 -0.2321  0.0164  1.3861
 4047TIP3   OH233631   4.163   4.308   2.914  0.1788 -0.5663  0.3128
 4047TIP3    H133632   4.180   4.339   2.825  0.4107  0.8541  0.8186
 4047TIP3    H233633   4.231   4.243   2.930  0.6854 -0.1883 -0.2432
 4048TIP3   OH233634   0.293   2.222  15.396  0.8967  0.0063  0.3424
 4048TIP3    H133635   0.245   2.141  15.413  0.6803  0.0070 -0.2263
 4048TIP3    H233636   0.239   2.268  15.331  1.3735  0.2793  0.1337
 4049TIP3   OH233637   4.108   4.722   0.754 -0.1592  0.1199 -0.7242
 4049TIP3    H133638   4.040   4.655   0.765 -1.1927  1.0430 -1.2987
 4049TIP3    H233639   4.060   4.805   0.757  1.1735  0.8882  0.6980
 4050TIP3   OH233640   2.808   3.899   4.166  0.7211  0.0224 -0.5141
 4050TIP3    H133641   2.811   3.807   4.137  0.5348  0.2637 -1.3233
 4050TIP3    H233642   2.873   3.904   4.235  0.5574 -0.7855 -0.2863
 4051TIP3   OH233643   1.581   0.813   4.636 -0.4130  0.0558 -0.2517
 4051TIP3    H133644   1.661   0.863   4.650 -0.7448  0.3610  0.5638
 4051TIP3    H233645   1.514   0.879   4.617 -0.8103 -0.0740  0.6433
 4052TIP3   OH233646   1.888   3.032   1.891 -0.0668  0.5500  0.1873
 4052TIP3    H133647   1.901   3.115   1.844 -0.0626  1.4289  1.6788
 4052TIP3    H233648   1.902   3.054   1.983 -0.8662 -0.9423  0.6979
 4053TIP3   OH233649   2.907   3.895  17.091  0.1109  0.1970 -0.4818
 4053TIP3    H133650   2.850   3.819  17.092  1.5421 -0.9247 -0.8768
 4053TIP3    H233651   2.947   3.895  17.004  0.9956  0.7238 -0.0993
 4054TIP3   OH233652   5.802   6.367   2.337 -0.0011  0.5454 -0.2414
 4054TIP3    H133653   5.822   6.443   2.393 -0.1846  1.2561 -1.1160
 4054TIP3    H233654   5.709   6.378   2.316 -0.5171 -0.9087  1.0670
 4055TIP3   OH233655   3.546   6.541   2.249  0.5324  0.1695 -0.4421
 4055TIP3    H133656   3.462   6.539   2.202  0.2113 -0.4247  0.1476
 4055TIP3    H233657   3.531   6.600   2.322  0.7539  0.3666 -0.5532
 4056TIP3   OH233658   0.984   0.849   4.598  0.2674  0.8887 -0.0770
 4056TIP3    H133659   1.060   0.792   4.584  1.5834  2.2902  1.1268
 4056TIP3    H233660   0.909   0.788   4.597  1.4563 -0.6447 -0.3974
 4057TIP3   OH233661   0.918   4.370   3.080  0.5530  0.2672  0.0235
 4057TIP3    H133662   0.938   4.400   2.991  0.6887  0.1437  0.0115
 4057TIP3    H233663   1.002   4.338   3.113  0.4048 -0.1257  0.0257
 4058TIP3   OH233664   6.390   4.160   2.127  0.0036 -0.4920  0.2862
 4058TIP3    H133665   6.485   4.168   2.131 -0.1823  1.8062  1.6872
 4058TIP3    H233666   6.367   4.186   2.038  0.6828 -1.5512 -0.2197
 4059TIP3   OH233667   6.718   4.240  12.646  0.2234  0.2642 -0.0246
 4059TIP3    H133668   6.812   4.252  12.659  0.3155 -1.8825  1.7797
 4059TIP3    H233669   6.677   4.274  12.725 -0.3606 -0.4553 -0.0004
 4060TIP3   OH233670   2.317   5.772   0.806 -0.1465  0.3128 -0.1052
 4060TIP3    H133671   2.316   5.868   0.801  0.7093  0.4107  0.9806
 4060TIP3    H233672   2.337   5.754   0.898  1.8793 -0.8755 -0.7191
 4061TIP3   OH233673   1.847   6.763  15.666 -0.2350  0.0262 -0.5757
 4061TIP3    H133674   1.884   6.737  15.750  0.8826  1.1690 -0.6805
 4061TIP3    H233675   1.883   6.700  15.603 -0.6164 -0.4848 -0.2866
 4062TIP3   OH233676   1.863   5.625  12.666  0.5242  0.3749 -0.5307
 4062TIP3    H133677   1.894   5.537  12.686 -1.3473  0.0766  1.4430
 4062TIP3    H233678   1.907   5.681  12.730 -0.1503  0.4842 -0.1525
 4063TIP3   OH233679   3.112   6.636  11.336 -0.0875  0.5600 -0.1872
 4063TIP3    H133680   3.125   6.590  11.253 -4.5109 -1.1518 -0.1749
 4063TIP3    H233681   3.065   6.716  11.312  0.6137  1.2034  0.5173
 4064TIP3   OH233682   2.825   3.674  13.547  0.2613  0.4200  0.6388
 4064TIP3    H133683   2.755   3.685  13.611 -0.3105  0.9226 -0.0644
 4064TIP3    H233684   2.784   3.691  13.463  1.0861  0.1012  0.1621
 4065TIP3   OH233685   6.577   5.209   0.701  0.0690  0.3148 -0.1930
 4065TIP3    H133686   6.639   5.146   0.664  0.2302  0.4889 -0.2162
 4065TIP3    H233687   6.630   5.266   0.756 -0.2806 -0.4307  0.9533
 4066TIP3   OH233688   1.849   5.760  14.533  0.1472  0.0626 -0.0027
 4066TIP3    H133689   1.907   5.836  14.524 -1.4646  1.2260 -1.1645
 4066TIP3    H233690   1.792   5.783  14.607  0.4682 -0.6199  0.4712
 4067TIP3   OH233691   2.958   2.802  14.887  0.0315  0.4872 -0.3215
 4067TIP3    H133692   2.906   2.729  14.852  2.2523 -0.3675 -2.0717
 4067TIP3    H233693   3.048   2.773  14.877  0.9256  2.7814  0.6386
 4068TIP3   OH233694   5.263   6.271   0.524 -0.4542  0.5368  0.0582
 4068TIP3    H133695   5.272   6.197   0.465  2.9707 -0.0454  1.0571
 4068TIP3    H233696   5.317   6.340   0.485  0.3792  0.7610  1.5164
 4069TIP3   OH233697   5.200   0.815  14.690  0.2635 -0.3706  0.0988
 4069TIP3    H133698   5.288   0.806  14.653  0.7634 -0.0013  1.1519
 4069TIP3    H233699   5.209   0.881  14.759 -0.2511 -2.0827  1.9294
 4070TIP3   OH233700   2.165   0.741   4.713  0.1637  0.8735  0.0073
 4070TIP3    H133701   2.150   0.782   4.798  2.0385  0.8297  0.4165
 4070TIP3    H233702   2.184   0.649   4.734  0.7524  0.8856 -0.4447
 4071TIP3   OH233703   2.722   4.370  16.873 -0.2972 -0.0088  0.0482
 4071TIP3    H133704   2.750   4.392  16.962  3.3323  3.4571 -1.6421
 4071TIP3    H233705   2.684   4.452  16.839 -0.0793 -0.7410 -2.0947
 4072TIP3   OH233706   5.702   4.090   2.731  0.0409  0.0472  0.0487
 4072TIP3    H133707   5.679   4.112   2.641  1.3700  0.8014 -0.1435
 4072TIP3    H233708   5.627   4.119   2.783 -0.4635  0.2004 -0.7533
 4073TIP3   OH233709   0.835   2.972   3.063 -0.1684  0.4830  0.2178
 4073TIP3    H133710   0.894   2.987   3.137 -0.9268 -2.3963  1.5490
 4073TIP3    H233711   0.889   2.927   2.998 -0.1549  0.6427  0.1169
 4074TIP3   OH233712   3.225   4.164   3.159  0.9177  0.6747  0.0527
 4074TIP3    H133713   3.239   4.184   3.251 -1.2472  2.0944  0.1512
 4074TIP3    H233714   3.140   4.119   3.157  1.8194 -1.0918 -1.0877
 4075TIP3   OH233715   5.715   0.827  15.467 -0.4500  0.7285  0.1771
 4075TIP3    H133716   5.797   0.792  15.432 -1.1462 -0.5526 -0.2035
 4075TIP3    H233717   5.681   0.883  15.397  0.1740  1.4238  0.4099
 4076TIP3   OH233718   3.346   5.330  14.756  0.0038  0.3137  0.1534
 4076TIP3    H133719   3.359   5.235  14.754 -1.3162  0.1199 -1.7124
 4076TIP3    H233720   3.251   5.341  14.765  0.0618  1.4351 -0.4344
 4077TIP3   OH233721   3.422   3.480  15.733  0.1766  0.2191  0.2507
 4077TIP3    H133722   3.331   3.489  15.704 -0.0677 -0.1271  0.8978
 4077TIP3    H233723   3.454   3.570  15.739  0.0008  0.3298 -0.3378
 4078TIP3   OH233724   5.005   5.709  11.425  0.6012 -0.0092  0.0418
 4078TIP3    H133725   5.084   5.690  11.475  1.2373  0.3792 -0.7855
 4078TIP3    H233726   5.027   5.683  11.335  0.2717  1.3402 -0.4546
 4079TIP3   OH233727   3.680   3.462  11.604  0.3797  0.2520  0.4560
 4079TIP3    H133728   3.617   3.531  11.628 -0.0249  0.2615 -0.5787
 4079TIP3    H233729   3.634   3.380  11.624 -0.0498  0.2560 -0.4862
 4080TIP3   OH233730   1.166   0.769  11.989 -0.3175  0.1050  0.4167
 4080TIP3    H133731   1.249   0.784  12.035 -0.0994 -1.0705  0.4341
 4080TIP3    H233732   1.149   0.675  11.999 -2.3123  0.5230  1.5126
 4081TIP3   OH233733   0.120   6.687  13.493  0.3490  0.1912  0.0169
 4081TIP3    H133734   0.212   6.662  13.484  0.4245  0.2966  0.4751
 4081TIP3    H233735   0.075   6.638  13.424  0.3184 -2.1042  1.5546
 4082TIP3   OH233736   5.942   0.767   6.160  0.1293 -0.3006  0.0188
 4082TIP3    H133737   6.028   0.794   6.191 -0.2524 -0.7185  1.4883
 4082TIP3    H233738   5.960   0.721   6.078  1.3409 -0.7130  0.4981
 4083TIP3   OH233739   3.574   5.838  13.679 -0.0040  0.6623 -0.7572
 4083TIP3    H133740   3.529   5.894  13.743  2.1732  2.8085 -0.9400
 4083TIP3    H233741   3.614   5.769  13.731  1.2607  2.0632  0.2444
 4084TIP3   OH233742   1.626   4.206   0.101  0.0369  0.5653 -0.0607
 4084TIP3    H133743   1.613   4.263   0.025 -1.1681  1.6084  0.8690
 4084TIP3    H233744   1.578   4.126   0.079  0.8502  0.2932 -0.9380
 4085TIP3   OH233745   3.769   5.405   3.893  0.3452  0.4213  0.1192
 4085TIP3    H133746   3.845   5.458   3.916  0.8184 -0.7458  1.3556
 4085TIP3    H233747   3.716   5.403   3.973 -0.3936  0.2292 -0.3602
 4086TIP3   OH233748   3.749   4.190  12.603  0.4503 -0.0360 -0.0997
 4086TIP3    H133749   3.833   4.144  12.598  0.0062 -0.7786 -1.4577
 4086TIP3    H233750   3.772   4.282  12.617  1.4503 -0.3591  0.4431
 4087TIP3   OH233751   1.189   6.027  13.244 -0.2707 -0.0057 -0.5869
 4087TIP3    H133752   1.120   6.033  13.309 -0.1622  0.1638 -0.4887
 4087TIP3    H233753   1.193   5.934  13.222  1.3227 -0.4983  1.4214
 4088TIP3   OH233754   3.091   3.586  16.807  0.2718  0.2771 -0.3279
 4088TIP3    H133755   3.165   3.545  16.852  0.6387  0.6396 -0.5897
 4088TIP3    H233756   3.127   3.614  16.723 -0.2930  0.0098 -0.6667
 4089TIP3   OH233757   1.552   5.752  15.679 -0.3172  0.3853 -0.3862
 4089TIP3    H133758   1.613   5.680  15.689 -0.8033 -0.1677 -1.2594
 4089TIP3    H233759   1.568   5.786  15.591 -0.3822  1.0727 -0.1452
 4090TIP3   OH233760   4.772   5.701   3.252  0.6871  0.2043 -0.6442
 4090TIP3    H133761   4.756   5.763   3.324  2.1025  1.2543 -1.1851
 4090TIP3    H233762   4.800   5.621   3.295  1.3386  0.7622 -0.0070
 4091TIP3   OH233763   6.210   2.594   3.691 -0.7075 -0.1174 -0.1500
 4091TIP3    H133764   6.119   2.584   3.660 -0.6357 -0.0909 -0.3699
 4091TIP3    H233765   6.215   2.536   3.767 -0.7928 -0.4294 -0.3799
 4092TIP3   OH233766   5.436   1.908   6.288  0.2112 -0.2666 -0.0070
 4092TIP3    H133767   5.371   1.962   6.332 -0.3904 -1.0094  0.0507
 4092TIP3    H233768   5.510   1.906   6.348 -0.1314 -0.2724  0.4213
 4093TIP3   OH233769   4.014   5.632  12.090 -0.6364 -0.1431 -0.0442
 4093TIP3    H133770   4.068   5.622  12.011 -0.3781 -1.8549  0.3150
 4093TIP3    H233771   3.925   5.613  12.060 -0.7615  0.6772 -0.2153
 4094TIP3   OH233772   5.191   1.908   4.401 -0.2288  0.1676  0.0892
 4094TIP3    H133773   5.173   1.986   4.349  1.0098  2.6658  3.0472
 4094TIP3    H233774   5.134   1.918   4.478 -0.4726 -2.1993  0.2707
 4095TIP3   OH233775   5.760   1.444  16.913  0.0066  0.2712  0.0504
 4095TIP3    H133776   5.688   1.480  16.964 -0.5550  0.8722 -1.1260
 4095TIP3    H233777   5.838   1.466  16.964 -0.5077  1.1167  0.4997
 4096TIP3   OH233778   2.172   1.573   4.848 -0.1908 -0.3986  0.4744
 4096TIP3    H133779   2.196   1.514   4.775 -2.1167  1.8315 -2.1748
 4096TIP3    H233780   2.249   1.628   4.860 -0.4659  0.4863 -1.3587
 4097TIP3   OH233781   4.661   4.929  11.354 -0.3020  0.1879  0.1450
 4097TIP3    H133782   4.710   4.933  11.272  0.0689 -0.1843  0.3463
 4097TIP3    H233783   4.577   4.970  11.334  0.2765  1.3162 -0.0715
 4098TIP3   OH233784   3.986   0.673   6.286  0.0253  0.0066 -0.0982
 4098TIP3    H133785   4.025   0.644   6.369 -0.7054  0.2121  0.3246
 4098TIP3    H233786   4.018   0.762   6.275 -0.1650  0.1091  0.1551
 4099TIP3   OH233787   4.302   2.610  16.117  0.5086 -0.1398  0.2836
 4099TIP3    H133788   4.356   2.689  16.116 -0.3954  0.5006  0.3122
 4099TIP3    H233789   4.333   2.561  16.193 -0.2823  1.1908  1.5220
 4100TIP3   OH233790   4.353   6.403   5.855 -0.1670  0.1967 -0.2723
 4100TIP3    H133791   4.401   6.326   5.825 -0.7367 -2.0680  3.8548
 4100TIP3    H233792   4.421   6.468   5.873  0.5623 -0.1792 -1.5223
 4101TIP3   OH233793   0.897   6.403   3.560  0.6103  0.0359  0.1135
 4101TIP3    H133794   0.809   6.417   3.594  0.8734 -0.7557  1.1469
 4101TIP3    H233795   0.926   6.320   3.599  1.1863 -0.5681 -1.5173
 4102TIP3   OH233796   6.739   1.336   0.218 -0.1738 -0.2767  0.1341
 4102TIP3    H133797   6.795   1.373   0.287 -1.9863  3.0722  0.0412
 4102TIP3    H233798   6.653   1.330   0.258 -0.5786 -1.5936 -0.8725
 4103TIP3   OH233799   1.844   1.985  13.052  0.5463 -0.0229  0.0596
 4103TIP3    H133800   1.909   1.916  13.064  0.6788  0.2845  1.2922
 4103TIP3    H233801   1.894   2.066  13.054  0.4041  0.1183 -1.4886
 4104TIP3   OH233802   0.412   3.013   3.541 -0.4044 -0.8623 -0.1114
 4104TIP3    H133803   0.465   2.982   3.468 -0.3909  2.3379 -1.6112
 4104TIP3    H233804   0.474   3.029   3.611  0.2073 -0.1724 -0.7923
 4105TIP3   OH233805   1.502   0.261  17.157  0.1623 -0.3153 -0.2543
 4105TIP3    H133806   1.465   0.203  17.091 -0.2989  0.6857 -0.8969
 4105TIP3    H233807   1.595   0.241  17.158 -0.0657 -1.4253 -0.0822
 4106TIP3   OH233808   6.426   4.520  11.293  0.3298  0.1639  0.0877
 4106TIP3    H133809   6.495   4.579  11.323  0.9936 -1.0168  0.9734
 4106TIP3    H233810   6.466   4.473  11.219 -0.3344  1.0733 -0.8805
 4107TIP3   OH233811   1.126   2.873   1.584 -0.1008  0.3479 -0.2742
 4107TIP3    H133812   1.070   2.903   1.656  0.1570  1.0006 -0.3418
 4107TIP3    H233813   1.214   2.868   1.622  0.1625  1.3706 -0.7110
 4108TIP3   OH233814   4.503   3.154  13.240  0.5079  0.5855  0.0113
 4108TIP3    H133815   4.436   3.093  13.207 -1.0811  1.6523  1.1283
 4108TIP3    H233816   4.582   3.130  13.192 -0.5816 -0.9463 -1.1367
 4109TIP3   OH233817   2.409   1.780   5.887  0.2634  0.3720  0.1929
 4109TIP3    H133818   2.496   1.787   5.927 -1.0283  0.8635  3.1907
 4109TIP3    H233819   2.402   1.687   5.863  2.1697  0.6346 -1.6682
 4110TIP3   OH233820   6.117   5.733  16.904  0.2335 -0.0647 -0.5578
 4110TIP3    H133821   6.176   5.787  16.956 -1.0315 -0.9847  1.9522
 4110TIP3    H233822   6.142   5.643  16.923 -1.1830 -0.4471 -0.4111
 4111TIP3   OH233823   1.052   4.362  10.750  0.1802  0.2224  0.5989
 4111TIP3    H133824   1.146   4.359  10.733 -0.3303  1.6000 -3.7789
 4111TIP3    H233825   1.030   4.274  10.781  2.6232 -0.7111 -0.1044
 4112TIP3   OH233826   2.621   6.098  13.834  0.0438  0.2197  0.3220
 4112TIP3    H133827   2.606   6.106  13.928 -0.2496 -1.6244  0.4636
 4112TIP3    H233828   2.715   6.086  13.825  0.0372  0.1010  0.4096
 4113TIP3   OH233829   5.088   1.125   3.002 -0.3754  0.0092  0.0998
 4113TIP3    H133830   5.031   1.156   2.932  0.2200  1.5726  0.2662
 4113TIP3    H233831   5.112   1.203   3.051  1.3508 -0.6737  0.4578
 4114TIP3   OH233832   0.839   6.016  11.214 -0.3129 -0.2470  0.2715
 4114TIP3    H133833   0.765   6.040  11.159  1.8284 -0.3995 -2.9049
 4114TIP3    H233834   0.874   5.935  11.175  1.2167 -0.4992  1.9924
 4115TIP3   OH233835   0.482   0.295   0.393 -0.2771  0.2072  0.7268
 4115TIP3    H133836   0.522   0.330   0.314 -1.3247  2.4644  1.1324
 4115TIP3    H233837   0.555   0.260   0.444  0.5893  0.1444 -0.5221
 4116TIP3   OH233838   5.650   3.174   3.842  0.0743 -0.2738 -0.3275
 4116TIP3    H133839   5.611   3.244   3.893 -0.9952 -0.3323 -1.0421
 4116TIP3    H233840   5.592   3.099   3.854  1.3453 -1.1541  0.6501
 4117TIP3   OH233841   0.494   1.601  12.562 -0.3184 -0.0023 -0.0589
 4117TIP3    H133842   0.556   1.613  12.490  0.8427  0.0833  0.9330
 4117TIP3    H233843   0.415   1.646  12.533 -0.2528 -0.8675 -1.7344
 4118TIP3   OH233844   0.379   2.051   2.835 -0.4035  0.0080 -0.1593
 4118TIP3    H133845   0.342   2.081   2.919  0.1974 -0.7472  0.3889
 4118TIP3    H233846   0.341   2.110   2.770 -0.0875  1.2833  0.7627
 4119TIP3   OH233847   4.674   3.104  15.648 -0.1982 -0.0916  0.1738
 4119TIP3    H133848   4.609   3.169  15.621 -0.2263  0.2232  0.9806
 4119TIP3    H233849   4.721   3.146  15.720  1.8443  0.2457 -1.2831
 4120TIP3   OH233850   4.836   4.597  14.312  0.3475 -0.1446 -0.1760
 4120TIP3    H133851   4.800   4.530  14.370 -0.9709  1.8705  1.4669
 4120TIP3    H233852   4.766   4.613  14.248  0.1638  0.4778  0.1710
 4121TIP3   OH233853   4.057   0.077   1.261  0.4685 -0.3795  0.1047
 4121TIP3    H133854   3.965   0.105   1.269  0.5687  0.8229 -2.0077
 4121TIP3    H233855   4.099   0.108   1.341 -0.5812  0.8492  0.2115
 4122TIP3   OH233856   4.841   0.964  16.228  0.3613  0.2173  0.7766
 4122TIP3    H133857   4.777   0.896  16.211 -0.1744  0.3026  2.2715
 4122TIP3    H233858   4.807   1.041  16.183 -0.2783  0.0939  1.0341
 4123TIP3   OH233859   5.237   5.723   1.900  0.4853 -0.0205  0.0871
 4123TIP3    H133860   5.254   5.707   1.808  1.6778  0.7106  0.1568
 4123TIP3    H233861   5.148   5.691   1.914  0.2284 -0.0005 -1.3427
 4124TIP3   OH233862   0.854   0.913   5.357  0.0032 -0.3215  0.9065
 4124TIP3    H133863   0.761   0.906   5.379  0.1158 -0.9910  1.2022
 4124TIP3    H233864   0.886   0.822   5.361  0.4850 -0.1947  0.0054
 4125TIP3   OH233865   4.839   4.230  13.510  0.2940  0.3089  0.3154
 4125TIP3    H133866   4.785   4.228  13.431 -0.7981 -2.0472  1.0198
 4125TIP3    H233867   4.929   4.234  13.478 -0.1820  2.4308 -0.9419
 4126TIP3   OH233868   4.508   5.004   2.216 -0.7913  0.4422  0.3955
 4126TIP3    H133869   4.447   4.931   2.214 -0.2478 -0.0042 -1.5788
 4126TIP3    H233870   4.563   4.993   2.138  2.2992  0.4120  2.3794
 4127TIP3   OH233871   3.172   3.142   2.044  0.4147  0.2957  0.1767
 4127TIP3    H133872   3.181   3.196   2.123  2.6514 -1.1496  1.0006
 4127TIP3    H233873   3.094   3.089   2.060 -1.0799  2.2806 -0.0958
 4128TIP3   OH233874   6.720   5.105  16.255 -0.2077  0.2191  0.3753
 4128TIP3    H133875   6.760   5.162  16.190 -0.8830  1.5583  1.0708
 4128TIP3    H233876   6.793   5.058  16.295  0.5213  1.4740  0.5713
 4129TIP3   OH233877   2.409   1.523   5.817  0.4356  0.1037  0.1229
 4129TIP3    H133878   2.452   1.457   5.871  0.5342 -0.4882 -0.6550
 4129TIP3    H233879   2.447   1.511   5.730 -0.2439  0.5537 -0.2435
 4130TIP3   OH233880   4.530   0.595  11.321 -0.8474  0.3045  0.6913
 4130TIP3    H133881   4.535   0.619  11.229  3.6963  1.9085  1.0994
 4130TIP3    H233882   4.510   0.677  11.366  0.3019  0.2765  1.2840
 4131TIP3   OH233883   3.736   2.441   1.703  0.3765  0.5689  0.4730
 4131TIP3    H133884   3.776   2.494   1.634 -1.1450  0.1092 -0.8343
 4131TIP3    H233885   3.770   2.477   1.784  2.1282  1.2288 -0.4999
 4132TIP3   OH233886   5.732   0.948   6.079 -0.1277 -0.3224 -0.1219
 4132TIP3    H133887   5.661   0.912   6.132 -0.4115 -1.6883 -1.3765
 4132TIP3    H233888   5.803   0.885   6.086  0.0576 -0.2082 -0.8246
 4133TIP3   OH233889   4.012   2.165   1.732  0.3911 -0.2066 -0.3287
 4133TIP3    H133890   4.032   2.157   1.826 -0.4123 -0.4669 -0.1697
 4133TIP3    H233891   4.024   2.257   1.712  0.4869 -0.1355  0.0549
 4134TIP3   OH233892   0.716   5.623  12.363 -0.6015  0.4732  0.1625
 4134TIP3    H133893   0.646   5.607  12.300 -0.1284 -1.5400  0.0779
 4134TIP3    H233894   0.710   5.550  12.424  1.5093  0.1599  0.0761
 4135TIP3   OH233895   5.641   3.520   6.458 -0.4274  0.0499 -0.4494
 4135TIP3    H133896   5.731   3.546   6.477 -1.3598  2.0574  1.6109
 4135TIP3    H233897   5.605   3.493   6.543 -2.1734  0.6888 -0.9398
 4136TIP3   OH233898   3.423   2.105   1.445  0.7745 -0.1542  0.0456
 4136TIP3    H133899   3.460   2.149   1.521  2.9069  0.8758 -1.4676
 4136TIP3    H233900   3.478   2.027   1.433 -1.3732 -1.9533  1.1899
 4137TIP3   OH233901   1.298   6.714  16.161  0.6277  0.0446  0.3410
 4137TIP3    H133902   1.354   6.691  16.235  0.6525 -1.4437 -0.1116
 4137TIP3    H233903   1.347   6.783  16.115 -1.0511  3.8766  3.7010
 4138TIP3   OH233904   4.519   2.944  12.915 -0.1314 -0.0414 -0.7426
 4138TIP3    H133905   4.545   2.855  12.941 -1.3599  0.3185  2.0115
 4138TIP3    H233906   4.433   2.933  12.875 -0.3636 -0.0783 -0.2363
 4139TIP3   OH233907   6.540   6.486   0.802  0.1582  0.6713 -0.0701
 4139TIP3    H133908   6.628   6.476   0.839  0.5690  1.2563 -0.8660
 4139TIP3    H233909   6.485   6.502   0.879  0.7714  0.5029  0.4237
 4140TIP3   OH233910   4.262   1.738  12.240  0.1875 -0.7400 -0.1977
 4140TIP3    H133911   4.346   1.697  12.262 -0.0535 -0.7378  0.7803
 4140TIP3    H233912   4.285   1.813  12.186  1.0518  0.8080  2.1774
 4141TIP3   OH233913   5.056   4.194   3.816  0.4695 -0.0477 -0.2006
 4141TIP3    H133914   5.098   4.121   3.770 -0.7957 -0.9232 -0.0108
 4141TIP3    H233915   5.040   4.161   3.904  3.6458  1.9054  1.2638
 4142TIP3   OH233916   6.159   2.852  15.140  0.4783 -0.7355 -0.2030
 4142TIP3    H133917   6.223   2.923  15.148  0.1877 -0.1372 -2.6423
 4142TIP3    H233918   6.074   2.894  15.153  0.4310 -1.3521  1.9857
 4143TIP3   OH233919   4.314   2.483  11.275  0.1011  0.8377 -0.0849
 4143TIP3    H133920   4.319   2.482  11.179 -0.8854  2.1291 -0.1889
 4143TIP3    H233921   4.397   2.521  11.303 -0.5441  2.7343 -0.5915
 4144TIP3   OH233922   4.278   2.210   6.747 -0.0947 -0.4111  0.2973
 4144TIP3    H133923   4.281   2.306   6.749 -0.7401 -0.3877  1.7850
 4144TIP3    H233924   4.185   2.189   6.754  0.0332 -1.1527 -0.2071
 4145TIP3   OH233925   1.493   4.571   4.326 -0.2962  0.1947 -0.1843
 4145TIP3    H133926   1.551   4.497   4.306  0.4777  0.9066 -0.6115
 4145TIP3    H233927   1.510   4.634   4.257 -1.5935  0.4239 -0.3152
 4146TIP3   OH233928   5.782   3.263  13.154 -0.0813 -0.2919  0.1973
 4146TIP3    H133929   5.703   3.313  13.131  1.8531  1.3654 -3.9371
 4146TIP3    H233930   5.767   3.176  13.116 -0.9212 -0.9416  1.8965
 4147TIP3   OH233931   1.069   0.753   0.171 -0.0906 -0.0856  0.5474
 4147TIP3    H133932   0.986   0.778   0.212  1.0869 -1.5679  4.2638
 4147TIP3    H233933   1.129   0.824   0.193  0.3095 -0.3741  0.4002
 4148TIP3   OH233934   3.984   5.783   3.577  0.2100  0.6517  0.4340
 4148TIP3    H133935   3.952   5.703   3.618 -0.3971  0.7903  0.2406
 4148TIP3    H233936   4.071   5.761   3.545 -0.1187 -0.0483  0.0256
 4149TIP3   OH233937   4.154   6.179  10.715 -0.7305  0.0957  0.4504
 4149TIP3    H133938   4.089   6.189  10.785 -2.3580 -0.0136 -0.9910
 4149TIP3    H233939   4.104   6.185  10.634  1.0094 -0.4379 -0.7293
 4150TIP3   OH233940   1.223   5.056   1.545 -0.1628 -0.5307 -0.4403
 4150TIP3    H133941   1.181   4.976   1.576  0.4382  0.4764  3.6084
 4150TIP3    H233942   1.311   5.029   1.519 -0.4495 -1.3927 -0.5512
 4151TIP3   OH233943   0.383   3.631   1.240 -0.7905 -0.4472  0.3630
 4151TIP3    H133944   0.456   3.692   1.231 -0.2479 -1.0443  0.6468
 4151TIP3    H233945   0.320   3.658   1.173 -0.0030 -0.3634 -0.3473
 4152TIP3   OH233946   1.638   5.102  16.456 -0.0528  0.5572 -0.6158
 4152TIP3    H133947   1.701   5.125  16.388  1.4605  0.3582  0.6544
 4152TIP3    H233948   1.646   5.172  16.521 -1.4577  0.7430 -0.6185
 4153TIP3   OH233949   5.916   6.566   1.239 -0.2550  0.1045  0.1617
 4153TIP3    H133950   5.830   6.592   1.272 -0.3615  0.5587 -0.4364
 4153TIP3    H233951   5.952   6.646   1.200 -0.0200 -0.3247 -0.5381
 4154TIP3   OH233952   5.750   5.526   0.671  0.1714  0.1666  0.5694
 4154TIP3    H133953   5.789   5.551   0.587 -1.0163  1.6455  0.4062
 4154TIP3    H233954   5.775   5.596   0.731 -0.8899  0.3300  0.8441
 4155TIP3   OH233955   3.631   2.249   1.107  0.1132  0.0270 -0.3176
 4155TIP3    H133956   3.710   2.211   1.144  0.4860  2.0591  1.0864
 4155TIP3    H233957   3.578   2.274   1.183 -0.6749  1.0979 -1.1854
 4156TIP3   OH233958   3.281   1.990  11.911  0.3739 -0.5255  0.2479
 4156TIP3    H133959   3.291   1.947  11.826 -2.6478 -1.3228  0.1683
 4156TIP3    H233960   3.265   2.082  11.890  0.2761 -0.6010 -0.0105
 4157TIP3   OH233961   0.885   1.438   5.948 -0.0957 -0.2370 -0.5245
 4157TIP3    H133962   0.792   1.445   5.969 -0.0791  1.0424 -0.7938
 4157TIP3    H233963   0.924   1.397   6.025 -0.6003  0.9754  0.4123
 4158TIP3   OH233964   2.783   6.510  11.147  0.6922 -0.1064 -0.0062
 4158TIP3    H133965   2.780   6.496  11.053  0.6881  0.4122 -0.0863
 4158TIP3    H233966   2.774   6.604  11.158  0.2929 -0.1975  0.5322
 4159TIP3   OH233967   2.451   1.095   3.657  0.1708 -0.2178  0.0696
 4159TIP3    H133968   2.371   1.147   3.652  0.8297  0.7863 -0.2533
 4159TIP3    H233969   2.493   1.123   3.738  2.0573  2.1097 -1.5479
 4160TIP3   OH233970   4.182   0.357  11.974  0.7322  1.2375 -0.0565
 4160TIP3    H133971   4.262   0.308  11.958  0.2813  1.2161 -2.6052
 4160TIP3    H233972   4.171   0.412  11.896 -0.6212  2.8319  1.1733
 4161TIP3   OH233973   0.401   2.739   2.649 -0.1683  0.2215  0.1428
 4161TIP3    H133974   0.372   2.804   2.712  1.3710  0.3173  0.7897
 4161TIP3    H233975   0.486   2.772   2.617 -0.1313 -0.6553 -0.7254
 4162TIP3   OH233976   2.825   0.520  14.759 -0.1785  0.1069  0.0274
 4162TIP3    H133977   2.760   0.590  14.751 -1.3505 -0.5622  2.4688
 4162TIP3    H233978   2.895   0.558  14.813  0.5808  0.2520 -1.0398
 4163TIP3   OH233979   4.286   5.047   3.034 -0.0314  0.4360  0.0576
 4163TIP3    H133980   4.201   5.026   2.996 -0.0746  1.8526 -0.7134
 4163TIP3    H233981   4.319   4.964   3.067 -0.2810 -0.8106 -2.5709
 4164TIP3   OH233982   6.266   4.454  16.593 -0.0060  0.2724  0.2857
 4164TIP3    H133983   6.313   4.529  16.555 -2.3841  2.6972  1.7814
 4164TIP3    H233984   6.307   4.441  16.678  1.0230 -0.7985 -0.3550
 4165TIP3   OH233985   4.603   1.042   6.329 -0.2489  0.1752  0.4194
 4165TIP3    H133986   4.683   0.990   6.325 -0.5722 -0.4655  1.7342
 4165TIP3    H233987   4.615   1.099   6.405 -0.2618  1.4382 -0.4949
 4166TIP3   OH233988   4.506   1.840   2.813  0.0411  0.0766  0.3273
 4166TIP3    H133989   4.480   1.797   2.894  0.5464 -2.4480 -0.7473
 4166TIP3    H233990   4.500   1.771   2.747  0.7694  1.7484 -1.5716
 4167TIP3   OH233991   1.023   2.188  12.102 -0.4554  0.1433 -0.0744
 4167TIP3    H133992   0.965   2.193  12.178 -0.1041  1.5782  0.1178
 4167TIP3    H233993   0.972   2.225  12.030  0.0655  1.0513  0.0110
 4168TIP3   OH233994   6.761   2.990  14.913  0.8129  0.8517 -0.3611
 4168TIP3    H133995   6.794   3.078  14.930 -1.7542  2.5138 -3.0431
 4168TIP3    H233996   6.666   2.999  14.912  0.4787 -1.6849 -1.9622
 4169TIP3   OH233997   0.007   4.161  17.130  0.0330  0.3945  0.1351
 4169TIP3    H133998  -0.073   4.119  17.099 -0.2031  2.2957 -2.1510
 4169TIP3    H233999   0.069   4.151  17.059  1.4430  0.0737  1.3575
 4170TIP3   OH234000   5.319   3.275  12.888 -0.1815 -0.1653  0.5170
 4170TIP3    H134001   5.283   3.216  12.822  1.5078  0.7691 -1.3605
 4170TIP3    H234002   5.263   3.352  12.884  0.9133  0.6067 -1.1913
 4171TIP3   OH234003   5.943   6.624  15.047 -0.1199 -0.1428 -0.4372
 4171TIP3    H134004   5.989   6.549  15.086  1.0483 -0.4684 -2.2736
 4171TIP3    H234005   5.855   6.591  15.030  0.1966 -0.9120 -0.6510
 4172TIP3   OH234006   6.040   1.885  14.265  0.3651  0.2332 -0.4168
 4172TIP3    H134007   6.045   1.844  14.351  1.3983  0.0682 -0.5430
 4172TIP3    H234008   6.131   1.891  14.235 -0.0226 -0.6120 -1.9020
 4173TIP3   OH234009   1.782   2.666   3.648  0.0247 -0.4284  0.0478
 4173TIP3    H134010   1.839   2.593   3.671  1.4685  0.4676 -0.5240
 4173TIP3    H234011   1.708   2.625   3.602  0.8491 -1.5096 -0.3578
 4174TIP3   OH234012   2.548   2.772   0.700  0.0740 -0.0357  0.4737
 4174TIP3    H134013   2.643   2.780   0.703 -0.0000  1.5131 -0.6427
 4174TIP3    H234014   2.532   2.680   0.721  1.8216 -0.4014  0.3805
 4175TIP3   OH234015   2.746   4.855   5.118 -0.1813  0.6113 -0.1577
 4175TIP3    H134016   2.731   4.882   5.208 -0.6549 -1.6540  0.4974
 4175TIP3    H234017   2.813   4.915   5.085  0.4961  1.0529  1.9089
 4176TIP3   OH234018   5.968   0.215  13.459 -0.1533  0.7932  0.3092
 4176TIP3    H134019   5.976   0.275  13.533  1.7753  2.5689 -1.2008
 4176TIP3    H234020   5.932   0.135  13.496 -1.3372  2.3345  2.7294
 4177TIP3   OH234021   4.605   4.713  13.886  0.5677 -0.1580 -0.0358
 4177TIP3    H134022   4.589   4.791  13.832  1.8422 -0.4063 -0.8165
 4177TIP3    H234023   4.686   4.734  13.934  0.1862 -0.4811  0.7683
 4178TIP3   OH234024   5.429   0.351  13.511 -0.4563 -0.2888  0.2692
 4178TIP3    H134025   5.416   0.445  13.524 -0.4808 -0.0982 -1.0565
 4178TIP3    H234026   5.400   0.311  13.594  0.5918  0.9313  1.2575
 4179TIP3   OH234027   5.885   5.826  11.213 -0.3995  0.3955 -0.5701
 4179TIP3    H134028   5.826   5.751  11.218 -0.4770  0.5165  0.7001
 4179TIP3    H234029   5.919   5.824  11.123  0.8668 -2.1522 -0.1360
 4180TIP3   OH234030   5.939   1.835   2.769  0.4092  0.5469  0.2291
 4180TIP3    H134031   6.008   1.810   2.707 -0.2034  0.1198 -0.2973
 4180TIP3    H234032   5.974   1.811   2.855  1.4592  1.5534  0.1123
 4181TIP3   OH234033   6.259   0.597   1.279 -0.7336  0.0378 -0.1799
 4181TIP3    H134034   6.216   0.615   1.195 -0.0163  0.8026 -0.3905
 4181TIP3    H234035   6.351   0.583   1.256 -0.0821  2.4365  0.6848
 4182TIP3   OH234036   6.643   5.769  12.670  0.3180  0.3136  0.3512
 4182TIP3    H134037   6.719   5.771  12.612  0.2859 -0.7672  0.2522
 4182TIP3    H234038   6.570   5.742  12.614  0.4416 -1.5903  1.0012
 4183TIP3   OH234039   1.935   5.017  12.644  0.0917 -0.0496  0.1811
 4183TIP3    H134040   1.857   5.051  12.687 -0.7699 -0.4374 -1.0116
 4183TIP3    H234041   1.923   5.039  12.551 -0.2939 -3.0833 -0.6042
 4184TIP3   OH234042   6.236   3.585   2.438  0.1029 -0.0299 -0.1623
 4184TIP3    H134043   6.286   3.523   2.385 -2.2046 -0.2884 -2.2368
 4184TIP3    H234044   6.162   3.534   2.471 -1.0535  1.2194 -0.7104
 4185TIP3   OH234045   3.247   4.756  16.938 -0.0026  0.0859  0.2846
 4185TIP3    H134046   3.332   4.787  16.905 -0.4232 -0.3020 -1.2401
 4185TIP3    H234047   3.192   4.749  16.860 -0.6085 -2.3179  0.8225
 4186TIP3   OH234048   3.387   4.889  11.059 -0.5458 -0.0374 -0.0465
 4186TIP3    H134049   3.410   4.963  11.003 -1.5038  0.2745 -0.0416
 4186TIP3    H234050   3.317   4.922  11.116 -0.3638 -0.6824  0.5685
 4187TIP3   OH234051   3.580   0.917   4.994 -0.3201 -0.1829  0.2568
 4187TIP3    H134052   3.631   0.939   4.916  0.5039 -0.6886  0.6484
 4187TIP3    H234053   3.577   0.998   5.044 -1.1031  0.2302 -0.4172
 4188TIP3   OH234054   3.366   3.810   1.663  0.3822 -0.3466 -0.1204
 4188TIP3    H134055   3.357   3.883   1.725  1.1590  1.1133 -1.6421
 4188TIP3    H234056   3.286   3.759   1.674 -0.1499  0.6931  1.0506
 4189TIP3   OH234057   5.822   1.110   0.234  0.4395 -0.4573 -0.2396
 4189TIP3    H134058   5.896   1.094   0.292  0.9391  0.3012 -0.6477
 4189TIP3    H234059   5.823   1.036   0.173  0.7928 -0.5069 -0.1726
 4190TIP3   OH234060   6.282   3.910   1.219  0.2794 -1.5407  0.0417
 4190TIP3    H134061   6.355   3.972   1.213  0.4316 -1.8439 -1.4288
 4190TIP3    H234062   6.215   3.956   1.270 -0.0156  0.2510 -1.8536
 4191TIP3   OH234063   2.764   2.839   2.974  0.1073 -0.4352 -0.1335
 4191TIP3    H134064   2.804   2.764   3.017 -2.1818 -4.0504 -3.6116
 4191TIP3    H234065   2.818   2.855   2.897 -1.6551 -1.5340 -1.7100
 4192TIP3   OH234066   6.198   3.682   1.036  0.2818  0.2353  0.1325
 4192TIP3    H134067   6.199   3.746   1.107  0.3198 -0.1481  0.4811
 4192TIP3    H234068   6.273   3.625   1.053 -1.3666 -1.6684  1.4728
 4193TIP3   OH234069   5.688   2.867  14.653 -0.1940 -0.4022 -0.3300
 4193TIP3    H134070   5.662   2.775  14.653 -0.2931 -0.3753 -0.5769
 4193TIP3    H234071   5.664   2.899  14.740  0.6284 -0.8273  0.0614
 4194TIP3   OH234072   6.201   6.732   4.197  0.3207 -0.1008 -0.4109
 4194TIP3    H134073   6.153   6.728   4.280 -0.5401  2.3697 -0.7290
 4194TIP3    H234074   6.190   6.645   4.159  0.3330 -1.1403  1.8120
 4195TIP3   OH234075   4.284   1.675   0.384  0.4249 -0.0665 -0.2014
 4195TIP3    H134076   4.236   1.668   0.301  0.6308 -1.8562 -0.2032
 4195TIP3    H234077   4.275   1.767   0.409  0.7306  0.6192 -2.4202
 4196TIP3   OH234078   4.623   4.140  11.977  0.2454 -0.5950 -0.0613
 4196TIP3    H134079   4.548   4.082  11.966 -0.3766  0.0082  0.8473
 4196TIP3    H234080   4.585   4.228  11.981  0.6754 -0.4286  2.8808
 4197TIP3   OH234081   5.709   1.046   1.958 -0.3337  0.2108  0.0274
 4197TIP3    H134082   5.787   1.100   1.969  0.2742 -0.6366  0.0075
 4197TIP3    H234083   5.674   1.072   1.873  0.6758 -0.2952 -0.5649
 4198TIP3   OH234084   4.366   6.476   6.238 -0.1119 -0.1674  0.3395
 4198TIP3    H134085   4.379   6.570   6.252 -1.9945  0.3455 -1.0165
 4198TIP3    H234086   4.330   6.445   6.321 -1.6877  0.8165  0.0640
 4199TIP3   OH234087   5.437   0.391   6.041 -0.1729 -0.2598  0.2984
 4199TIP3    H134088   5.416   0.375   5.948  1.8253 -1.3640 -0.0203
 4199TIP3    H234089   5.352   0.408   6.082 -1.2990 -1.3007 -1.4566
 4200TIP3   OH234090   6.252   2.432  16.672 -0.4878  0.2223  0.0207
 4200TIP3    H134091   6.289   2.510  16.714 -1.0387  0.0837  0.7894
 4200TIP3    H234092   6.174   2.413  16.723  0.8574 -2.2156  1.3494
 4201TIP3   OH234093   5.797   5.530   3.732  0.4132 -0.6376 -0.5102
 4201TIP3    H134094   5.770   5.544   3.641  0.3503  1.1986 -0.2324
 4201TIP3    H234095   5.868   5.592   3.746 -0.2331 -0.1907  0.9803
 4202TIP3   OH234096   4.577   5.899   0.962 -0.0332  0.3929  0.1271
 4202TIP3    H134097   4.512   5.848   1.009 -0.5006  0.6862 -0.1824
 4202TIP3    H234098   4.629   5.835   0.913  1.6981 -0.1086  2.4564
 4203TIP3   OH234099   6.826   0.959  16.003  0.2599 -0.0032  0.6331
 4203TIP3    H134100   6.789   0.872  16.020 -1.3345  0.7008  0.9566
 4203TIP3    H234101   6.750   1.017  16.003  1.0404  1.1052 -1.7382
 4204TIP3   OH234102   4.458   6.398  15.957  0.0376  0.2801  0.0927
 4204TIP3    H134103   4.499   6.453  15.890  0.6092  0.7616  0.8285
 4204TIP3    H234104   4.450   6.455  16.033 -1.9896  0.2019  0.0043
 4205TIP3   OH234105   4.633   2.743  16.017 -0.3431 -0.0687 -0.3556
 4205TIP3    H134106   4.641   2.651  16.043 -1.6697 -0.2357 -0.4407
 4205TIP3    H234107   4.722   2.769  15.994  0.1808 -1.1273  0.3272
 4206TIP3   OH234108   1.654   0.079  13.553 -0.4969  0.3096  0.4414
 4206TIP3    H134109   1.714   0.005  13.552 -1.7240 -0.7266  1.0404
 4206TIP3    H234110   1.574   0.046  13.512 -1.0581  1.3113  0.6922
 4207TIP3   OH234111   3.484   3.651  16.072  0.1314  0.8948  0.0108
 4207TIP3    H134112   3.458   3.703  15.996 -0.6003 -0.7527 -0.9259
 4207TIP3    H234113   3.403   3.608  16.100  0.9296 -0.7118 -0.0487
 4208TIP3   OH234114   3.976   4.451  14.170 -0.2353  0.1684  0.2213
 4208TIP3    H134115   3.931   4.443  14.254 -0.2489  0.5723  0.2556
 4208TIP3    H234116   4.045   4.385  14.173 -1.6250 -1.3852 -0.3533
 4209TIP3   OH234117   2.321   4.311   4.990  0.1786 -0.9465  0.4258
 4209TIP3    H134118   2.317   4.382   5.054 -2.2456  1.2721 -1.9522
 4209TIP3    H234119   2.268   4.241   5.028 -0.7598  0.1055  1.1235
 4210TIP3   OH234120   0.349   2.147  11.374  0.1797 -0.1680  0.2244
 4210TIP3    H134121   0.373   2.054  11.365 -0.6521 -0.4358  0.7420
 4210TIP3    H234122   0.424   2.194  11.337  1.1078 -1.0152  0.9661
 4211TIP3   OH234123   0.360   4.728   2.643  0.4542  0.7090 -0.2313
 4211TIP3    H134124   0.345   4.634   2.630  0.6151  0.6232  0.1824
 4211TIP3    H234125   0.333   4.768   2.561  0.6472  0.2689 -0.5129
 4212TIP3   OH234126   5.792   4.202  16.311  0.3416  0.3707  0.0688
 4212TIP3    H134127   5.735   4.155  16.373 -0.4734 -1.3085 -1.8572
 4212TIP3    H234128   5.757   4.291  16.310 -0.9545 -0.1025  0.4779
 4213TIP3   OH234129   1.665   5.849   2.273  0.0405 -0.1759  0.3175
 4213TIP3    H134130   1.710   5.788   2.216  0.6300 -0.5559  1.1748
 4213TIP3    H234131   1.647   5.925   2.217  0.2691 -0.6856 -0.4627
 4214TIP3   OH234132   3.323   5.950   2.301 -0.1427 -0.2995 -0.1377
 4214TIP3    H134133   3.342   5.965   2.393 -1.8600 -1.9625  0.5432
 4214TIP3    H234134   3.405   5.914   2.266  0.1874 -0.6904  0.9908
 4215TIP3   OH234135   6.266   3.847  10.395 -0.8247 -1.1025  0.4725
 4215TIP3    H134136   6.290   3.901  10.470  0.0558 -1.4988  0.4910
 4215TIP3    H234137   6.254   3.908  10.323 -1.4109 -0.7438  0.8701
 4216TIP3   OH234138   5.596   0.118   5.684  0.1607  0.1726  0.1787
 4216TIP3    H134139   5.504   0.112   5.658  0.5437 -0.8807 -1.0439
 4216TIP3    H234140   5.594   0.121   5.779 -1.1755  1.3047  0.1567
 4217TIP3   OH234141   3.049   2.951  12.780  0.1452 -0.7049 -0.6010
 4217TIP3    H134142   3.091   2.908  12.706  0.6321 -0.1749 -0.6411
 4217TIP3    H234143   3.121   2.968  12.842 -0.0222  0.1280 -0.6305
 4218TIP3   OH234144   0.102   4.433   0.805 -0.7635 -0.4088  0.1683
 4218TIP3    H134145   0.128   4.353   0.760  1.2547 -0.2111  0.8998
 4218TIP3    H234146   0.105   4.501   0.738  0.8511 -0.3704  0.2426
 4219TIP3   OH234147   6.050   0.855   2.186  0.1370  0.5227  0.4206
 4219TIP3    H134148   5.960   0.827   2.170  0.4269  0.0755 -0.5156
 4219TIP3    H234149   6.080   0.886   2.100  0.9928  0.3250  0.6434
 4220TIP3   OH234150   1.461   0.211   4.807 -0.2865  0.7810  0.0945
 4220TIP3    H134151   1.496   0.131   4.770 -0.4443  0.6973  0.1244
 4220TIP3    H234152   1.531   0.275   4.798  0.2056  0.3798  0.9836
 4221TIP3   OH234153   6.180   5.579  14.027  0.3280 -0.2483  0.0556
 4221TIP3    H134154   6.222   5.497  14.051  0.1456 -0.3372  0.0765
 4221TIP3    H234155   6.238   5.618  13.962  1.3333  0.4698  1.3407
 4222TIP3   OH234156   5.146   3.260   4.685  0.1525 -0.3956  0.7605
 4222TIP3    H134157   5.137   3.345   4.641  0.0195 -1.4806 -1.4578
 4222TIP3    H234158   5.209   3.276   4.755  1.6139  1.1279 -0.8027
 4223TIP3   OH234159   1.940   4.781  16.701 -0.0905 -0.1204 -0.0365
 4223TIP3    H134160   1.886   4.833  16.642 -2.4285 -0.2014  1.8635
 4223TIP3    H234161   2.030   4.798  16.673 -0.9283  2.4183 -1.5078
 4224TIP3   OH234162   4.535   0.984  16.300  0.3361  0.0289  0.2429
 4224TIP3    H134163   4.561   0.970  16.391  1.1087 -0.2668 -0.0220
 4224TIP3    H234164   4.564   0.905  16.254  0.6257  0.5041 -0.3996
 4225TIP3   OH234165   0.331   5.949  14.327 -0.1498  0.2100  0.5130
 4225TIP3    H134166   0.306   6.020  14.387 -1.7802  0.2247 -0.1398
 4225TIP3    H234167   0.276   5.875  14.353 -1.3577  0.3982 -1.3141
 4226TIP3   OH234168   1.206   4.545   2.427 -0.2744  0.4264 -0.2811
 4226TIP3    H134169   1.208   4.487   2.351 -2.1521  0.1414 -0.1490
 4226TIP3    H234170   1.117   4.538   2.462  0.3758  0.9413  1.6567
 4227TIP3   OH234171   6.737   6.674  16.462  0.7542  0.1978  0.1362
 4227TIP3    H134172   6.777   6.752  16.423  0.8420  0.0537 -0.0636
 4227TIP3    H234173   6.742   6.689  16.557 -1.2680  1.4798  0.1090
 4228TIP3   OH234174   1.767   5.217  13.459 -0.0894  0.3588  0.2175
 4228TIP3    H134175   1.852   5.260  13.469 -0.4145  1.4864 -1.5669
 4228TIP3    H234176   1.773   5.169  13.377  0.4303 -3.6383  2.3162
 4229TIP3   OH234177   1.846   5.204  11.412 -0.1235 -0.4870 -0.0605
 4229TIP3    H134178   1.881   5.250  11.489  0.1026  1.2867 -1.1740
 4229TIP3    H234179   1.918   5.203  11.350 -0.3332 -1.8476 -0.3036
 4230TIP3   OH234180   1.349   2.971  16.881  0.7471  0.8976 -0.0828
 4230TIP3    H134181   1.300   2.896  16.914  2.0275  0.0014 -0.1184
 4230TIP3    H234182   1.380   3.016  16.960  1.4686  0.3532 -0.0461
 4231TIP3   OH234183   5.167   3.645   1.291 -0.5242  0.0330  0.5151
 4231TIP3    H134184   5.171   3.585   1.365 -1.1455  0.0830  0.5987
 4231TIP3    H234185   5.217   3.602   1.222  0.9567  0.4646  1.2815
 4232TIP3   OH234186   3.002   2.689  13.200 -0.2809 -0.2519 -0.0503
 4232TIP3    H134187   3.019   2.773  13.157 -1.5682 -0.0315 -0.1732
 4232TIP3    H234188   2.971   2.713  13.287  2.1296 -0.6960  1.0048
 4233TIP3   OH234189   0.037   1.038   3.386 -0.1854  0.5539 -0.0867
 4233TIP3    H134190   0.080   1.070   3.466  1.3619 -0.9030 -0.2919
 4233TIP3    H234191  -0.002   0.954   3.412  0.9294 -0.2778 -0.9956
 4234TIP3   OH234192   0.742   3.839  13.891 -0.3779 -0.0734 -0.0240
 4234TIP3    H134193   0.718   3.784  13.816 -0.7033 -0.1920  0.1639
 4234TIP3    H234194   0.714   3.927  13.866 -2.9836 -0.5075  1.0116
 4235TIP3   OH234195   6.461   6.069  17.101  0.3221  0.1732  0.0873
 4235TIP3    H134196   6.544   6.062  17.148  1.6820  1.0672 -2.0287
 4235TIP3    H234197   6.429   6.157  17.121  0.9008  0.5528 -0.5984
 4236TIP3   OH234198   2.167   4.728  11.361  0.2912 -0.1042  0.5429
 4236TIP3    H134199   2.102   4.759  11.423 -0.9968 -2.6142  0.5559
 4236TIP3    H234200   2.238   4.694  11.415 -0.0683 -0.7295  0.6324
 4237TIP3   OH234201   5.856   3.681   2.955 -0.1083 -0.7786  0.1398
 4237TIP3    H134202   5.862   3.589   2.977 -0.1184 -1.0743 -1.0221
 4237TIP3    H234203   5.856   3.683   2.859 -0.5563  0.3910  0.1413
 4238TIP3   OH234204   2.873   1.144  16.336  0.0153  0.3444  0.0568
 4238TIP3    H134205   2.888   1.108  16.249  0.0280 -1.2696  0.6818
 4238TIP3    H234206   2.852   1.068  16.390  1.1326  1.1328  1.7118
 4239TIP3   OH234207   3.799   5.368   2.748  0.4152  0.0670 -0.0705
 4239TIP3    H134208   3.730   5.393   2.810  0.0954 -1.8229  0.4010
 4239TIP3    H234209   3.781   5.276   2.729  2.3948 -0.2681 -0.4981
 4240TIP3   OH234210   5.413   0.781  14.487 -0.0582 -0.2294 -0.6641
 4240TIP3    H134211   5.431   0.839  14.414  0.7046  0.4468  0.0385
 4240TIP3    H234212   5.484   0.798  14.549 -1.2293 -0.0543  0.6729
 4241TIP3   OH234213   5.255   4.451   5.518  0.7456  0.1581  0.0795
 4241TIP3    H134214   5.215   4.420   5.437  1.9254 -0.2447 -0.3726
 4241TIP3    H234215   5.301   4.375   5.553 -4.1080 -1.5291  4.1626
 4242TIP3   OH234216   2.643   3.316  17.136 -0.0782  0.5033  0.4227
 4242TIP3    H134217   2.666   3.270  17.055  0.8539 -0.8540  1.4235
 4242TIP3    H234218   2.556   3.286  17.158 -0.8505  1.8019 -0.6795
 4243TIP3   OH234219   6.068   3.344   1.053  0.0191 -0.8193 -0.1784
 4243TIP3    H134220   6.054   3.290   1.131 -1.6226 -1.2899 -0.7482
 4243TIP3    H234221   6.161   3.367   1.056 -0.0954 -0.3999  2.1660
 4244TIP3   OH234222   0.367   1.417   1.355 -0.3068  0.3063 -0.2942
 4244TIP3    H134223   0.300   1.478   1.385 -1.6248 -1.0933 -0.3217
 4244TIP3    H234224   0.320   1.349   1.307  0.9496 -1.4399  0.8118
 4245TIP3   OH234225   1.679   0.658  16.917 -0.0616 -0.2832  0.1469
 4245TIP3    H134226   1.604   0.603  16.938 -1.8135  0.7004 -2.9858
 4245TIP3    H234227   1.742   0.599  16.877 -1.0172 -0.4493 -1.1711
 4246TIP3   OH234228   5.848   4.188  15.573  0.4544  0.2578  1.4048
 4246TIP3    H134229   5.852   4.095  15.595 -0.9325  0.1463  1.2618
 4246TIP3    H234230   5.784   4.192  15.502  1.6741  1.1379  0.3003
 4247TIP3   OH234231   2.104   3.670   2.640  0.3005  0.0223 -0.3256
 4247TIP3    H134232   2.062   3.732   2.700 -0.6098 -0.3244 -0.5935
 4247TIP3    H234233   2.074   3.697   2.553 -0.6657 -1.2119 -0.3945
 4248TIP3   OH234234   5.698   0.063   3.255 -0.0177  0.2902  0.0750
 4248TIP3    H134235   5.618   0.041   3.304 -0.6601  0.0828 -1.0365
 4248TIP3    H234236   5.769   0.028   3.309 -0.6712  0.3870  1.0355
 4249TIP3   OH234237   6.538   1.420  12.182 -0.1230  0.1456 -0.0052
 4249TIP3    H134238   6.593   1.418  12.104 -0.9571 -0.8469 -0.5865
 4249TIP3    H234239   6.569   1.496  12.231  0.4705  0.7408 -1.2622
 4250TIP3   OH234240   2.396   4.352  15.811  0.3544 -0.1397 -0.3618
 4250TIP3    H134241   2.309   4.323  15.782  0.3124  0.5754 -0.9975
 4250TIP3    H234242   2.429   4.405  15.738  1.0953  0.0534  0.1014
 4251TIP3   OH234243   2.882   3.051   5.650  0.1202  0.1089  0.1703
 4251TIP3    H134244   2.905   3.020   5.562  0.0325 -0.2621  0.2756
 4251TIP3    H234245   2.963   3.089   5.684  0.7064 -1.4790  0.6592
 4252TIP3   OH234246   3.395   4.127  13.779  0.1633  0.2171 -0.0666
 4252TIP3    H134247   3.359   4.113  13.867  0.3509 -1.5493 -0.2406
 4252TIP3    H234248   3.377   4.045  13.733  2.8434 -0.1022 -0.6912
 4253TIP3   OH234249   1.414   3.851  14.787 -0.3896  0.1609 -0.7457
 4253TIP3    H134250   1.414   3.769  14.738 -1.4822  0.4649 -1.2844
 4253TIP3    H234251   1.479   3.838  14.857  0.2139 -0.7610 -1.4590
 4254TIP3   OH234252   4.985   5.089   0.012 -0.7694  0.4831  0.7384
 4254TIP3    H134253   4.948   5.003   0.035 -0.8321  0.0035 -1.0173
 4254TIP3    H234254   4.948   5.149   0.077 -0.8629 -0.7778  1.8935
 4255TIP3   OH234255   1.443   5.144  12.395  0.1438 -0.2500  0.4908
 4255TIP3    H134256   1.518   5.120  12.340 -0.5744 -0.5273 -0.4000
 4255TIP3    H234257   1.409   5.224  12.356 -0.6817 -0.7281  0.2141
 4256TIP3   OH234258   2.773   0.467   2.928  0.7801 -0.2993 -0.3378
 4256TIP3    H134259   2.691   0.417   2.920  0.6633  0.1220 -2.4011
 4256TIP3    H234260   2.808   0.442   3.014 -2.3911  0.8695  1.4665
 4257TIP3   OH234261   1.167   2.353  13.615  0.7782  0.2345  0.2014
 4257TIP3    H134262   1.141   2.293  13.545  0.8863  0.8702 -0.3884
 4257TIP3    H234263   1.217   2.298  13.676  1.7804 -0.0618 -0.8498
 4258TIP3   OH234264   0.953   5.185  11.419  1.2138 -0.3392 -0.2478
 4258TIP3    H134265   0.993   5.244  11.355  2.2240 -0.1941  0.4987
 4258TIP3    H234266   0.860   5.187  11.397  1.0002  2.4557  0.4641
 4259TIP3   OH234267   6.267   5.534  15.900 -0.3142 -0.0907 -0.0114
 4259TIP3    H134268   6.214   5.590  15.957  0.3184 -1.0251  1.5761
 4259TIP3    H234269   6.220   5.451  15.897  0.6510 -0.6980  0.8281
 4260TIP3   OH234270   2.991   4.061   0.947 -0.0169  0.1662  0.2197
 4260TIP3    H134271   2.909   4.089   0.987  0.6258  1.6270  0.5879
 4260TIP3    H234272   2.973   3.974   0.913 -1.0387 -0.5583  2.4117
 4261TIP3   OH234273   2.993   4.454  15.473 -0.1356  0.3012  0.0522
 4261TIP3    H134274   3.060   4.519  15.449  0.4874  0.2651  1.6375
 4261TIP3    H234275   3.015   4.376  15.422  0.2408  0.7121 -0.4186
 4262TIP3   OH234276   3.730   5.335   1.607  0.0311 -0.2978 -0.4974
 4262TIP3    H134277   3.745   5.264   1.545  0.9812 -0.1592 -0.4379
 4262TIP3    H234278   3.638   5.326   1.632 -0.1304 -0.8835 -1.2606
 4263TIP3   OH234279   6.095   5.220  13.612 -0.1058  0.2298 -0.4436
 4263TIP3    H134280   6.085   5.311  13.640 -0.5494  0.3637 -1.0084
 4263TIP3    H234281   6.141   5.227  13.528  3.5038 -0.2761  1.3092
 4264TIP3   OH234282   5.746   6.436  15.146  0.0958 -0.6115  0.6047
 4264TIP3    H134283   5.666   6.384  15.146  0.0333 -0.6191 -1.9974
 4264TIP3    H234284   5.812   6.379  15.107  0.4970  0.5662 -0.5078
 4265TIP3   OH234285   6.202   1.863   1.082  0.2730 -0.5757 -0.3198
 4265TIP3    H134286   6.259   1.899   1.150  0.9028 -2.9066  0.4670
 4265TIP3    H234287   6.150   1.938   1.053  0.4734  0.6680  2.2207
 4266TIP3   OH234288   1.475   1.372  15.992  0.0613  0.0784 -0.4252
 4266TIP3    H134289   1.466   1.459  16.033 -0.9488  0.0298 -0.5056
 4266TIP3    H234290   1.447   1.311  16.060  0.5764 -0.1745 -0.4371
 4267TIP3   OH234291   2.792   4.369  12.628  0.0760 -0.2169 -0.2583
 4267TIP3    H134292   2.783   4.441  12.690  1.5064 -2.1546  2.3553
 4267TIP3    H234293   2.869   4.392  12.576  1.5638 -0.5562  1.6924
 4268TIP3   OH234294   4.279   4.916  12.632  0.0620  0.5327  0.3571
 4268TIP3    H134295   4.295   4.887  12.542  0.4597 -0.7244  0.8140
 4268TIP3    H234296   4.307   5.008  12.632 -1.4306  1.0489 -1.1885
 4269TIP3   OH234297   2.655   4.768  15.226 -0.2389  0.0619  0.3242
 4269TIP3    H134298   2.569   4.781  15.265 -0.0150  0.7900  0.5902
 4269TIP3    H234299   2.696   4.701  15.280 -0.2822  0.3973  0.7820
 4270TIP3   OH234300   3.616   3.071  13.568 -0.2771 -0.2903  0.0744
 4270TIP3    H134301   3.615   3.139  13.501  1.0457 -1.1888 -0.9217
 4270TIP3    H234302   3.636   3.117  13.649 -4.1487  1.1798  0.4045
 4271TIP3   OH234303   6.620   4.373  13.159 -0.5256 -0.3984  0.3561
 4271TIP3    H134304   6.646   4.463  13.179 -1.0570 -0.3209  0.7146
 4271TIP3    H234305   6.673   4.350  13.083 -1.4833  0.7576 -0.7167
 4272TIP3   OH234306   4.724   1.535  14.957 -0.7484  0.1031  0.3619
 4272TIP3    H134307   4.781   1.485  15.016  0.1038 -0.2838 -0.7483
 4272TIP3    H234308   4.712   1.619  15.001  1.4258  0.5327  0.2429
 4273TIP3   OH234309   3.370   2.520   0.181  0.5102  0.0577  0.0085
 4273TIP3    H134310   3.420   2.457   0.233  0.9982  1.4874  1.3400
 4273TIP3    H234311   3.278   2.501   0.203  0.7309  1.2206  2.1837
 4274TIP3   OH234312   3.040   4.443   3.847 -0.4191 -0.1393 -0.2532
 4274TIP3    H134313   3.033   4.375   3.780 -0.1587 -0.0635 -0.3591
 4274TIP3    H234314   3.078   4.398   3.923 -0.7086 -0.2239 -0.1577
 4275TIP3   OH234315   4.871   0.524   0.367  0.3011 -0.2374  0.1095
 4275TIP3    H134316   4.882   0.483   0.453 -0.8884 -1.7052 -0.3929
 4275TIP3    H234317   4.843   0.452   0.310  0.5844  0.8062 -1.4052
 4276TIP3   OH234318   5.908   6.220  14.979 -0.0426 -0.1954 -0.1005
 4276TIP3    H134319   5.888   6.295  14.923 -0.2942 -1.0506 -1.1933
 4276TIP3    H234320   6.000   6.201  14.961  0.0250 -0.1468  0.1846
 4277TIP3   OH234321   5.559   4.336  10.472 -0.2193 -0.0529 -0.5391
 4277TIP3    H134322   5.617   4.391  10.420  0.2320  1.0340  1.0485
 4277TIP3    H234323   5.494   4.396  10.508 -1.2425 -0.9699 -0.7880
 4278TIP3   OH234324   6.672   6.222  12.038  0.3134 -0.1765 -0.0852
 4278TIP3    H134325   6.760   6.259  12.027  0.1325 -0.4682 -3.4605
 4278TIP3    H234326   6.619   6.294  12.072  0.7941  1.6810 -2.9316
 4279TIP3   OH234327   3.037   0.436   0.544 -0.3691 -0.3109  0.3108
 4279TIP3    H134328   3.048   0.442   0.449  1.7222  0.7393  0.5713
 4279TIP3    H234329   2.972   0.502   0.565 -0.0662  0.1870 -0.2902
 4280TIP3   OH234330   5.609   2.974  15.215  0.2198 -0.0329 -0.0014
 4280TIP3    H134331   5.624   3.007  15.304 -0.0283 -0.5539  0.2415
 4280TIP3    H234332   5.520   2.939  15.218  0.8333 -1.6778  0.0669
 4281TIP3   OH234333   1.050   2.942  14.492  0.1948  0.1002  0.6647
 4281TIP3    H134334   0.967   2.899  14.516 -0.3705  0.9609  0.2726
 4281TIP3    H234335   1.113   2.870  14.490 -1.0983 -1.0823 -1.8486
 4282TIP3   OH234336   0.960   3.920   5.762  0.1277 -0.2702  0.6340
 4282TIP3    H134337   0.892   3.941   5.698  1.2203 -0.1365 -0.5216
 4282TIP3    H234338   0.918   3.933   5.847 -1.8166 -1.9063 -0.0086
 4283TIP3   OH234339   4.162   5.787  14.516  0.5711  0.1280 -1.3269
 4283TIP3    H134340   4.240   5.740  14.486  0.3146  0.4218 -2.5032
 4283TIP3    H234341   4.194   5.871  14.546  0.7206  0.2297 -1.7630
 4284TIP3   OH234342   6.336   3.798  10.801  0.2924 -0.3226 -0.7654
 4284TIP3    H134343   6.367   3.713  10.770  0.4879  0.2566 -2.2119
 4284TIP3    H234344   6.273   3.776  10.870  0.6370 -1.6258 -0.8360
 4285TIP3   OH234345   0.966   3.040   3.317  0.1907 -0.3430  0.1123
 4285TIP3    H134346   1.057   3.029   3.291  0.4573 -1.1017  1.3061
 4285TIP3    H234347   0.954   3.135   3.320  0.7793 -0.2353 -0.5324
 4286TIP3   OH234348   2.852   2.334   0.261  0.0862  0.3811 -0.2669
 4286TIP3    H134349   2.840   2.323   0.166 -0.3918 -0.7360 -0.0912
 4286TIP3    H234350   2.868   2.245   0.293 -0.0567  0.7176  0.7487
 4287TIP3   OH234351   2.460   3.572   1.047  0.6814  0.2485  0.2164
 4287TIP3    H134352   2.467   3.483   1.082 -1.9092  0.0844  0.4595
 4287TIP3    H234353   2.496   3.566   0.958  0.7330 -0.9800  0.3052
 4288TIP3   OH234354   2.729   6.454  13.407 -0.1197  0.2859  0.2153
 4288TIP3    H134355   2.791   6.407  13.351 -0.3237  1.4845 -1.0566
 4288TIP3    H234356   2.715   6.395  13.481 -0.5722 -1.7925 -1.4307
 4289TIP3   OH234357   1.227   3.177   0.466 -0.2228 -0.4453 -0.5400
 4289TIP3    H134358   1.289   3.229   0.415 -0.6368 -0.2512 -0.8549
 4289TIP3    H234359   1.145   3.225   0.459  0.2854  1.1206  2.5970
 4290TIP3   OH234360   4.378   2.711  16.735  0.7919 -0.4702 -0.4242
 4290TIP3    H134361   4.311   2.724  16.668 -0.1049 -0.7312  0.4055
 4290TIP3    H234362   4.372   2.618  16.758 -1.4661  0.2850  2.6069
 4291TIP3   OH234363   6.803   5.817   3.566 -0.2972 -0.0722  0.3233
 4291TIP3    H134364   6.810   5.810   3.471  0.6137  2.8861  0.0862
 4291TIP3    H234365   6.722   5.771   3.587 -0.6581 -0.5780 -1.9010
 4292TIP3   OH234366   1.630   5.191  15.809  0.3025  0.3265 -0.0135
 4292TIP3    H134367   1.718   5.159  15.827  0.1749  0.0349  0.0942
 4292TIP3    H234368   1.615   5.171  15.717  0.0762 -0.2765  0.1509
 4293TIP3   OH234369   0.918   2.923   0.540  0.3802 -0.1981  0.2457
 4293TIP3    H134370   0.925   2.828   0.529 -0.3425 -0.3352  0.8772
 4293TIP3    H234371   0.854   2.950   0.473  0.2043 -0.2272  0.4028
 4294TIP3   OH234372   0.308   6.399   3.669 -0.2873  0.5258 -0.4073
 4294TIP3    H134373   0.215   6.405   3.691  0.0328 -2.0971  2.1893
 4294TIP3    H234374   0.315   6.321   3.614  0.6026 -0.7965  1.4923
 4295TIP3   OH234375   4.278   2.252   4.325  0.6518 -0.5067 -0.4612
 4295TIP3    H134376   4.264   2.335   4.371 -1.9297 -0.3825 -1.2947
 4295TIP3    H234377   4.357   2.216   4.364  1.6119  2.1236  0.2509
 4296TIP3   OH234378   5.943   5.677  12.574 -0.5002 -0.4396 -0.5196
 4296TIP3    H134379   5.913   5.692  12.664 -1.0966 -1.2787 -0.5673
 4296TIP3    H234380   5.914   5.754  12.526  0.1363  0.1859  0.0732
 4297TIP3   OH234381   5.943   4.762   0.576  0.0514 -0.3511 -1.4418
 4297TIP3    H134382   5.957   4.856   0.586  0.3493 -0.4298 -1.1188
 4297TIP3    H234383   5.890   4.737   0.652  1.9371 -0.8627 -0.2222
 4298TIP3   OH234384   5.026   5.394   0.665 -0.5688 -0.2306  0.4459
 4298TIP3    H134385   5.051   5.486   0.671  1.0011 -0.5787 -0.1663
 4298TIP3    H234386   4.961   5.391   0.595  0.0930  0.2910 -0.2029
 4299TIP3   OH234387   1.907   0.296   2.789 -0.2378 -0.2562 -0.2525
 4299TIP3    H134388   1.837   0.347   2.830 -3.3297 -3.3341 -1.2948
 4299TIP3    H234389   1.956   0.259   2.863  0.6155  2.1041  0.4871
 4300TIP3   OH234390   5.340   4.330  16.712  0.0023 -0.1005 -0.2778
 4300TIP3    H134391   5.338   4.364  16.623 -0.0286 -0.5004 -0.4310
 4300TIP3    H234392   5.428   4.350  16.744  0.3150 -0.7639 -0.7131
 4301TIP3   OH234393   3.336   2.471   3.835  0.5258 -0.1873 -0.2747
 4301TIP3    H134394   3.299   2.388   3.806 -0.3892 -0.2654  1.0163
 4301TIP3    H234395   3.325   2.470   3.930 -1.1020  2.1559 -0.3542
 4302TIP3   OH234396   1.621   0.427   5.213 -0.0558  0.9595  0.0482
 4302TIP3    H134397   1.678   0.359   5.178 -0.6986 -0.0334  0.8633
 4302TIP3    H234398   1.604   0.400   5.303 -1.5300  1.3745 -0.0696
 4303TIP3   OH234399   0.842   3.089  16.346 -0.2721  0.2962 -0.2906
 4303TIP3    H134400   0.816   3.021  16.408 -0.2582 -0.5711 -1.2047
 4303TIP3    H234401   0.785   3.076  16.271  0.9002  0.1608 -1.1906
 4304TIP3   OH234402   1.759   2.189   2.630  0.5875 -0.3528 -0.8821
 4304TIP3    H134403   1.706   2.209   2.553 -0.3772  0.9506  0.0761
 4304TIP3    H234404   1.769   2.273   2.675  0.4440 -1.2124  0.8326
 4305TIP3   OH234405   0.713   5.981   2.815  0.1503 -0.3781 -0.7973
 4305TIP3    H134406   0.661   6.061   2.822 -1.7419 -1.5642 -0.5486
 4305TIP3    H234407   0.752   5.985   2.728 -0.1401  0.6699 -0.8995
 4306TIP3   OH234408   5.829   3.777   4.234 -0.2061 -0.6544 -0.0091
 4306TIP3    H134409   5.807   3.847   4.172  0.1376  0.9563  1.5866
 4306TIP3    H234410   5.749   3.764   4.285 -0.3468 -1.6378 -0.4679
 4307TIP3   OH234411   2.035   3.902   0.104 -0.5007 -0.1735  0.5800
 4307TIP3    H134412   1.965   3.837   0.103 -0.0178 -0.6995  0.5391
 4307TIP3    H234413   1.993   3.983   0.073 -0.9265 -0.6514 -0.1308
 4308TIP3   OH234414   4.266   6.379   6.492 -0.3807  0.0090  0.0169
 4308TIP3    H134415   4.273   6.459   6.544  0.3208  0.0980 -0.2094
 4308TIP3    H234416   4.171   6.363   6.486 -0.5170  0.6709  0.2906
 4309TIP3   OH234417   3.322   4.516  11.465  0.2363  0.3231 -0.2934
 4309TIP3    H134418   3.257   4.570  11.420 -0.2214 -0.2103 -0.2825
 4309TIP3    H234419   3.278   4.487  11.544 -0.8121 -2.8898 -1.9001
 4310TIP3   OH234420   6.291   0.448  17.096 -0.2601 -0.4521 -0.5776
 4310TIP3    H134421   6.349   0.393  17.044  1.2091  1.1999 -0.7356
 4310TIP3    H234422   6.298   0.413  17.185  2.5625  0.8497 -0.1755
 4311TIP3   OH234423   1.366   1.992   5.734 -0.0213  0.1110 -0.0662
 4311TIP3    H134424   1.431   1.941   5.782  0.5903  1.1520  0.2482
 4311TIP3    H234425   1.399   1.994   5.644  0.1221  0.2247 -0.0106
 4312TIP3   OH234426   0.765   0.164  16.969  0.0237 -0.4989 -0.7468
 4312TIP3    H134427   0.701   0.230  16.943 -0.5735 -0.5087  0.6476
 4312TIP3    H234428   0.787   0.185  17.059  1.9081 -0.5845 -1.1416
 4313TIP3   OH234429   2.970   2.562   1.065 -0.5885  0.0939 -0.2211
 4313TIP3    H134430   3.041   2.590   1.008 -0.2977  1.2934  0.6904
 4313TIP3    H234431   2.986   2.468   1.078  0.6333  0.2648 -0.3242
 4314TIP3   OH234432   1.648   1.124  12.501 -0.1190  0.0597 -0.3198
 4314TIP3    H134433   1.673   1.211  12.532 -1.2298  0.3428 -0.1559
 4314TIP3    H234434   1.586   1.140  12.430 -1.3271 -0.5796  0.5550
 4315TIP3   OH234435   5.879   5.078   4.896  0.3002 -0.0365 -0.1434
 4315TIP3    H134436   5.911   4.991   4.871  1.5721 -0.3441  2.2062
 4315TIP3    H234437   5.941   5.139   4.855  0.1171 -0.2971 -0.8144
 4316TIP3   OH234438   6.354   1.432  14.466  0.4484 -0.5338  0.3131
 4316TIP3    H134439   6.277   1.474  14.505 -0.2317 -1.5594  0.1140
 4316TIP3    H234440   6.388   1.376  14.536 -0.7294 -2.3205 -0.4794
 4317TIP3   OH234441   1.943   2.065   1.388 -0.3023  0.2032 -0.2625
 4317TIP3    H134442   1.906   2.025   1.309 -0.2195 -1.4460  0.4928
 4317TIP3    H234443   1.916   2.008   1.459 -1.1738  2.1618  1.0801
 4318TIP3   OH234444   3.577   1.804   4.555  0.2341 -0.6433 -0.4695
 4318TIP3    H134445   3.638   1.734   4.577  1.0952  0.6778  1.6040
 4318TIP3    H234446   3.630   1.883   4.554 -1.4648  0.6521  1.9916
 4319TIP3   OH234447   2.275   4.944   0.517 -0.2669 -0.0590  0.4329
 4319TIP3    H134448   2.301   4.899   0.437  1.8396  0.8021  0.5779
 4319TIP3    H234449   2.241   5.029   0.487  0.3120  0.1726  0.4147
 4320TIP3   OH234450   4.781   4.234   0.701 -0.1725 -0.1886  0.0833
 4320TIP3    H134451   4.750   4.325   0.694 -0.5558 -0.3706 -0.6023
 4320TIP3    H234452   4.876   4.241   0.689 -0.0101  0.2749  1.4092
 4321TIP3   OH234453   2.157   5.505  12.931  0.3213  0.2702  0.2022
 4321TIP3    H134454   2.220   5.444  12.892 -4.0394 -3.7806 -1.4013
 4321TIP3    H234455   2.113   5.454  12.999 -1.7216  2.5911  0.7764
 4322TIP3   OH234456   4.593   2.094  13.417 -0.7447 -0.1208  1.2361
 4322TIP3    H134457   4.658   2.140  13.470  0.3285  0.8434 -0.8116
 4322TIP3    H234458   4.638   2.015  13.387 -0.9913 -0.1471  0.9321
 4323TIP3   OH234459   0.855   6.224  12.281 -0.2096 -0.2209 -0.1036
 4323TIP3    H134460   0.834   6.290  12.215  0.9999 -1.6000 -1.9531
 4323TIP3    H234461   0.938   6.254  12.318  0.3029 -0.6441 -0.8910
 4324TIP3   OH234462   6.641   6.264   0.305  0.1832  0.0325 -0.5417
 4324TIP3    H134463   6.733   6.288   0.298 -0.0541  2.5216  2.5494
 4324TIP3    H234464   6.614   6.297   0.391 -4.0594  1.0287 -1.9900
 4325TIP3   OH234465   3.322   0.372  11.888 -0.0865  0.2987 -0.2121
 4325TIP3    H134466   3.305   0.292  11.938 -1.5434  0.8314  0.1815
 4325TIP3    H234467   3.347   0.436  11.954 -0.7538  0.6536 -0.2953
 4326TIP3   OH234468   3.299   2.883  14.837  0.5050  0.4805  0.2411
 4326TIP3    H134469   3.375   2.941  14.837  1.0438 -0.2221  0.4775
 4326TIP3    H234470   3.334   2.797  14.857 -0.3589  0.1515  0.3737
 4327TIP3   OH234471   5.597   6.378   4.657 -0.1309 -0.2273 -0.0429
 4327TIP3    H134472   5.551   6.319   4.597 -0.2968  0.5370 -0.6780
 4327TIP3    H234473   5.556   6.361   4.742  0.0269 -1.2347 -0.1564
 4328TIP3   OH234474   0.694   1.696  12.737  0.5488 -0.5758 -0.3080
 4328TIP3    H134475   0.705   1.761  12.668  0.3256 -0.1962  0.0063
 4328TIP3    H234476   0.611   1.652  12.716  0.5909 -0.6078 -0.4035
 4329TIP3   OH234477   3.668   3.549  10.975 -0.2001 -0.5209 -0.3476
 4329TIP3    H134478   3.592   3.514  11.023 -0.1755 -2.1353 -1.3811
 4329TIP3    H234479   3.632   3.571  10.888  0.6185 -2.0742 -1.1252
 4330TIP3   OH234480   0.076   2.381   5.768 -0.5556 -0.1996 -0.1003
 4330TIP3    H134481   0.114   2.426   5.692 -2.2831  1.6558  0.0347
 4330TIP3    H234482   0.071   2.289   5.742 -0.4890  0.2893 -1.9718
 4331TIP3   OH234483   5.395   3.683   3.771  0.3716  0.6149 -0.8175
 4331TIP3    H134484   5.354   3.767   3.793  0.5531  0.8078 -1.2197
 4331TIP3    H234485   5.462   3.671   3.839 -1.0609 -0.2341  0.5139
 4332TIP3   OH234486   1.728   6.082   4.409 -0.1449 -0.1674  0.1764
 4332TIP3    H134487   1.800   6.116   4.356 -0.2018 -2.5296 -1.5866
 4332TIP3    H234488   1.650   6.094   4.354 -0.3391 -1.8514  0.0273
 4333TIP3   OH234489   2.305   5.341   4.979  0.0632  0.0569  0.2317
 4333TIP3    H134490   2.314   5.368   5.070 -0.2991 -1.4229  0.7447
 4333TIP3    H234491   2.232   5.279   4.980 -1.0373  1.2566 -1.3690
 4334TIP3   OH234492   1.877   4.679   4.708 -0.2148  0.0074  0.0505
 4334TIP3    H134493   1.805   4.688   4.646 -0.8943  0.2515  0.8463
 4334TIP3    H234494   1.870   4.756   4.764  2.1243  1.2739 -1.2878
 4335TIP3   OH234495   3.170   2.385   1.305  0.1004 -0.2425 -0.1154
 4335TIP3    H134496   3.266   2.387   1.310  0.0263 -0.0924  2.2291
 4335TIP3    H234497   3.142   2.463   1.353 -1.2067 -1.2382  0.8117
 4336TIP3   OH234498   4.739   1.756   5.749  0.0758  0.1143 -0.2317
 4336TIP3    H134499   4.646   1.740   5.733  0.0219  1.4626 -1.5492
 4336TIP3    H234500   4.780   1.748   5.663  1.4160 -1.6924  0.5185
 4337TIP3   OH234501   6.301   0.371   0.820 -0.2408  0.9295  0.1758
 4337TIP3    H134502   6.239   0.316   0.869  1.8530  0.5065  2.5460
 4337TIP3    H234503   6.274   0.362   0.729 -0.9670 -2.8030  0.6133
 4338TIP3   OH234504   0.618   5.611  13.357 -0.3074  0.0007 -0.2466
 4338TIP3    H134505   0.662   5.610  13.272 -0.4864 -0.9318 -0.3379
 4338TIP3    H234506   0.666   5.676  13.409 -1.7234  2.5224 -1.8498
 4339TIP3   OH234507   2.029   0.975   0.806  0.1264 -0.7392  0.2245
 4339TIP3    H134508   2.121   0.965   0.781  0.1872  0.9320 -0.3105
 4339TIP3    H234509   1.982   0.973   0.723 -0.0278  1.1688  0.2273
 4340TIP3   OH234510   2.742   2.844  15.369  0.2585 -0.1580 -0.2062
 4340TIP3    H134511   2.672   2.782  15.348 -1.1099  0.7307  1.4375
 4340TIP3    H234512   2.819   2.811  15.324 -1.1822 -1.2773 -1.9414
 4341TIP3   OH234513   4.290   0.121   5.507 -0.1578 -0.6935 -0.1818
 4341TIP3    H134514   4.283   0.081   5.421 -0.7928 -0.0151 -0.4612
 4341TIP3    H234515   4.331   0.054   5.562  3.0484 -0.1190 -1.6594
 4342TIP3   OH234516   4.535   5.110  16.574  0.4090  0.2308  0.1290
 4342TIP3    H134517   4.607   5.050  16.594 -1.1690 -1.3132  1.5408
 4342TIP3    H234518   4.531   5.169  16.649  0.0881  0.1836  0.1517
 4343TIP3   OH234519   4.857   0.728   2.940  0.2778 -0.3978 -0.6876
 4343TIP3    H134520   4.825   0.664   2.876  1.5456 -0.9787 -0.7673
 4343TIP3    H234521   4.935   0.765   2.899  0.9173 -0.5312  0.3791
 4344TIP3   OH234522   2.302   3.178  13.937  0.0078 -0.6281 -0.6591
 4344TIP3    H134523   2.255   3.136  14.008 -1.0234 -1.4173 -1.7576
 4344TIP3    H234524   2.288   3.120  13.861 -0.9184  1.3361 -2.0734
 4345TIP3   OH234525   5.538   4.055  15.275  0.0969 -0.3255  0.2606
 4345TIP3    H134526   5.522   3.974  15.323  2.5447 -0.0135  1.8209
 4345TIP3    H234527   5.453   4.097  15.269 -0.9816 -2.3180  0.6939
 4346TIP3   OH234528   1.080   4.250  15.500 -0.0587 -0.6155  0.3989
 4346TIP3    H134529   1.051   4.338  15.473 -0.0439 -0.6146  0.3867
 4346TIP3    H234530   1.068   4.249  15.595  1.9252  0.1298  0.6899
 4347TIP3   OH234531   6.578   5.449  12.187 -0.3794  0.8121  0.2142
 4347TIP3    H134532   6.538   5.364  12.199  1.5228 -0.2329 -0.3701
 4347TIP3    H234533   6.603   5.477  12.275 -0.8091  0.6641  0.3815
 4348TIP3   OH234534   4.322   5.195   5.273  0.2913 -0.4603  0.3446
 4348TIP3    H134535   4.371   5.268   5.310 -0.1322 -0.6897  1.4216
 4348TIP3    H234536   4.373   5.166   5.197 -0.2730  1.8626 -0.9999
 4349TIP3   OH234537   3.152   3.979  17.177  0.5040 -0.0685 -0.0477
 4349TIP3    H134538   3.056   3.972  17.182  0.4084  0.6517 -0.6624
 4349TIP3    H234539   3.179   3.904  17.124  0.3542 -0.6760  0.7205
 4350TIP3   OH234540   4.428   0.360  12.794 -0.5153 -0.5021 -0.1894
 4350TIP3    H134541   4.423   0.354  12.889  0.8622 -1.6245 -0.1599
 4350TIP3    H234542   4.352   0.414  12.770 -2.3018 -2.1999  1.3208
 4351TIP3   OH234543   1.223   3.048   1.198 -0.0276 -0.2137  0.4247
 4351TIP3    H134544   1.283   3.105   1.246 -0.0468 -0.1982  0.4304
 4351TIP3    H234545   1.189   2.988   1.265  0.8261 -0.9452  0.2234
 4352TIP3   OH234546   6.825   0.831   1.476  0.0921 -0.1021  0.3960
 4352TIP3    H134547   6.884   0.902   1.501 -0.8657  1.3590 -1.2279
 4352TIP3    H234548   6.811   0.781   1.557  1.6572  0.8962  1.3325
 4353TIP3   OH234549   3.579   0.465  13.191 -0.3876 -0.0981  0.5780
 4353TIP3    H134550   3.627   0.420  13.260 -1.1613 -1.0946  0.4880
 4353TIP3    H234551   3.524   0.529  13.236 -1.2380 -1.0638  0.9460
 4354TIP3   OH234552   0.895   0.919  16.471  0.0589 -0.1451 -0.5792
 4354TIP3    H134553   0.945   0.991  16.509  1.2272 -0.8702 -0.7096
 4354TIP3    H234554   0.805   0.953  16.466  0.0664  0.4086  1.7067
 4355TIP3   OH234555   5.367   2.905   1.815 -0.0464  0.1542 -0.3272
 4355TIP3    H134556   5.312   2.860   1.751  1.5521 -0.2045 -1.4976
 4355TIP3    H234557   5.308   2.969   1.856 -1.1600  0.2486 -2.0007
 4356TIP3   OH234558   4.922   5.445  12.169 -0.1179 -0.3192  0.9526
 4356TIP3    H134559   4.845   5.397  12.197 -0.4010 -1.0933 -0.9441
 4356TIP3    H234560   4.944   5.406  12.084  1.3221  1.0519  0.6514
 4357TIP3   OH234561   5.423   6.368  16.994  0.5323  0.2992 -0.4251
 4357TIP3    H134562   5.507   6.412  17.008  0.8369 -0.2747 -0.4230
 4357TIP3    H234563   5.444   6.275  16.998 -0.4198  0.1172  1.5850
 4358TIP3   OH234564   5.254   0.978   0.690  0.0668 -0.3601 -0.5090
 4358TIP3    H134565   5.331   0.923   0.677 -1.0240 -1.7637 -1.4448
 4358TIP3    H234566   5.286   1.068   0.683  1.6212 -0.9090 -0.7577
 4359TIP3   OH234567   6.315   1.598   4.378 -0.1578 -0.5182  0.3203
 4359TIP3    H134568   6.381   1.666   4.365 -1.1458  0.2931 -0.5361
 4359TIP3    H234569   6.231   1.644   4.375 -0.8696 -1.8265 -0.7786
 4360TIP3   OH234570   0.186   3.524  14.662  0.2693  0.0791  0.3568
 4360TIP3    H134571   0.221   3.438  14.636 -0.6319 -0.2129  0.0467
 4360TIP3    H234572   0.244   3.587  14.620  0.2414 -0.3917 -0.4128
 4361TIP3   OH234573   4.465   5.627   3.268  0.0775  0.1872 -0.6035
 4361TIP3    H134574   4.511   5.668   3.341  0.3398 -1.2206  0.0612
 4361TIP3    H234575   4.518   5.648   3.191  1.2898 -0.5248  0.0018
 4362TIP3   OH234576   6.325   4.437  16.873 -0.2717 -0.0607  0.0961
 4362TIP3    H134577   6.283   4.434  16.959  1.5648 -2.2519  1.0104
 4362TIP3    H234578   6.338   4.345  16.850 -0.3560  0.4922 -2.3793
 4363TIP3   OH234579   2.516   2.597  15.429  0.2622 -0.0091 -0.2373
 4363TIP3    H134580   2.486   2.523  15.376  1.0293 -0.7595  0.3442
 4363TIP3    H234581   2.477   2.582  15.515  0.0147  0.5418 -0.2510
 4364TIP3   OH234582   2.820   1.395  16.987 -0.2738  0.3142  0.0933
 4364TIP3    H134583   2.801   1.334  16.917 -1.5894  1.2093 -0.3769
 4364TIP3    H234584   2.905   1.434  16.964  0.6798 -1.4285  0.5117
 4365TIP3   OH234585   0.159   2.602   6.006  1.4006  0.1194 -0.1703
 4365TIP3    H134586   0.178   2.556   5.924 -0.4520  1.4521 -1.4261
 4365TIP3    H234587   0.106   2.540   6.057  1.7018 -0.3416 -0.4065
 4366TIP3   OH234588   2.731   1.944   3.614 -0.4356  0.2402  0.3298
 4366TIP3    H134589   2.715   1.860   3.658  0.2835  1.4163  3.0359
 4366TIP3    H234590   2.694   1.932   3.526 -2.8640 -1.9534  1.5059
 4367TIP3   OH234591   5.445   3.073   2.486 -0.4681 -0.2468  0.4397
 4367TIP3    H134592   5.452   2.987   2.446  0.0411  0.7971 -1.9037
 4367TIP3    H234593   5.381   3.120   2.432 -0.1749  1.0814  1.1838
 4368TIP3   OH234594   6.728   0.650   0.377  0.1866  0.4802 -0.1124
 4368TIP3    H134595   6.677   0.569   0.382  0.8524  0.1042  1.3532
 4368TIP3    H234596   6.815   0.624   0.409  0.3073  1.8483  0.7179
 4369TIP3   OH234597   6.024   4.710  15.916  0.2652  0.2705  0.1459
 4369TIP3    H134598   6.035   4.624  15.876  3.1737  0.9442 -0.7192
 4369TIP3    H234599   5.940   4.704  15.962 -0.5114 -2.3814 -1.4067
 4370TIP3   OH234600   2.167   0.866   4.471  0.1992 -0.6217 -0.8917
 4370TIP3    H134601   2.191   0.852   4.563 -0.3604 -4.0936 -1.1387
 4370TIP3    H234602   2.208   0.949   4.448  1.1114 -0.0755  2.2183
 4371TIP3   OH234603   6.693   3.424  14.741  0.7771 -0.0181 -0.3316
 4371TIP3    H134604   6.728   3.404  14.655  0.2474 -2.3300 -0.0658
 4371TIP3    H234605   6.648   3.508  14.729  3.6323  1.5044 -1.3940
 4372TIP3   OH234606   0.704   6.366  12.072  0.1019  0.1189  0.4012
 4372TIP3    H134607   0.652   6.406  12.142 -3.8461 -1.0082 -1.5806
 4372TIP3    H234608   0.710   6.433  12.005  0.4156 -0.0703  0.2386
 4373TIP3   OH234609   6.142   0.572   0.115  0.0234 -0.7085 -0.0880
 4373TIP3    H134610   6.209   0.622   0.163 -0.5084 -0.1693  0.0986
 4373TIP3    H234611   6.184   0.488   0.098  0.8261 -0.3076 -0.1495
 4374TIP3   OH234612   0.115   0.930  12.433  0.6020  0.3611 -0.1668
 4374TIP3    H134613   0.072   0.892  12.509 -0.1521 -0.2955 -0.8994
 4374TIP3    H234614   0.206   0.940  12.459  0.5785 -0.8750  0.4433
 4375TIP3   OH234615   4.827   2.687   4.577 -0.1389 -0.1980 -0.3688
 4375TIP3    H134616   4.753   2.650   4.529 -0.1833 -1.7491  0.8035
 4375TIP3    H234617   4.904   2.663   4.524 -0.4421  1.7141 -1.7656
 4376TIP3   OH234618   0.079   2.108   4.825 -0.3380  0.2371 -0.4323
 4376TIP3    H134619   0.135   2.170   4.779  0.3618 -0.6450 -0.8060
 4376TIP3    H234620  -0.008   2.120   4.787 -0.0106  0.3291 -1.1623
 4377TIP3   OH234621   3.969   4.160   4.113 -0.0590  0.5082  0.6279
 4377TIP3    H134622   4.025   4.138   4.038 -0.0681 -1.1195  1.0679
 4377TIP3    H234623   3.900   4.214   4.076  1.4695  2.1149 -0.0328
 4378TIP3   OH234624   6.663   3.103  15.262 -0.2775 -0.5412  0.4327
 4378TIP3    H134625   6.644   3.189  15.225  1.0565 -0.3765  0.0982
 4378TIP3    H234626   6.752   3.083  15.233 -0.4086 -1.8542  0.8524
 4379TIP3   OH234627   3.952   3.642  16.824 -0.2234  0.2630  0.5162
 4379TIP3    H134628   4.011   3.717  16.811 -0.0373  0.1135  0.4961
 4379TIP3    H234629   3.893   3.644  16.749 -1.9127  1.9447  1.7935
 4380TIP3   OH234630   0.110   3.292  15.929 -0.2135  0.2358 -0.0828
 4380TIP3    H134631   0.133   3.225  15.865 -1.2639 -0.4185  0.2016
 4380TIP3    H234632   0.182   3.354  15.926 -0.8666  1.0082 -2.9498
 4381TIP3   OH234633   3.154   6.064   2.122  0.3555  0.0616  0.1915
 4381TIP3    H134634   3.213   6.022   2.185 -1.5423 -1.0772  1.3162
 4381TIP3    H234635   3.192   6.044   2.037  0.9059 -1.7426  0.8167
 4382TIP3   OH234636   6.050   2.750  16.727 -0.2244  0.0859 -0.6612
 4382TIP3    H134637   5.977   2.730  16.786 -0.4626 -1.5422 -1.4409
 4382TIP3    H234638   6.016   2.729  16.640  0.8370  0.3392 -1.1431
 4383TIP3   OH234639   5.624   3.710  16.479 -0.0207  0.2473 -0.4153
 4383TIP3    H134640   5.709   3.753  16.488 -1.2269  2.8360 -0.5886
 4383TIP3    H234641   5.588   3.709  16.568 -0.5519  0.8365 -0.6177
 4384TIP3   OH234642   1.774   1.351  13.553  0.1408  0.2531 -0.2282
 4384TIP3    H134643   1.719   1.274  13.567  2.0797 -1.0272  0.6490
 4384TIP3    H234644   1.723   1.423  13.590 -0.2783 -1.1394  2.1267
 4385TIP3   OH234645   6.543   0.957  11.754  0.1772  0.2643  0.1269
 4385TIP3    H134646   6.609   0.937  11.688  0.8765  0.6287  0.6943
 4385TIP3    H234647   6.591   1.006  11.821 -0.5349 -0.0342  0.8661
 4386TIP3   OH234648   3.910   6.784   4.967  0.3033  0.7598 -0.4437
 4386TIP3    H134649   3.823   6.812   4.936 -0.6274  0.9618  2.1081
 4386TIP3    H234650   3.916   6.819   5.056  1.9031 -1.5230  0.4353
 4387TIP3   OH234651   0.385   4.164  10.681 -0.6572 -0.4593  0.3306
 4387TIP3    H134652   0.449   4.094  10.693 -0.0681 -0.0141 -0.0943
 4387TIP3    H234653   0.373   4.169  10.586 -0.6848  0.0153  0.3547
 4388TIP3   OH234654   3.013   4.430  12.472 -0.1066 -0.7585  0.5617
 4388TIP3    H134655   3.086   4.402  12.526  0.3989  0.3963  0.5199
 4388TIP3    H234656   2.994   4.356  12.415 -0.1839 -1.7348  1.8309
 4389TIP3   OH234657   6.306   2.407  14.205  0.1014 -0.1526  0.3050
 4389TIP3    H134658   6.315   2.315  14.181  0.8580  0.1917 -0.7702
 4389TIP3    H234659   6.388   2.447  14.177 -0.5938  1.0336 -0.0634
 4390TIP3   OH234660   2.746   0.661  13.562 -0.2510  0.0886 -0.0330
 4390TIP3    H134661   2.787   0.677  13.477 -0.8993 -3.0368 -1.0700
 4390TIP3    H234662   2.730   0.567  13.564  1.5802 -0.3662  4.4335
 4391TIP3   OH234663   4.439   5.556   0.500  0.1776  0.1921 -0.5398
 4391TIP3    H134664   4.464   5.499   0.427  1.5243  1.6349 -1.2756
 4391TIP3    H234665   4.521   5.574   0.546 -0.5544 -0.1677  0.9711
 4392TIP3   OH234666   1.187   1.651  11.334  0.2631 -0.1285 -0.2246
 4392TIP3    H134667   1.200   1.664  11.240  0.7515 -1.9825 -0.4570
 4392TIP3    H234668   1.096   1.624  11.343  0.0217  0.7150 -0.0704
 4393TIP3   OH234669   2.435   3.077  15.326 -0.5855 -0.3423  0.1020
 4393TIP3    H134670   2.362   3.127  15.363  0.0683  0.2236  0.6594
 4393TIP3    H234671   2.452   3.008  15.391  0.7074  0.7854  0.9992
 4394TIP3   OH234672   0.681   6.497  16.417 -0.4247  0.6328  0.1441
 4394TIP3    H134673   0.598   6.479  16.460 -0.0363  1.9332  1.5227
 4394TIP3    H234674   0.723   6.411  16.409 -1.4712  0.0880  0.3236
 4395TIP3   OH234675   6.511   5.984  14.265 -0.4300  0.5669  0.2515
 4395TIP3    H134676   6.428   6.021  14.295  0.5067  1.1309  2.3164
 4395TIP3    H234677   6.492   5.891  14.252 -1.4702  0.7603  0.2592
 4396TIP3   OH234678   6.366   5.353   2.076  0.7888  0.1841 -0.1939
 4396TIP3    H134679   6.439   5.399   2.033  1.6014 -2.9237 -2.5264
 4396TIP3    H234680   6.367   5.385   2.166  2.7647  2.8403 -1.0192
 4397TIP3   OH234681   6.135   6.407   4.640  0.4356 -0.4234 -0.1610
 4397TIP3    H134682   6.161   6.422   4.549  0.6335  1.5743  0.1785
 4397TIP3    H234683   6.042   6.386   4.635  0.7630 -1.8037 -0.9176
 4398TIP3   OH234684   5.041   1.958  15.257  0.0652 -0.7129 -0.5177
 4398TIP3    H134685   4.947   1.964  15.278  0.1818  1.2700 -0.4218
 4398TIP3    H234686   5.072   1.885  15.310 -1.2455 -0.7909  0.1949
 4399TIP3   OH234687   3.023   1.854  13.503  0.2592  0.1290  0.3370
 4399TIP3    H134688   3.090   1.800  13.545  0.2596  0.8389  1.2731
 4399TIP3    H234689   3.070   1.929  13.467  0.3372 -0.7183 -1.4458
 4400TIP3   OH234690   0.239   1.180  13.227 -0.7031 -0.7014 -0.1860
 4400TIP3    H134691   0.294   1.238  13.174 -0.4240 -0.1794  0.6521
 4400TIP3    H234692   0.227   1.227  13.310 -2.1094 -0.9653 -0.2091
 4401TIP3   OH234693   3.404   1.583   0.500 -0.0213  0.4749 -0.1833
 4401TIP3    H134694   3.324   1.531   0.497  0.5126 -0.4249  0.2667
 4401TIP3    H234695   3.444   1.559   0.584  0.4760  1.2675 -0.1870
 4402TIP3   OH234696   5.818   1.461   4.398  0.2128 -0.0743 -0.0259
 4402TIP3    H134697   5.809   1.397   4.327 -0.3229 -0.3385  0.2695
 4402TIP3    H234698   5.771   1.538   4.368  0.0410 -0.1632  0.0152
 4403TIP3   OH234699   0.648   1.487  10.697 -0.1888  0.3475 -0.6061
 4403TIP3    H134700   0.640   1.402  10.740  1.0738  0.9921  0.9916
 4403TIP3    H234701   0.567   1.496  10.646  0.4742 -2.6437 -2.4407
 4404TIP3   OH234702   4.394   5.339   1.289  0.3085 -0.0792 -0.1445
 4404TIP3    H134703   4.415   5.295   1.371  2.0892 -1.9958 -1.5011
 4404TIP3    H234704   4.298   5.341   1.286  0.2004  0.1548  1.9822
 4405TIP3   OH234705   5.987   1.325  17.204  0.3516 -0.7279  0.5144
 4405TIP3    H134706   5.911   1.279  17.170 -0.0716 -1.0482  1.8649
 4405TIP3    H234707   6.060   1.265  17.188  0.0983 -1.0428  0.5246
 4406TIP3   OH234708   1.272   2.137   2.644  0.0131 -0.4023 -0.0822
 4406TIP3    H134709   1.180   2.161   2.627 -1.1792 -0.8604  4.2879
 4406TIP3    H234710   1.272   2.042   2.647 -0.3035 -0.4215  3.0534
 4407TIP3   OH234711   2.100   3.100   5.450 -0.1295  0.4997 -0.6216
 4407TIP3    H134712   2.029   3.164   5.442 -0.5287  0.1940  0.3074
 4407TIP3    H234713   2.180   3.153   5.445 -0.4561  1.1419  0.5264
 4408TIP3   OH234714   0.683   0.592   6.053  0.1943 -0.3927 -0.5979
 4408TIP3    H134715   0.734   0.543   6.119 -1.3022  0.5121  1.3355
 4408TIP3    H234716   0.681   0.682   6.086 -3.0030 -0.4684 -0.2647
 4409TIP3   OH234717   3.569   0.411  16.482 -0.4439  0.1748 -0.5154
 4409TIP3    H134718   3.615   0.407  16.398 -0.3934 -0.1726 -0.4733
 4409TIP3    H234719   3.584   0.500  16.514 -0.0124  0.1429 -0.6223
 4410TIP3   OH234720   4.505   0.722   5.791 -0.1751 -0.0632 -0.2631
 4410TIP3    H134721   4.416   0.728   5.756 -0.2286 -0.0644 -0.1284
 4410TIP3    H234722   4.553   0.670   5.727 -0.5062 -0.8643  0.1380
 4411TIP3   OH234723   0.918   6.513   4.268  0.4588  0.2868  0.0965
 4411TIP3    H134724   0.887   6.467   4.190  0.0841 -0.4265  0.6542
 4411TIP3    H234725   0.983   6.454   4.306  2.1416  1.5106 -0.7404
 4412TIP3   OH234726   5.203   4.846  12.727 -0.8034  0.1293  0.0315
 4412TIP3    H134727   5.120   4.805  12.704 -2.2187  2.3981  0.8011
 4412TIP3    H234728   5.257   4.836  12.648 -1.6143 -1.7018 -0.3599
 4413TIP3   OH234729   0.536   1.455  12.273 -0.4902 -0.1791  0.3019
 4413TIP3    H134730   0.504   1.517  12.207  0.4908  1.4475  1.3013
 4413TIP3    H234731   0.471   1.385  12.272 -2.4074  1.5132  0.0882
 4414TIP3   OH234732   1.108   1.550  16.844  0.4257 -0.0576  0.5909
 4414TIP3    H134733   1.123   1.571  16.936 -0.2061 -0.9714  0.9157
 4414TIP3    H234734   1.155   1.468  16.829 -0.7685 -0.7729  0.5512
 4415TIP3   OH234735   5.362   3.091  16.250  0.1422  0.7388 -1.0475
 4415TIP3    H134736   5.377   3.173  16.296 -1.0723  0.3131  0.1901
 4415TIP3    H234737   5.330   3.031  16.318  0.3126 -0.5504 -2.0556
 4416TIP3   OH234738   0.666   1.630   5.373 -0.0703  0.0505 -0.2665
 4416TIP3    H134739   0.665   1.543   5.414 -2.6493  0.1314  0.0122
 4416TIP3    H234740   0.604   1.681   5.425  1.8328  2.2962 -0.0414
 4417TIP3   OH234741   6.339   2.826  15.993 -0.3428 -0.0268  0.2122
 4417TIP3    H134742   6.267   2.885  15.972 -0.1635 -0.1676 -0.8467
 4417TIP3    H234743   6.404   2.881  16.036 -0.8519  0.2088  0.6822
 4418TIP3   OH234744   3.857   3.520   1.157 -0.5536  0.4660  0.7471
 4418TIP3    H134745   3.898   3.437   1.135  1.5856  1.1186  1.9203
 4418TIP3    H234746   3.850   3.519   1.253 -1.1970  1.3304  0.7218
 4419TIP3   OH234747   1.519   2.340   5.475 -0.0905 -0.3695  0.0653
 4419TIP3    H134748   1.444   2.370   5.526  0.7849 -0.2209  1.2966
 4419TIP3    H234749   1.503   2.375   5.387 -0.6735  1.0075  0.6841
 4420TIP3   OH234750   0.574   3.610  15.083 -0.0015  0.2684  0.1598
 4420TIP3    H134751   0.586   3.703  15.061  1.8230 -0.1623 -0.7853
 4420TIP3    H234752   0.479   3.602  15.097 -0.0927  2.4883  1.3413
 4421TIP3   OH234753   6.098   1.005  17.058 -0.4510 -0.1667 -0.5367
 4421TIP3    H134754   6.157   0.929  17.057 -2.5010 -1.8481 -0.0009
 4421TIP3    H234755   6.032   0.985  16.991 -1.0353  1.1775 -0.3920
 4422TIP3   OH234756   1.853   3.235   5.412  0.6888 -0.7071  0.5915
 4422TIP3    H134757   1.812   3.321   5.398  0.6069 -0.6840  0.9604
 4422TIP3    H234758   1.780   3.177   5.435  0.7740 -0.8233  0.5694
 4423TIP3   OH234759   2.529   6.327   1.944  0.0208  0.0993 -0.1391
 4423TIP3    H134760   2.460   6.304   1.882  0.5068  1.4313 -1.2175
 4423TIP3    H234761   2.535   6.251   2.002 -1.1922 -0.7323 -1.0522
 4424TIP3   OH234762   2.120   2.505  15.379 -0.5653 -0.0107  0.3064
 4424TIP3    H134763   2.081   2.589  15.356 -0.4413  1.1324  3.7955
 4424TIP3    H234764   2.045   2.445  15.386 -0.8375  0.2270 -0.4080
 4425TIP3   OH234765   3.771   0.447   5.878 -0.2195 -0.6136  0.2514
 4425TIP3    H134766   3.810   0.367   5.842 -1.4167 -0.4979 -1.4238
 4425TIP3    H234767   3.677   0.433   5.870 -0.5335 -0.2050  2.6458
 4426TIP3   OH234768   0.439   5.113  15.330 -0.3462  0.1603 -0.1505
 4426TIP3    H134769   0.384   5.088  15.404 -0.4859 -0.5479 -0.4917
 4426TIP3    H234770   0.516   5.057  15.337  0.0703  0.7274 -0.0282
 4427TIP3   OH234771   6.162   6.361  13.647  0.1378 -0.4662  0.6149
 4427TIP3    H134772   6.081   6.338  13.692 -0.5610  3.6248  1.8170
 4427TIP3    H234773   6.228   6.367  13.716  1.1709 -2.2000 -0.1427
 4428TIP3   OH234774   2.806   5.875   3.019  0.2167 -0.4786 -0.9625
 4428TIP3    H134775   2.887   5.890   3.066  0.6133 -3.4496 -0.4823
 4428TIP3    H234776   2.829   5.888   2.927  0.2689  2.0979 -0.6602
 4429TIP3   OH234777   1.888   1.662  13.317  0.5211  0.3670  0.0065
 4429TIP3    H134778   1.798   1.676  13.348  0.7020  1.4368  0.0996
 4429TIP3    H234779   1.889   1.700  13.229  0.3626 -1.4767 -0.8411
 4430TIP3   OH234780   4.417   4.555  13.294  0.4230 -0.1539 -0.1259
 4430TIP3    H134781   4.388   4.511  13.214  3.3301 -1.8623 -0.3963
 4430TIP3    H234782   4.357   4.525  13.362 -0.8495 -0.2905 -1.2684
 4431TIP3   OH234783   3.319   5.740   3.773  0.2317  0.2944  0.2873
 4431TIP3    H134784   3.238   5.726   3.725  0.8609 -2.4946 -0.1454
 4431TIP3    H234785   3.358   5.818   3.733 -1.3717  0.6296 -0.6973
 4432TIP3   OH234786   0.328   1.095   2.785 -0.2323 -0.8131  0.3393
 4432TIP3    H134787   0.376   1.084   2.867  1.3327 -0.8574 -0.5322
 4432TIP3    H234788   0.390   1.141   2.728 -1.4566 -0.3673 -0.6683
 4433TIP3   OH234789   5.858   6.017  11.600 -0.5001  0.1053  0.2319
 4433TIP3    H134790   5.895   5.940  11.644  1.0695  0.6040 -0.1224
 4433TIP3    H234791   5.913   6.090  11.630 -0.4681  0.7164 -1.2306
 4434TIP3   OH234792   4.876   3.150  16.229  0.3514 -0.2838  0.2628
 4434TIP3    H134793   4.923   3.174  16.150 -1.2881 -1.3375 -1.1145
 4434TIP3    H234794   4.896   3.057  16.242  0.3295 -0.2107  0.8823
 4435TIP3   OH234795   0.154   4.216  12.970 -0.4547  0.8833  0.1999
 4435TIP3    H134796   0.215   4.234  12.898 -0.8579  2.6498  0.2644
 4435TIP3    H234797   0.200   4.245  13.048 -1.7713  3.5172  0.1281
 4436TIP3   OH234798   2.854   3.760  10.963 -0.7878  0.3531  0.6330
 4436TIP3    H134799   2.763   3.777  10.987 -0.1128  0.5703  3.5079
 4436TIP3    H234800   2.882   3.692  11.025  0.6793 -0.5855 -0.9837
 4437TIP3   OH234801   6.599   4.277  11.421 -0.6527 -0.2646 -0.5153
 4437TIP3    H134802   6.663   4.308  11.357 -1.1820 -0.6208 -1.2314
 4437TIP3    H234803   6.589   4.350  11.482  0.4713 -0.2247 -0.3529
 4438TIP3   OH234804   1.809   5.793   1.408  0.7306  0.2938 -0.0963
 4438TIP3    H134805   1.796   5.792   1.313 -2.1416 -0.2368  0.2150
 4438TIP3    H234806   1.763   5.715   1.440  3.7948 -0.9847  1.5801
 4439TIP3   OH234807   1.457   0.497  17.015 -0.1847 -0.0886 -0.0689
 4439TIP3    H134808   1.490   0.416  17.053 -0.7250 -1.1497 -1.7955
 4439TIP3    H234809   1.377   0.515  17.064 -0.9146 -1.4685 -0.7158
 4440TIP3   OH234810   3.986   6.035  16.521  1.1401  0.3125 -0.3552
 4440TIP3    H134811   3.974   5.946  16.488  0.8046  0.2060  0.0488
 4440TIP3    H234812   4.055   6.027  16.587 -0.7045 -0.1705  1.6649
 4441TIP3   OH234813   1.601   3.734   3.595 -0.2075 -0.8990  0.0602
 4441TIP3    H134814   1.613   3.763   3.505 -0.2346 -0.6128  0.1472
 4441TIP3    H234815   1.611   3.813   3.647 -0.8654 -0.9392  0.2559
 4442TIP3   OH234816   4.478   2.306  14.955 -0.0284 -0.6161  0.3996
 4442TIP3    H134817   4.445   2.396  14.948 -0.1950 -0.7245 -0.3875
 4442TIP3    H234818   4.399   2.252  14.962  0.0247 -0.7631 -0.0507
 4443TIP3   OH234819   5.931   3.699  13.429 -0.0294 -0.0575 -0.2792
 4443TIP3    H134820   5.889   3.670  13.348 -1.6163  3.7554 -1.0523
 4443TIP3    H234821   6.005   3.752  13.400 -1.1256  2.0906  0.5933
 4444TIP3   OH234822   3.361   1.624  12.646 -0.2156  0.4449  0.1250
 4444TIP3    H134823   3.361   1.534  12.678  0.9818  0.2704 -0.3342
 4444TIP3    H234824   3.405   1.674  12.714  1.2344  0.2747 -0.6502
 4445TIP3   OH234825   5.801   2.937   0.315 -0.6506  0.3493  0.3948
 4445TIP3    H134826   5.822   3.026   0.345 -1.5822  0.4447  0.7906
 4445TIP3    H234827   5.846   2.879   0.376  0.0008  0.5434  0.1080
 4446TIP3   OH234828   2.888   4.852  16.026  0.2477  0.3005 -0.6841
 4446TIP3    H134829   2.924   4.887  15.945 -0.4164  0.4820 -0.9072
 4446TIP3    H234830   2.812   4.800  15.998  0.1299  0.2038 -0.1962
 4447TIP3   OH234831   1.897   1.260   0.595 -0.5163  0.0780  0.0792
 4447TIP3    H134832   1.977   1.301   0.629 -0.0201 -1.4804  0.8683
 4447TIP3    H234833   1.838   1.256   0.670 -0.3992 -1.0175  0.1205
 4448TIP3   OH234834   0.917   3.634  10.207 -0.7321  0.2915  0.6265
 4448TIP3    H134835   0.980   3.703  10.190 -1.4383  0.4971 -1.4388
 4448TIP3    H234836   0.963   3.553  10.186 -0.9114  0.3854 -0.1419
 4449TIP3   OH234837   1.073   4.558  11.128  0.4186 -0.7070 -0.1081
 4449TIP3    H134838   1.058   4.476  11.080  0.5601 -0.3526 -0.7663
 4449TIP3    H234839   1.134   4.607  11.073  1.4902 -0.7744  0.9798
 4450TIP3   OH234840   6.247   1.928   3.254 -0.1166 -0.2784 -0.0705
 4450TIP3    H134841   6.234   2.015   3.217 -0.1593 -0.2369  0.0412
 4450TIP3    H234842   6.317   1.889   3.201  0.7667  0.2901  0.6395
 4451TIP3   OH234843   0.849   3.121   6.541 -0.0772 -0.2636  0.2562
 4451TIP3    H134844   0.820   3.037   6.576 -1.6714  0.5693  1.0174
 4451TIP3    H234845   0.937   3.103   6.506  0.0272 -1.9948  1.3003
 4452TIP3   OH234846   4.816   3.596  14.793 -0.4869 -0.7385  0.2953
 4452TIP3    H134847   4.832   3.537  14.720  0.6620 -0.5744  0.4010
 4452TIP3    H234848   4.772   3.541  14.859  2.2482 -2.0562  1.1603
 4453TIP3   OH234849   4.920   6.135   3.145  0.1854 -0.6652  0.5724
 4453TIP3    H134850   4.916   6.173   3.057 -0.4113  0.6516  1.1390
 4453TIP3    H234851   4.920   6.041   3.130  0.8604 -0.4786 -0.8703
 4454TIP3   OH234852   2.275   6.685   3.323 -0.0068  0.3509  0.9883
 4454TIP3    H134853   2.192   6.723   3.296  0.7049  0.8648 -0.5695
 4454TIP3    H234854   2.254   6.593   3.343 -0.9545  0.4928  0.6875
 4455TIP3   OH234855   5.228   3.183  16.919  0.2863  0.5069  0.5551
 4455TIP3    H134856   5.158   3.189  16.854  0.3923 -0.1587  0.3777
 4455TIP3    H234857   5.279   3.263  16.908 -0.5432  1.0784  0.7959
 4456TIP3   OH234858   2.693   1.552  10.583  0.0448 -0.2642 -0.3428
 4456TIP3    H134859   2.670   1.574  10.492  0.7952  0.6161 -0.3308
 4456TIP3    H234860   2.781   1.516  10.577  0.5033  0.7405  0.1469
 4457TIP3   OH234861   4.121   1.415  12.614 -0.0038 -0.1088  0.3384
 4457TIP3    H134862   4.181   1.360  12.663  0.6363 -1.2005 -1.5959
 4457TIP3    H234863   4.168   1.498  12.603  0.9624 -0.7630 -0.6738
 4458TIP3   OH234864   1.652   3.248  11.238  0.0542  0.3875  0.0531
 4458TIP3    H134865   1.719   3.290  11.291  0.2728  0.1488 -0.0320
 4458TIP3    H234866   1.575   3.244  11.295 -0.1832  1.5281 -0.1735
 4459TIP3   OH234867   1.405   0.636  14.808 -0.5668 -0.2746  0.1277
 4459TIP3    H134868   1.395   0.644  14.903 -1.8297  0.4150 -0.0465
 4459TIP3    H234869   1.329   0.584  14.781 -0.6494  0.2253 -0.6046
 4460TIP3   OH234870   4.017   5.620  12.435  0.5092 -0.0775 -0.1933
 4460TIP3    H134871   4.041   5.705  12.399 -0.0141  0.1165 -0.0854
 4460TIP3    H234872   3.927   5.606  12.407 -0.8010  1.1488  2.9526
 4461TIP3   OH234873   1.788   4.647   3.644 -0.1339  0.2971 -0.3680
 4461TIP3    H134874   1.814   4.645   3.736  2.3647  1.3338 -0.9589
 4461TIP3    H234875   1.728   4.721   3.637 -0.4979  0.0902  0.4393
 4462TIP3   OH234876   2.216   5.614   0.401  0.4028 -0.2051 -0.4482
 4462TIP3    H134877   2.185   5.699   0.433  1.2114  0.1874 -0.6810
 4462TIP3    H234878   2.282   5.587   0.465  1.0337 -0.0700 -1.0292
 4463TIP3   OH234879   2.293   6.216  14.960 -0.0075 -0.3992 -0.1587
 4463TIP3    H134880   2.237   6.289  14.987 -1.1365 -1.1741 -0.3396
 4463TIP3    H234881   2.316   6.173  15.043 -1.3946 -1.2929 -0.2246
 4464TIP3   OH234882   1.910   5.053   1.724 -0.4700  0.1768 -0.3902
 4464TIP3    H134883   1.901   5.112   1.799 -0.0740 -2.0089  1.4881
 4464TIP3    H234884   1.979   4.991   1.750  1.0592  0.4402 -3.3731
 4465TIP3   OH234885   5.524   0.769  15.665  0.5561  0.6236  0.3262
 4465TIP3    H134886   5.554   0.678  15.665 -1.8654 -0.2420 -0.7718
 4465TIP3    H234887   5.547   0.802  15.578 -1.6914 -0.1284 -0.6243
 4466TIP3   OH234888   1.333   0.033  15.928  0.2722  0.0403  0.3610
 4466TIP3    H134889   1.282   0.102  15.885 -0.6688 -0.2839  0.9474
 4466TIP3    H234890   1.411   0.024  15.873 -0.2279  0.6380 -0.4720
 4467TIP3   OH234891   4.648   1.499   1.661 -0.3280  0.2447  0.2116
 4467TIP3    H134892   4.691   1.584   1.667 -1.1831  0.6870  0.1552
 4467TIP3    H234893   4.564   1.517   1.618  0.1201 -0.8555 -1.2133
 4468TIP3   OH234894   4.417   4.995  13.594 -0.3940  0.3135  0.2875
 4468TIP3    H134895   4.391   4.903  13.582 -0.5613  0.6219 -2.4291
 4468TIP3    H234896   4.336   5.041  13.613 -0.9397  0.3155 -1.7340
 4469TIP3   OH234897   0.005   1.427  14.962  0.3187 -0.3143  0.0984
 4469TIP3    H134898   0.033   1.399  15.049  0.0808  0.1818  0.3381
 4469TIP3    H234899   0.076   1.401  14.904 -0.0416 -1.7591  0.2486
 4470TIP3   OH234900   1.984   6.655  11.351 -0.0981 -0.4479 -0.2388
 4470TIP3    H134901   1.979   6.643  11.256  1.1053 -1.9622 -0.1381
 4470TIP3    H234902   1.901   6.620  11.383  0.8495 -3.1801 -0.4995
 4471TIP3   OH234903   1.556   4.904   0.658  0.0353 -0.1772  0.1726
 4471TIP3    H134904   1.647   4.880   0.642  0.2036 -0.0048  0.8288
 4471TIP3    H234905   1.556   4.939   0.747 -0.5484  0.4767 -0.0806
 4472TIP3   OH234906   5.973   5.589  14.261 -0.0667 -0.7647  0.4812
 4472TIP3    H134907   6.041   5.592  14.194  1.2052  0.6133  1.7658
 4472TIP3    H234908   5.961   5.680  14.288 -1.9829 -1.0571  0.7522
 4473TIP3   OH234909   4.881   3.777  10.493 -0.7316 -0.2307 -0.3081
 4473TIP3    H134910   4.895   3.804  10.583 -0.0105 -0.8423 -0.2229
 4473TIP3    H234911   4.895   3.682  10.494 -0.4740 -0.2124 -1.0972
 4474TIP3   OH234912   6.613   3.879  10.891 -0.3691 -0.5953  0.1337
 4474TIP3    H134913   6.687   3.893  10.833 -0.2914 -1.6613 -0.0538
 4474TIP3    H234914   6.540   3.860  10.832 -1.0293  1.2752  0.2718
 4475TIP3   OH234915   6.729   5.212   2.866 -0.1057 -0.0339 -0.0147
 4475TIP3    H134916   6.742   5.199   2.960  0.2023  1.6054  0.1935
 4475TIP3    H234917   6.638   5.239   2.858  0.8678  4.0325  0.3949
 4476TIP3   OH234918   6.746   0.577  11.637  0.5059  0.6815 -0.3984
 4476TIP3    H134919   6.819   0.528  11.600  0.3555 -0.5260  0.8283
 4476TIP3    H234920   6.673   0.561  11.577  0.3547 -0.9683  0.1911
 4477TIP3   OH234921   5.881   2.967   1.305 -0.6876 -0.4445 -0.7627
 4477TIP3    H134922   5.936   2.968   1.384  1.1606 -1.4204 -1.9521
 4477TIP3    H234923   5.835   3.050   1.308 -0.7637 -0.4906  1.3905
 4478TIP3   OH234924   4.305   4.287   5.011  0.3361  0.5286  0.0352
 4478TIP3    H134925   4.263   4.370   5.034  0.2464 -0.0147  1.9714
 4478TIP3    H234926   4.240   4.242   4.956  0.0491  1.3806 -0.3438
 4479TIP3   OH234927   4.353   3.388   1.607  1.0180  0.0313 -0.0917
 4479TIP3    H134928   4.383   3.327   1.675 -0.9177 -1.3172 -0.3520
 4479TIP3    H234929   4.422   3.386   1.541  1.7923 -0.5290  0.7066
 4480TIP3   OH234930   4.244   6.504  17.103 -0.1074 -0.0997  0.4275
 4480TIP3    H134931   4.337   6.482  17.096  1.0770  3.7932  1.0829
 4480TIP3    H234932   4.204   6.466  17.024  1.9673 -1.9751  0.1897
 4481TIP3   OH234933   6.151   2.299   2.576  0.2879  0.2576 -0.0960
 4481TIP3    H134934   6.072   2.354   2.577  0.9020  1.1552 -0.0589
 4481TIP3    H234935   6.206   2.334   2.646  0.1363 -1.2752  0.8294
 4482TIP3   OH234936   2.649   6.498  16.919  0.2179  0.1963 -0.6439
 4482TIP3    H134937   2.734   6.491  16.874  0.6824  2.2482 -0.1827
 4482TIP3    H234938   2.667   6.553  16.995 -1.2524 -0.5138  0.2568
 4483TIP3   OH234939   1.168   5.596   2.523 -0.3187 -0.0286 -0.2976
 4483TIP3    H134940   1.086   5.565   2.560 -1.6435  1.1768 -2.0318
 4483TIP3    H234941   1.184   5.680   2.567 -1.0851  0.6660 -1.2891
 4484TIP3   OH234942   0.966   3.510   1.887 -0.1041 -0.0246  0.1314
 4484TIP3    H134943   0.987   3.476   1.974 -0.9722  0.1670  0.4268
 4484TIP3    H234944   1.016   3.455   1.827  1.2163  0.4184  0.7893
 4485TIP3   OH234945   0.404   0.606   5.706  0.2979 -0.1448 -0.8960
 4485TIP3    H134946   0.399   0.701   5.714 -0.7184 -0.2306 -0.3004
 4485TIP3    H234947   0.316   0.579   5.679 -0.3532 -1.1367  1.8480
 4486TIP3   OH234948   6.131   4.125  10.859 -0.1391 -0.4949  0.5390
 4486TIP3    H134949   6.144   4.218  10.841 -1.2308 -0.2392  0.9756
 4486TIP3    H234950   6.061   4.099  10.799  0.5434 -1.1859  0.0201
 4487TIP3   OH234951   4.412   2.057   4.080 -0.5959  0.0644 -0.1758
 4487TIP3    H134952   4.463   1.999   4.137 -0.8640  1.0589  1.1125
 4487TIP3    H234953   4.321   2.029   4.093 -0.5567 -0.5433 -1.1192
 4488TIP3   OH234954   2.299   3.403   1.228 -0.0566  0.1638 -0.1466
 4488TIP3    H134955   2.271   3.328   1.174 -0.6079  0.6355 -0.5247
 4488TIP3    H234956   2.387   3.379   1.257 -0.5434 -1.0039  0.4356
 4489TIP3   OH234957   3.276   2.259  11.859  0.0992  0.5643 -0.0163
 4489TIP3    H134958   3.278   2.339  11.805 -1.4213  2.1585  2.1130
 4489TIP3    H234959   3.306   2.287  11.945 -2.1919 -0.6581  1.2911
 4490TIP3   OH234960   2.538   4.871   2.276 -0.4709  0.4681  0.4460
 4490TIP3    H134961   2.445   4.887   2.259 -0.8587 -0.8985  1.0860
 4490TIP3    H234962   2.565   4.941   2.335 -0.6981  1.7037 -0.8598
 4491TIP3   OH234963   1.474   2.746   3.783 -0.0712  0.1929  0.3505
 4491TIP3    H134964   1.545   2.795   3.824  1.2641 -0.3833 -1.1852
 4491TIP3    H234965   1.406   2.742   3.850 -0.7118  4.9102  0.3434
 4492TIP3   OH234966   5.410   0.903  15.851  0.4762  0.0226  0.5759
 4492TIP3    H134967   5.447   0.854  15.777 -0.2647  3.2106 -2.1845
 4492TIP3    H234968   5.478   0.966  15.874 -0.0993  0.4507  1.1449
 4493TIP3   OH234969   2.496   5.502   5.795 -0.0191 -0.4653  0.0449
 4493TIP3    H134970   2.486   5.417   5.839 -0.4530 -0.8402 -0.7619
 4493TIP3    H234971   2.419   5.510   5.740 -0.0275  0.5062  0.1776
 4494TIP3   OH234972   4.753   1.023  17.146  0.0163 -0.1906  0.2988
 4494TIP3    H134973   4.664   0.987  17.144  0.4506 -1.3331  0.3655
 4494TIP3    H234974   4.764   1.064  17.060 -0.3880 -0.5515  0.0665
 4495TIP3   OH234975   2.073   5.730  11.445 -0.0165 -0.3863  0.0543
 4495TIP3    H134976   2.163   5.725  11.475 -0.7344 -0.2360  2.4753
 4495TIP3    H234977   2.059   5.822  11.426 -0.2866  0.0136  2.0033
 4496TIP3   OH234978   6.510   6.144  16.728 -0.7699 -0.3764  0.1004
 4496TIP3    H134979   6.502   6.049  16.738 -2.3501 -0.3670 -0.6199
 4496TIP3    H234980   6.566   6.155  16.651 -1.6851 -0.7887 -0.6586
 4497TIP3   OH234981   6.459   0.679   0.035  0.0151 -0.2456  0.1026
 4497TIP3    H134982   6.538   0.627   0.047  0.2004  0.0972  0.4057
 4497TIP3    H234983   6.434   0.666  -0.056 -0.1768 -1.1839  0.2824
 4498TIP3   OH234984   5.504   2.087   5.550 -0.0495 -0.4653 -0.2763
 4498TIP3    H134985   5.538   2.167   5.512 -1.7246  1.1349  1.3787
 4498TIP3    H234986   5.444   2.052   5.484 -0.9095  0.8102 -0.1928
 4499TIP3   OH234987   2.846   5.036  14.289  0.2338  0.2802 -0.1243
 4499TIP3    H134988   2.771   5.089  14.263  0.7826  1.5805  0.8384
 4499TIP3    H234989   2.849   4.965  14.225 -2.6606 -0.6317  0.6175
 4500TIP3   OH234990   5.112   2.221   5.175 -0.2701 -0.2139  0.1777
 4500TIP3    H134991   5.096   2.149   5.236  0.9529  0.2239  1.0745
 4500TIP3    H234992   5.189   2.266   5.211 -1.6368  2.2213  0.3203
 4501TIP3   OH234993   3.050   4.708   6.397  0.4112 -0.1330 -0.2695
 4501TIP3    H134994   2.957   4.693   6.413  0.6632 -0.5863  0.8890
 4501TIP3    H234995   3.089   4.620   6.402  1.1572  0.2502  1.2094
 4502TIP3   OH234996   4.085   0.367   5.980 -0.0762  0.3502 -0.0084
 4502TIP3    H134997   4.106   0.297   5.918 -0.7566 -0.7846  0.9789
 4502TIP3    H234998   4.132   0.343   6.060 -1.3476  0.2778  0.7539
 4503TIP3   OH234999   2.119   2.766   4.136  0.2256  0.1986  0.4904
 4503TIP3    H135000   2.094   2.748   4.046  0.2789 -2.2535  0.9100
 4503TIP3    H235001   2.037   2.794   4.179 -0.7526 -2.5837  0.5958
 4504TIP3   OH235002   2.360   1.358  12.074 -0.0239  0.9530  0.1959
 4504TIP3    H135003   2.433   1.307  12.108 -0.8678 -0.4352  0.0244
 4504TIP3    H235004   2.390   1.448  12.075  2.1840  0.3030 -1.1466
 4505TIP3   OH235005   4.115   1.225  11.934 -0.3294  0.4912  0.2769
 4505TIP3    H135006   4.201   1.188  11.917 -1.8234 -3.1731 -0.2536
 4505TIP3    H235007   4.116   1.247  12.027  0.9868  0.0161  0.3855
 4506TIP3   OH235008   2.880   2.971   2.557  0.5400 -0.4025 -0.4163
 4506TIP3    H135009   2.865   2.876   2.559  2.2711 -0.7382  2.1989
 4506TIP3    H235010   2.811   3.007   2.614  0.5493 -0.2311 -0.5144
 4507TIP3   OH235011   0.508   1.155  10.644 -0.0170  0.7805  0.0408
 4507TIP3    H135012   0.430   1.211  10.635 -1.7182 -1.6169 -1.4284
 4507TIP3    H235013   0.486   1.095  10.715 -0.1565 -0.7625 -1.2420
 4508TIP3   OH235014   6.491   4.866  17.012 -0.0333  0.0052  0.3281
 4508TIP3    H135015   6.436   4.832  17.083  0.8500 -1.8272  0.1795
 4508TIP3    H235016   6.579   4.866  17.049  0.0375  2.1870  0.2998
 4509TIP3   OH235017   5.308   1.043  12.226 -0.2685 -0.3684  0.4447
 4509TIP3    H135018   5.330   1.089  12.145 -1.2723  1.7665  1.3080
 4509TIP3    H235019   5.369   1.078  12.291  1.1232 -2.6962  0.5312
 4510TIP3   OH235020   0.851   4.429   4.068 -0.2126 -0.1111  0.0189
 4510TIP3    H135021   0.894   4.510   4.097  0.0815  0.4608 -1.9110
 4510TIP3    H235022   0.758   4.452   4.064  0.0425  0.7925 -2.3497
 4511TIP3   OH235023   1.174   4.622   4.218 -0.0925  0.1167 -0.2949
 4511TIP3    H135024   1.129   4.706   4.229 -0.0530  0.2839 -1.3081
 4511TIP3    H235025   1.225   4.612   4.298 -0.6102  0.7382  0.1300
 4512TIP3   OH235026   1.798   0.884  14.072  0.2921 -0.1610 -0.0293
 4512TIP3    H135027   1.755   0.970  14.073 -1.3814 -0.9165  2.4518
 4512TIP3    H235028   1.881   0.898  14.117 -0.5854 -0.0484  1.6368
 4513TIP3   OH235029   0.627   2.697  12.219 -0.5434  0.2134  0.2587
 4513TIP3    H135030   0.691   2.677  12.287  1.1564 -1.7629 -1.7169
 4513TIP3    H235031   0.599   2.611  12.187  0.7719  0.8968 -3.2296
 4514TIP3   OH235032   0.483   0.631  12.407  0.1984 -0.6547 -0.2115
 4514TIP3    H135033   0.421   0.682  12.354  1.1692  0.3962 -0.3773
 4514TIP3    H235034   0.566   0.639  12.360  0.3580 -2.5585 -0.3260
 4515TIP3   OH235035   6.605   0.984   5.442  0.4870 -0.4575 -0.1696
 4515TIP3    H135036   6.614   0.890   5.454  0.2459 -0.4999 -0.3216
 4515TIP3    H235037   6.694   1.018   5.449  0.5376 -0.6609  0.1885
 4516TIP3   OH235038   4.969   3.434   0.887  0.1063 -0.9140 -0.1310
 4516TIP3    H135039   5.019   3.515   0.881  0.9325 -1.2158  1.9375
 4516TIP3    H235040   4.879   3.460   0.867  0.5156  0.3063 -0.4950
 4517TIP3   OH235041   2.828   0.856   2.075 -0.0870 -0.7251 -0.0035
 4517TIP3    H135042   2.867   0.917   2.012 -1.1336  1.6083  1.4850
 4517TIP3    H235043   2.735   0.878   2.076  0.2175  1.1901  4.1465
 4518TIP3   OH235044   2.189   5.756   5.742 -0.0635 -0.2574 -0.3435
 4518TIP3    H135045   2.167   5.663   5.737 -0.1991 -0.2320 -0.2056
 4518TIP3    H235046   2.105   5.801   5.740 -0.0091 -0.1471 -0.1618
 4519TIP3   OH235047   2.539   1.148  16.317 -0.6348  0.1702  0.1194
 4519TIP3    H135048   2.577   1.069  16.279 -0.5139 -0.2253  1.0225
 4519TIP3    H235049   2.606   1.215  16.304  0.5630 -0.5902  1.9513
 4520TIP3   OH235050   0.818   0.166   5.116 -0.8047  0.2608 -0.3985
 4520TIP3    H135051   0.894   0.223   5.128 -0.6539  0.0815 -0.5111
 4520TIP3    H235052   0.815   0.149   5.022 -0.5131 -0.3799 -0.2945
 4521TIP3   OH235053   4.794   2.921   5.602  0.1098  0.1572  0.2517
 4521TIP3    H135054   4.813   2.828   5.612  0.2219  0.2011  0.4328
 4521TIP3    H235055   4.745   2.944   5.680  3.3073  1.1345  2.1378
 4522TIP3   OH235056   3.286   3.449  15.193  0.0124  0.4679  0.4421
 4522TIP3    H135057   3.348   3.495  15.249  0.5908  1.6357 -1.0785
 4522TIP3    H235058   3.268   3.510  15.122 -2.1606 -0.2237  0.3321
 4523TIP3   OH235059   0.409   2.879   2.889  0.2894 -0.5990 -0.3887
 4523TIP3    H135060   0.414   2.974   2.903  0.2028 -0.4888 -1.0741
 4523TIP3    H235061   0.351   2.847   2.958 -0.3090 -0.0467 -0.6272
 4524TIP3   OH235062   6.026   3.620   3.537 -0.1139  0.2745  0.3815
 4524TIP3    H135063   6.038   3.563   3.613 -0.4688  0.5795  0.6702
 4524TIP3    H235064   5.958   3.577   3.485 -0.5054  0.5159  0.6858
 4525TIP3   OH235065   2.052   5.814   0.122  0.1571  0.3570  0.3111
 4525TIP3    H135066   2.011   5.842   0.204  0.2466 -0.2799  0.5796
 4525TIP3    H235067   2.137   5.778   0.148  0.3613  0.5337 -0.1064
 4526TIP3   OH235068   1.587   4.265   2.195  0.2381  0.9106 -0.5216
 4526TIP3    H135069   1.611   4.323   2.122  1.0031  0.4943 -0.6177
 4526TIP3    H235070   1.514   4.213   2.162  1.7027 -0.5285 -1.6724
 4527TIP3   OH235071   0.411   0.459   5.125  0.2667  0.2898  0.0287
 4527TIP3    H135072   0.489   0.515   5.125 -0.1326  0.8592  0.7661
 4527TIP3    H235073   0.338   0.519   5.139 -0.2741 -0.2921 -0.2331
 4528TIP3   OH235074   2.531   2.045  14.757 -0.1229  0.3175 -0.3653
 4528TIP3    H135075   2.569   2.128  14.727 -0.8297  0.7222 -0.1619
 4528TIP3    H235076   2.606   1.987  14.768  0.4174  1.0552 -0.1252
 4529TIP3   OH235077   3.093   1.125  12.096 -0.0058 -0.1918 -0.1037
 4529TIP3    H135078   3.105   1.219  12.078  1.8919 -0.0633  1.4497
 4529TIP3    H235079   3.174   1.084  12.066 -0.1383 -1.0872  0.7145
 4530TIP3   OH235080   4.981   6.717  12.509  0.2819 -0.1255  0.3271
 4530TIP3    H135081   5.029   6.796  12.533 -0.5658  0.3009  0.6476
 4530TIP3    H235082   4.920   6.745  12.441  0.6304 -0.7086 -0.2365
 4531TIP3   OH235083   1.680   1.080   5.898 -0.2800 -0.0095 -0.1886
 4531TIP3    H135084   1.738   1.021   5.850 -0.6471 -0.3720 -0.1900
 4531TIP3    H235085   1.687   1.164   5.852  0.8819  0.1787  0.3054
 4532TIP3   OH235086   3.960   5.156   5.018 -0.3197 -0.3237 -0.9190
 4532TIP3    H135087   3.988   5.166   5.109 -1.9836 -0.5445 -0.3520
 4532TIP3    H235088   4.016   5.086   4.984  2.0200  1.3901 -0.8577
 4533TIP3   OH235089   1.588   3.510   5.264  0.5171 -0.0879  0.2012
 4533TIP3    H135090   1.594   3.512   5.360 -0.5715 -0.5883  0.2997
 4533TIP3    H235091   1.560   3.598   5.240 -1.1965 -0.4910  0.5405
 4534TIP3   OH235092   1.098   0.354  13.610 -0.4081 -0.0658 -0.6973
 4534TIP3    H135093   1.042   0.302  13.552  0.9324 -1.4544 -0.8002
 4534TIP3    H235094   1.179   0.304  13.617  1.0668  2.1366 -0.9857
 4535TIP3   OH235095   6.606   1.605   3.990  0.4083 -0.0148  0.2349
 4535TIP3    H135096   6.538   1.663   3.956 -0.6848  0.0500  2.3636
 4535TIP3    H235097   6.559   1.527   4.020  1.1863  0.1713  2.0720
 4536TIP3   OH235098   5.548   0.861   2.771  0.4248 -0.3999  0.0732
 4536TIP3    H135099   5.625   0.918   2.763  0.2120 -0.1417 -0.1586
 4536TIP3    H235100   5.475   0.922   2.783  0.1353 -0.5985 -0.6329
 4537TIP3   OH235101   4.558   3.465   2.541  0.5328 -0.2283  0.3046
 4537TIP3    H135102   4.570   3.474   2.447  1.2412 -1.0264  0.3052
 4537TIP3    H235103   4.615   3.392   2.566 -1.2529 -1.4638  1.0042
 4538TIP3   OH235104   2.983   4.109   3.365 -0.7742  0.2077  0.6089
 4538TIP3    H135105   3.022   4.120   3.452 -0.1397 -2.2960  0.7189
 4538TIP3    H235106   2.907   4.166   3.366 -0.1925  1.0403  2.4228
 4539TIP3   OH235107   0.637   0.715  14.182  0.5279  0.0309  0.3873
 4539TIP3    H135108   0.665   0.802  14.212  1.6365 -0.0762 -0.2640
 4539TIP3    H235109   0.719   0.667  14.169  0.1467  0.0561 -2.7349
 4540TIP3   OH235110   0.237   3.407   6.365 -0.5660 -0.4495  0.3059
 4540TIP3    H135111   0.190   3.337   6.320 -1.0755  0.6626 -0.9857
 4540TIP3    H235112   0.329   3.380   6.362 -0.8488 -1.4828  0.6498
 4541TIP3   OH235113   3.697   0.409  16.250  0.1607  0.1222  0.6644
 4541TIP3    H135114   3.788   0.384  16.231 -0.1548 -0.3229 -0.3499
 4541TIP3    H235115   3.649   0.387  16.170 -0.6391  1.4641  0.7479
 4542TIP3   OH235116   6.704   3.593   5.179  0.1546  0.1822 -0.9050
 4542TIP3    H135117   6.764   3.597   5.254  0.0787  0.5583 -0.8603
 4542TIP3    H235118   6.639   3.661   5.197  1.4508  1.9361 -2.4253
 4543TIP3   OH235119   6.723   1.572  16.929 -0.2342 -0.2280  0.1888
 4543TIP3    H135120   6.634   1.601  16.946 -0.7048 -1.6402  0.2706
 4543TIP3    H235121   6.765   1.573  17.015 -0.7712 -1.4210  0.4875
 4544TIP3   OH235122   3.811   5.175   4.290 -0.3463 -0.3186 -0.3676
 4544TIP3    H135123   3.717   5.191   4.296 -0.3150 -0.2627  0.0085
 4544TIP3    H235124   3.820   5.080   4.301 -0.5511 -0.6921 -2.8316
 4545TIP3   OH235125   5.607   6.191  15.138  0.0930  0.0935 -0.3372
 4545TIP3    H135126   5.580   6.107  15.174 -1.7923  0.4746 -0.7769
 4545TIP3    H235127   5.590   6.184  15.045  3.5423 -0.3473 -1.0920
 4546TIP3   OH235128   5.076   5.574   1.535  0.0571  0.6145  0.1173
 4546TIP3    H135129   5.016   5.545   1.604 -0.0599  0.6934  0.0502
 4546TIP3    H235130   5.018   5.607   1.466  0.1546  0.1426 -0.1987
 4547TIP3   OH235131   0.905   6.017   0.284 -0.0388 -0.0857 -0.3264
 4547TIP3    H135132   0.905   6.112   0.272  1.4332  0.0387  0.3576
 4547TIP3    H235133   0.998   5.993   0.279 -0.1948 -1.2225  1.3540
 4548TIP3   OH235134   3.718   3.355  13.172  0.7202  0.1357 -0.6991
 4548TIP3    H135135   3.672   3.410  13.109 -0.6395  2.8304  2.3768
 4548TIP3    H235136   3.651   3.297  13.208  1.0462 -0.0631 -0.4034
 4549TIP3   OH235137   3.527   3.559  15.366  0.1801 -0.0184 -0.2536
 4549TIP3    H135138   3.575   3.482  15.337  0.1686 -0.7455  1.4839
 4549TIP3    H235139   3.590   3.608  15.419 -0.5915 -0.3522  1.0280
 4550TIP3   OH235140   0.562   4.551  14.865 -0.0633 -1.0971  0.5245
 4550TIP3    H135141   0.639   4.584  14.911  0.5195 -2.6473  0.7352
 4550TIP3    H235142   0.561   4.599  14.782  0.1203  0.1650  1.2235
 4551TIP3   OH235143   5.244   2.993  14.876 -0.7490  0.0586 -0.4424
 4551TIP3    H135144   5.185   3.064  14.903 -0.2885  0.4719 -0.5078
 4551TIP3    H235145   5.253   3.005  14.781 -0.1008  0.3562 -0.3472
 4552TIP3   OH235146   0.616   4.897   1.663 -0.4560 -0.4126  0.3254
 4552TIP3    H135147   0.707   4.925   1.659 -0.5627 -0.2169 -1.6123
 4552TIP3    H235148   0.606   4.837   1.589 -1.7776 -0.7970  0.7952
 4553TIP3   OH235149   0.690   2.679  14.284  0.0189 -0.1000 -0.1106
 4553TIP3    H135150   0.610   2.697  14.235  0.9355  2.6817 -0.7798
 4553TIP3    H235151   0.702   2.584  14.276 -2.0605 -0.2989 -1.7877
 4554TIP3   OH235152   1.599   1.790   4.561  0.0116 -0.0851  0.7204
 4554TIP3    H135153   1.616   1.709   4.512  1.2259 -0.1005  1.1425
 4554TIP3    H235154   1.668   1.793   4.626 -0.6628  0.7592  1.4077
 4555TIP3   OH235155   5.613   2.638   0.362  0.1233  0.2162  0.2145
 4555TIP3    H135156   5.519   2.647   0.376  0.4393  1.8500  1.5608
 4555TIP3    H235157   5.652   2.659   0.447  1.7869  1.3187 -0.7767
 4556TIP3   OH235158   2.287   0.317  11.973 -0.0584  0.3517  0.3357
 4556TIP3    H135159   2.347   0.295  12.044  0.8245 -0.6845 -0.6736
 4556TIP3    H235160   2.215   0.255  11.983  0.9842 -1.1044 -0.7424
 4557TIP3   OH235161   0.919   5.632   5.627 -0.5338  0.0710  0.1636
 4557TIP3    H135162   1.013   5.628   5.643  0.0331  1.9000 -2.1333
 4557TIP3    H235163   0.880   5.631   5.714  1.4647 -2.2776  1.1624
 4558TIP3   OH235164   6.302   3.049   4.595  0.5797  0.0591 -0.0166
 4558TIP3    H135165   6.326   3.002   4.675  0.3228  0.6304  0.3994
 4558TIP3    H235166   6.380   3.041   4.539  1.0787  0.3688  0.6184
 4559TIP3   OH235167   6.763   5.851  11.547 -0.1074 -0.8664 -0.4428
 4559TIP3    H135168   6.806   5.862  11.632 -1.9585 -3.1785  0.9275
 4559TIP3    H235169   6.835   5.833  11.486  1.1874 -0.1604  0.8076
 4560TIP3   OH235170   3.322   3.833   4.718 -0.0429  0.1294  0.4056
 4560TIP3    H135171   3.289   3.867   4.801  1.6036  1.2642  0.6592
 4560TIP3    H235172   3.410   3.802   4.739  0.3588  0.3471 -0.8966
 4561TIP3   OH235173   1.212   6.061  14.942 -0.0728  0.6264  0.1615
 4561TIP3    H135174   1.246   6.039  15.028  0.0806  1.0873  0.2245
 4561TIP3    H235175   1.147   6.129  14.958 -1.8401 -0.9767  0.1458
 4562TIP3   OH235176   6.308   0.145   2.340  0.0413 -0.0371  0.5927
 4562TIP3    H135177   6.225   0.188   2.321 -1.3133 -2.1436  1.4178
 4562TIP3    H235178   6.312   0.072   2.279  3.2062  2.1321 -2.1208
 4563TIP3   OH235179   0.394   1.976  15.774 -0.6762 -0.0894 -0.5204
 4563TIP3    H135180   0.445   1.962  15.854  2.0355 -1.0217 -2.2811
 4563TIP3    H235181   0.444   2.039  15.723 -2.3555  0.5170 -1.5045
 4564TIP3   OH235182   0.171   2.373  16.339 -0.0823 -0.7084  0.1264
 4564TIP3    H135183   0.230   2.434  16.294 -1.4015 -0.3495 -1.1476
 4564TIP3    H235184   0.167   2.407  16.429  0.4378  0.1597 -0.1637
 4565TIP3   OH235185   3.478   6.628  16.915  0.1949 -0.3570  0.1728
 4565TIP3    H135186   3.527   6.680  16.852 -1.0324  1.1102  0.3875
 4565TIP3    H235187   3.545   6.587  16.969  1.2414 -0.8737 -1.4409
 4566TIP3   OH235188   1.113   3.014   5.781 -0.4106 -0.2335 -0.5314
 4566TIP3    H135189   1.117   3.013   5.685  3.0973  1.5742 -0.5435
 4566TIP3    H235190   1.107   2.922   5.806  0.3807 -0.8670 -2.4837
 4567TIP3   OH235191   2.658   3.772   3.644  0.0139  0.0632 -0.7185
 4567TIP3    H135192   2.628   3.854   3.605 -0.1263  0.3358 -0.0463
 4567TIP3    H235193   2.695   3.797   3.729  1.1948 -0.3935 -1.0670
 4568TIP3   OH235194   1.464   4.238  15.020 -0.9812 -0.3275  0.2058
 4568TIP3    H135195   1.470   4.159  15.074 -1.4746  0.4555  1.4604
 4568TIP3    H235196   1.551   4.249  14.983 -0.1159  0.0173  2.2162
 4569TIP3   OH235197   6.052   3.633  14.104 -0.4545 -0.2764  0.2137
 4569TIP3    H135198   6.104   3.555  14.120  0.0900  0.3197  1.5490
 4569TIP3    H235199   5.985   3.606  14.042  1.3900 -1.0956 -1.5217
 4570TIP3   OH235200   2.669   0.597  11.985 -0.0869 -0.0591  0.8715
 4570TIP3    H135201   2.653   0.504  11.968 -1.3934  0.5014 -1.3335
 4570TIP3    H235202   2.632   0.613  12.072 -2.1385 -1.0969  0.2315
 4571TIP3   OH235203   5.053   0.052  14.281  0.0300  0.0284 -0.4738
 4571TIP3    H135204   5.147   0.070  14.275  0.2897 -0.8643  0.5453
 4571TIP3    H235205   5.014   0.136  14.301  0.7073  0.2828 -0.1746
 4572TIP3   OH235206   5.393   3.353  11.191  0.3834  0.9119 -0.3259
 4572TIP3    H135207   5.465   3.414  11.204  1.1062 -0.0982  0.6301
 4572TIP3    H235208   5.345   3.355  11.273  0.7843 -0.2434 -0.0421
 4573TIP3   OH235209   2.574   2.696  12.341 -0.5087  0.1872 -0.2859
 4573TIP3    H135210   2.606   2.618  12.294  0.0500  1.3063 -1.8605
 4573TIP3    H235211   2.644   2.717  12.403 -1.0500 -1.0478  0.7809
 4574TIP3   OH235212   6.707   4.823  17.207 -0.3047 -0.7671  0.2733
 4574TIP3    H135213   6.634   4.767  17.235  0.2227 -1.2827  0.6284
 4574TIP3    H235214   6.783   4.765  17.206  0.1726 -0.1494  0.2470
 4575TIP3   OH235215   0.233   4.991  17.205  0.0159  0.3143  0.0604
 4575TIP3    H135216   0.257   4.962  17.116 -0.7277  3.5431 -1.3478
 4575TIP3    H235217   0.272   5.078  17.212 -1.2356  0.7469  2.3380
 4576TIP3   OH235218   1.277   3.667   1.566  0.0262  0.0514  0.6446
 4576TIP3    H135219   1.306   3.578   1.546 -0.7762 -0.2179  0.6506
 4576TIP3    H235220   1.359   3.717   1.577  0.4797 -0.6042  0.3207
 4577TIP3   OH235221   2.120   1.746   1.149  0.6221 -0.2692 -0.2442
 4577TIP3    H135222   2.150   1.760   1.059 -0.0037 -0.3050 -0.4671
 4577TIP3    H235223   2.196   1.764   1.203  0.4210  2.0177 -0.6254
 4578TIP3   OH235224   4.065   4.468   4.472  0.5753  0.7531 -0.3019
 4578TIP3    H135225   4.149   4.496   4.507  0.2705 -0.1811  1.3079
 4578TIP3    H235226   4.024   4.421   4.545 -1.9179  2.3496 -0.5594
 4579TIP3   OH235227   5.884   3.920  15.629 -0.1553 -0.0339 -0.1213
 4579TIP3    H135228   5.944   3.918  15.704 -1.1025  0.4526  0.6779
 4579TIP3    H235229   5.849   3.832  15.625 -0.7266  0.1494  0.5540
 4580TIP3   OH235230   5.241   2.277   0.853 -0.4088 -0.4255 -0.1715
 4580TIP3    H135231   5.291   2.251   0.777 -0.3828  1.9136 -1.0367
 4580TIP3    H235232   5.153   2.295   0.819  0.3473  3.7780 -0.4876
 4581TIP3   OH235233   1.654   3.734  16.114  0.2414 -0.1355  0.5903
 4581TIP3    H135234   1.686   3.709  16.028 -0.4181 -1.7722  0.7846
 4581TIP3    H235235   1.712   3.688  16.176  1.9053  2.4743  1.1345
 4582TIP3   OH235236   2.106   1.584   5.683 -0.3413  0.1638 -0.4235
 4582TIP3    H135237   2.154   1.504   5.704  1.8480  0.6994 -2.8784
 4582TIP3    H235238   2.077   1.571   5.593  0.3881  2.2388 -1.0220
 4583TIP3   OH235239   1.129   4.828   5.507  0.3028  0.5594 -0.6141
 4583TIP3    H135240   1.168   4.763   5.565  2.8922  0.9611 -1.7597
 4583TIP3    H235241   1.091   4.893   5.565  1.7183  0.3240  0.6282
 4584TIP3   OH235242   6.211   2.238  11.548 -0.6094  0.4887  0.6936
 4584TIP3    H135243   6.276   2.281  11.603 -0.5929 -1.7911  2.6191
 4584TIP3    H235244   6.127   2.268  11.582 -0.6103  1.2066  0.0935
 4585TIP3   OH235245   4.854   1.643  15.505 -0.4924 -0.2167  0.1937
 4585TIP3    H135246   4.763   1.659  15.528 -0.6366  0.1749 -0.6274
 4585TIP3    H235247   4.856   1.648  15.409  0.2940 -0.7267  0.1749
 4586TIP3   OH235248   6.622   5.630   5.781  0.2300 -0.0817  0.1012
 4586TIP3    H135249   6.631   5.604   5.873 -0.0738  0.5979  0.3282
 4586TIP3    H235250   6.710   5.622   5.745  0.2588 -0.8287  0.3210
 4587TIP3   OH235251   6.826   5.298  15.055 -0.8322  0.2352 -0.3601
 4587TIP3    H135252   6.812   5.204  15.044 -1.4964  0.4375 -1.4321
 4587TIP3    H235253   6.915   5.306  15.089 -0.3856 -0.7387 -1.2425
 4588TIP3   OH235254   1.973   2.531   1.520  0.2260 -0.3284 -0.7210
 4588TIP3    H135255   1.883   2.561   1.528  0.1942 -0.4999 -0.4449
 4588TIP3    H235256   2.025   2.602   1.556  0.1421 -0.6640  0.0752
 4589TIP3   OH235257   0.157   4.158  14.609 -0.4181  0.0400  0.2730
 4589TIP3    H135258   0.075   4.178  14.563  0.1953  0.9377 -0.4757
 4589TIP3    H235259   0.185   4.242  14.645  0.6505 -0.0625 -0.2944
 4590TIP3   OH235260   5.114   6.135  12.963  0.0977  0.5915  0.0522
 4590TIP3    H135261   5.075   6.051  12.938 -0.7186  1.0303 -0.1942
 4590TIP3    H235262   5.175   6.155  12.892  0.9851 -0.2135  0.5534
 4591TIP3   OH235263   2.257   4.713  14.837 -0.2023 -0.5231 -0.1532
 4591TIP3    H135264   2.256   4.801  14.799  0.2232 -0.5578 -0.2460
 4591TIP3    H235265   2.222   4.656  14.769 -1.3228 -0.3106  0.2141
 4592TIP3   OH235266   6.535   6.778  11.639 -0.0755 -0.1676 -0.5089
 4592TIP3    H135267   6.479   6.840  11.591 -0.9281 -1.1638 -0.8403
 4592TIP3    H235268   6.552   6.821  11.723  0.7815  1.2635 -1.3574
 4593TIP3   OH235269   5.716   4.591  14.119  0.3065 -0.2867 -0.4657
 4593TIP3    H135270   5.690   4.515  14.171  3.1413 -0.6505  0.5908
 4593TIP3    H235271   5.708   4.665  14.179 -0.1915 -0.0860 -0.7695
 4594TIP3   OH235272   1.432   4.646   2.576  0.0154  0.0914 -0.1440
 4594TIP3    H135273   1.432   4.741   2.566  2.2932  0.0566 -1.0529
 4594TIP3    H235274   1.352   4.617   2.532 -0.6059  1.5576 -0.0329
 4595TIP3   OH235275   3.401   4.644   2.087  0.4816 -0.4116 -0.0514
 4595TIP3    H135276   3.428   4.555   2.111  0.2678 -0.4049  0.2185
 4595TIP3    H235277   3.460   4.701   2.135 -1.5400 -0.3436  2.5258
 4596TIP3   OH235278   2.380   5.361   0.022 -0.0587  0.5858 -0.2138
 4596TIP3    H135279   2.295   5.374   0.066  0.0436  0.1849  0.1088
 4596TIP3    H235280   2.444   5.368   0.093  0.2541  1.7451 -0.5845
 4597TIP3   OH235281   2.111   0.183  14.492 -0.4364 -0.1424 -0.2718
 4597TIP3    H135282   2.053   0.219  14.559 -1.0548  1.1221 -1.4355
 4597TIP3    H235283   2.053   0.157  14.421  0.3606  0.8155 -1.3169
 4598TIP3   OH235284   5.106   4.520  14.184  0.0407  0.0770 -0.0539
 4598TIP3    H135285   5.161   4.467  14.241 -0.3323 -1.0095 -0.6685
 4598TIP3    H235286   5.032   4.547  14.239  1.3410  1.8924  0.8916
 4599TIP3   OH235287   3.918   6.736  11.593 -0.1176 -0.1054  0.1892
 4599TIP3    H135288   3.895   6.811  11.647 -0.3254  0.2506 -0.3816
 4599TIP3    H235289   3.998   6.762  11.548  0.9157 -0.9805  1.4500
 4600TIP3   OH235290   6.458   0.387  14.719 -0.5445 -0.1041 -0.5361
 4600TIP3    H135291   6.550   0.363  14.733 -0.7475 -0.3922  0.4247
 4600TIP3    H235292   6.438   0.357  14.631 -0.5561 -2.8456  0.2953
 4601TIP3   OH235293   5.481   4.425   2.184  0.2043  0.0381  0.0749
 4601TIP3    H135294   5.422   4.352   2.165  1.1374 -0.5362 -0.7088
 4601TIP3    H235295   5.434   4.477   2.249 -1.7261  0.3156 -1.4452
 4602TIP3   OH235296   4.066   4.312   3.320  0.2011  0.2311  0.5801
 4602TIP3    H135297   4.028   4.260   3.249 -0.4671  2.6829 -0.9981
 4602TIP3    H235298   4.156   4.328   3.291  0.4735 -0.2096  1.1662
 4603TIP3   OH235299   4.732   4.982   3.748 -0.7646 -0.1645 -0.1204
 4603TIP3    H135300   4.675   5.054   3.776  0.2656  1.0627 -1.0227
 4603TIP3    H235301   4.701   4.961   3.660 -0.4149 -0.1156 -0.2553
 4604TIP3   OH235302   0.922   4.082   4.668  0.8815  0.4289  0.4644
 4604TIP3    H135303   0.951   4.014   4.607 -0.1754 -1.5558  2.0365
 4604TIP3    H235304   1.001   4.104   4.718  0.6727 -2.1193  2.1181
 4605TIP3   OH235305   0.551   2.257  14.341  0.2617  0.3737  0.2259
 4605TIP3    H135306   0.556   2.213  14.426 -0.5003 -1.5550 -0.6469
 4605TIP3    H235307   0.472   2.311  14.346 -0.1413 -0.2234  0.5665
 4606TIP3   OH235308   3.441   6.202   1.829  0.0959 -0.3473  0.6730
 4606TIP3    H135309   3.408   6.128   1.777 -0.0303  0.5660 -0.6088
 4606TIP3    H235310   3.534   6.207   1.805  0.2439 -0.4423  1.2131
 4607TIP3   OH235311   3.010   5.837  16.322 -0.5181  0.1959  0.6243
 4607TIP3    H135312   2.966   5.912  16.361 -2.7495 -1.0849  0.7304
 4607TIP3    H235313   3.103   5.854  16.336 -0.9862  2.4914  1.4092
 4608TIP3   OH235314   1.959   4.406  11.386  0.1923  0.2164  0.5091
 4608TIP3    H135315   1.886   4.418  11.325  0.8461 -0.4047 -0.4194
 4608TIP3    H235316   2.037   4.405  11.330  1.1764  2.9691  1.6385
 4609TIP3   OH235317   2.120   0.738  14.546 -1.0106 -0.7250 -0.4662
 4609TIP3    H135318   2.140   0.830  14.528 -0.5772 -0.9795 -1.3255
 4609TIP3    H235319   2.144   0.692  14.466 -0.7402 -1.6610  0.1369
 4610TIP3   OH235320   5.625   6.343  11.887 -0.3990  0.1862 -0.1013
 4610TIP3    H135321   5.711   6.384  11.889 -0.9941  1.4672  1.5599
 4610TIP3    H235322   5.575   6.396  11.825 -0.1891 -0.1788 -0.5924
 4611TIP3   OH235323   5.014   0.662   6.759 -0.3334  0.0829 -0.1282
 4611TIP3    H135324   4.967   0.721   6.700 -0.0011  1.0313  0.5404
 4611TIP3    H235325   4.962   0.582   6.757  0.0212 -0.1685 -2.2078
 4612TIP3   OH235326   6.427   1.674   2.564 -0.0161  0.1341 -0.4421
 4612TIP3    H135327   6.438   1.627   2.647 -2.4293  1.3737  0.7080
 4612TIP3    H235328   6.507   1.727   2.556 -0.2534  0.9763  1.8379
 4613TIP3   OH235329   6.671   5.770   6.212 -0.0181 -0.9143  0.3454
 4613TIP3    H135330   6.649   5.831   6.283 -0.2012  0.4535 -0.8331
 4613TIP3    H235331   6.766   5.775   6.205 -0.1640  0.8488 -1.0610
 4614TIP3   OH235332   3.776   3.992  16.629 -0.0599  0.4490 -0.3972
 4614TIP3    H135333   3.791   3.947  16.712 -1.8266  2.1217  0.9014
 4614TIP3    H235334   3.816   4.079  16.641 -0.4279  0.7473 -1.2582
 4615TIP3   OH235335   0.008   1.309  11.238 -0.2411  0.2040 -0.5102
 4615TIP3    H135336   0.005   1.383  11.298  1.2534 -0.7885  0.8968
 4615TIP3    H235337   0.090   1.319  11.191  0.7217 -1.2701  0.7541
 4616TIP3   OH235338   0.029   4.644  16.196  0.0425 -0.7024 -0.0052
 4616TIP3    H135339  -0.016   4.699  16.260  3.4112  1.6569  0.6535
 4616TIP3    H235340  -0.010   4.668  16.112 -0.8290  0.1826  0.6296
 4617TIP3   OH235341   1.239   5.083  15.639 -0.4493 -0.0424 -0.5885
 4617TIP3    H135342   1.207   5.029  15.711  0.4876  0.3137  0.1172
 4617TIP3    H235343   1.193   5.050  15.562 -1.8047 -0.1572  0.2191
 4618TIP3   OH235344   1.121   5.123   5.466 -0.7012  0.2605  0.1139
 4618TIP3    H135345   1.079   5.198   5.423 -1.8571  0.0778  0.8846
 4618TIP3    H235346   1.052   5.085   5.520  0.3805 -0.2468  1.1786
 4619TIP3   OH235347   0.413   2.744  13.541 -0.2177 -0.2455  1.1688
 4619TIP3    H135348   0.462   2.682  13.595  0.1068  0.2647  1.4676
 4619TIP3    H235349   0.397   2.819  13.599  0.0413  0.2634  0.5933
 4620TIP3   OH235350   0.950   6.312  12.814  0.3422 -0.5115 -0.1706
 4620TIP3    H135351   0.912   6.342  12.731 -0.1240 -0.1091  0.1873
 4620TIP3    H235352   0.939   6.386  12.874  3.2704  0.3271 -0.5228
 4621TIP3   OH235353   1.797   2.408   1.294 -0.3981 -0.3943 -0.4423
 4621TIP3    H135354   1.831   2.350   1.226 -1.0531  0.6752 -1.7316
 4621TIP3    H235355   1.846   2.489   1.284 -0.1184 -0.4013  0.7443
 4622TIP3   OH235356   3.031   3.591   3.718  0.0877  0.4159 -0.3374
 4622TIP3    H135357   2.956   3.604   3.660  1.3884  0.2571 -2.1543
 4622TIP3    H235358   3.100   3.647   3.680 -0.1554  3.8370  3.5592
 4623TIP3   OH235359   4.203   5.557  16.943 -0.3983  0.4134 -1.1036
 4623TIP3    H135360   4.118   5.561  16.987 -0.3038 -0.0610 -0.8770
 4623TIP3    H235361   4.211   5.642  16.899 -1.0850  0.3779 -1.3071
 4624TIP3   OH235362   1.478   0.704  15.751  0.2593  0.2566 -0.5706
 4624TIP3    H135363   1.443   0.671  15.834 -2.8419  3.8739 -0.1608
 4624TIP3    H235364   1.539   0.774  15.777  0.6481  0.2252 -1.3645
 4625TIP3   OH235365   1.224   4.556  11.834  0.7379 -0.4794 -0.2035
 4625TIP3    H135366   1.194   4.514  11.753  1.2996 -1.8871  0.2810
 4625TIP3    H235367   1.225   4.485  11.898  1.7185  0.2940  0.6629
 4626TIP3   OH235368   2.097   1.621  17.136  0.9141 -0.1798 -0.2447
 4626TIP3    H135369   2.041   1.585  17.204 -0.3284  0.3509 -0.9622
 4626TIP3    H235370   2.053   1.599  17.054  0.9867  1.4848 -0.7715
 4627TIP3   OH235371   6.156   0.257   6.111  0.2268  0.3012  0.1226
 4627TIP3    H135372   6.163   0.335   6.166 -1.1991  0.0009  0.7769
 4627TIP3    H235373   6.105   0.196   6.164  0.4163 -0.6862 -0.8109
 4628TIP3   OH235374   5.807   1.338  13.886 -1.2085  0.0231 -0.1066
 4628TIP3    H135375   5.749   1.298  13.822  0.6499  0.7673 -2.3606
 4628TIP3    H235376   5.827   1.267  13.948 -0.8489 -1.5324 -1.9345
 4629TIP3   OH235377   4.026   1.392  14.804  0.2790  0.2237 -0.0998
 4629TIP3    H135378   4.069   1.419  14.885  0.8922 -0.3835 -0.2186
 4629TIP3    H235379   3.993   1.304  14.821  1.5951 -0.4613 -0.9302
 4630TIP3   OH235380   1.461   2.181   3.385  0.4597  0.4358  0.0694
 4630TIP3    H135381   1.526   2.237   3.343  1.0816  1.4892  2.2648
 4630TIP3    H235382   1.380   2.232   3.380 -0.2213 -0.7299 -2.3616
 4631TIP3   OH235383   2.162   0.446  13.395 -0.3470 -0.6411  0.1244
 4631TIP3    H135384   2.150   0.480  13.307 -0.1912 -1.6899 -0.3217
 4631TIP3    H235385   2.232   0.500  13.433  0.1425 -0.6873 -0.6841
 4632TIP3   OH235386   6.068   4.237   0.857 -0.2212  0.3295 -0.3408
 4632TIP3    H135387   6.066   4.236   0.761  2.5480  1.7191 -0.4960
 4632TIP3    H235388   6.110   4.155   0.881 -1.0044 -0.0637 -0.2830
 4633TIP3   OH235389   0.574   2.801   4.615  0.6151  0.2275 -0.0355
 4633TIP3    H135390   0.501   2.739   4.605  1.0931 -0.4450  0.5529
 4633TIP3    H235391   0.653   2.746   4.611  1.2314  1.1724 -2.8728
 4634TIP3   OH235392   0.242   1.321   0.532  0.0704  0.2993  0.2878
 4634TIP3    H135393   0.332   1.316   0.564  0.4583  0.9540 -0.6645
 4634TIP3    H235394   0.240   1.262   0.456 -0.3768  0.0995  0.4500
 4635TIP3   OH235395   3.211   5.352   2.352  0.6790  0.4026 -0.5717
 4635TIP3    H135396   3.184   5.261   2.365  3.2502 -0.9876 -3.5391
 4635TIP3    H235397   3.144   5.389   2.295 -0.8638  0.7336  1.3780
 4636TIP3   OH235398   1.244   3.100   5.296 -0.4135 -0.2123  0.0221
 4636TIP3    H135399   1.293   3.019   5.283 -0.7127 -0.2218 -1.1380
 4636TIP3    H235400   1.312   3.168   5.296 -0.2996 -0.3218 -0.5358
 4637TIP3   OH235401   4.413   5.270  15.001  0.0687 -0.0825 -0.3941
 4637TIP3    H135402   4.342   5.303  14.945 -0.1007 -1.1585 -0.8501
 4637TIP3    H235403   4.369   5.212  15.062  0.4029  0.2539  0.1706
 4638TIP3   OH235404   6.556   5.666  11.222  0.0847  0.4395  0.1367
 4638TIP3    H135405   6.551   5.749  11.269 -0.7228  0.3312  0.2563
 4638TIP3    H235406   6.476   5.662  11.170  0.4395  0.0429 -0.3870
 4639TIP3   OH235407   3.264   1.621   4.262  0.5533 -0.2983 -0.1455
 4639TIP3    H135408   3.180   1.610   4.218 -0.0529  3.6073 -0.3081
 4639TIP3    H235409   3.245   1.611   4.355 -0.2687  1.1561 -0.1382
 4640TIP3   OH235410   6.374   2.020  12.323  0.3269  0.0753  0.0344
 4640TIP3    H135411   6.324   2.053  12.249  0.8067  1.0179  0.1178
 4640TIP3    H235412   6.322   2.043  12.400  0.8049  0.9389  0.1121
 4641TIP3   OH235413   4.269   1.511  13.611  0.0179  0.3450  0.1552
 4641TIP3    H135414   4.174   1.528  13.605  0.0804  0.7468  0.2367
 4641TIP3    H235415   4.308   1.598  13.607  0.5028  0.0789 -1.9291
 4642TIP3   OH235416   5.660   1.463   3.166  0.3596 -0.2799  0.1551
 4642TIP3    H135417   5.615   1.538   3.126 -0.5430 -1.1739 -0.5645
 4642TIP3    H235418   5.659   1.481   3.260 -0.4219  0.2957  0.0460
 4643TIP3   OH235419   2.801   5.313  11.847  0.5696  0.6125 -0.3652
 4643TIP3    H135420   2.807   5.408  11.844  0.9258  0.5661 -1.0958
 4643TIP3    H235421   2.866   5.286  11.912  0.7568  0.8396 -0.4591
 4644TIP3   OH235422   4.809   0.198   4.843 -0.6521  0.0768  0.2106
 4644TIP3    H135423   4.820   0.147   4.762  1.2284  0.5894  0.0987
 4644TIP3    H235424   4.895   0.234   4.860 -0.6518 -1.0709  3.1920
 4645TIP3   OH235425   2.341   2.092   3.059 -0.0441 -0.1031  0.3481
 4645TIP3    H135426   2.273   2.158   3.048 -0.5162 -0.3740  1.4018
 4645TIP3    H235427   2.409   2.135   3.110  0.3211 -0.0016 -0.2188
 4646TIP3   OH235428   0.217   5.037   4.516 -0.2037 -0.1972 -0.0225
 4646TIP3    H135429   0.159   4.972   4.554  0.7242  0.0401  1.8936
 4646TIP3    H235430   0.298   4.989   4.497 -0.5077 -0.2203 -1.3934
 4647TIP3   OH235431   4.949   0.097  13.567  0.3513 -0.5438  0.1331
 4647TIP3    H135432   4.932   0.041  13.642 -2.7128 -0.3546 -0.2992
 4647TIP3    H235433   4.873   0.086  13.510  1.6627  0.7822 -2.0436
 4648TIP3   OH235434   3.308   3.910  12.733  0.1025 -0.1694 -0.0950
 4648TIP3    H135435   3.242   3.977  12.749 -0.0430 -0.6690  1.5130
 4648TIP3    H235436   3.391   3.958  12.728  0.0253  0.1437  1.2443
 4649TIP3   OH235437   2.189   2.308   1.040 -0.1457 -0.3416  0.5418
 4649TIP3    H135438   2.245   2.370   1.087  0.9281 -0.6354 -0.3106
 4649TIP3    H235439   2.127   2.364   0.992 -0.2736 -0.0013  1.0844
 4650TIP3   OH235440   1.242   5.443  17.001 -0.6110  0.3208  0.0403
 4650TIP3    H135441   1.292   5.499  17.060 -1.7104  0.6432  0.7005
 4650TIP3    H235442   1.187   5.504  16.951 -1.2586 -0.1075  0.2196
 4651TIP3   OH235443   3.523   1.768   5.532 -0.2683  0.2520  0.7077
 4651TIP3    H135444   3.428   1.771   5.546 -0.3343 -0.9008  0.6071
 4651TIP3    H235445   3.533   1.741   5.441  0.1510 -0.9430  1.0942
 4652TIP3   OH235446   4.146   5.802  15.985 -0.3176 -0.2143  0.5033
 4652TIP3    H135447   4.176   5.779  16.073 -1.1146 -0.9302  0.5957
 4652TIP3    H235448   4.203   5.752  15.926  0.3375  0.4072  0.5959
 4653TIP3   OH235449   4.874   6.403  14.433 -0.3135 -0.5008 -0.5279
 4653TIP3    H135450   4.866   6.496  14.455 -1.7041 -0.3295 -1.6863
 4653TIP3    H235451   4.883   6.402  14.338  0.9363 -1.5106 -0.4254
 4654TIP3   OH235452   5.722   5.405  13.018 -0.4920  0.1261 -0.7822
 4654TIP3    H135453   5.799   5.352  12.996  0.7881  2.0387 -1.2339
 4654TIP3    H235454   5.647   5.350  12.994  0.7355 -1.4284 -1.2446
 4655TIP3   OH235455   6.748   3.592   4.014 -0.1326  0.2328 -0.1931
 4655TIP3    H135456   6.789   3.603   3.928  0.3273  0.3602  0.0435
 4655TIP3    H235457   6.706   3.506   4.009  1.0482 -0.3682 -0.0742
 4656TIP3   OH235458   5.425   4.074   5.412 -0.0677  0.3519  0.1684
 4656TIP3    H135459   5.454   4.087   5.322  0.1491  0.9553  0.3215
 4656TIP3    H235460   5.343   4.025   5.404 -0.3996  0.9763 -0.3954
 4657TIP3   OH235461   3.731   3.384   2.689 -0.0661 -0.8831 -0.1547
 4657TIP3    H135462   3.797   3.412   2.626 -0.3655 -0.0352 -0.1005
 4657TIP3    H235463   3.648   3.415   2.653 -0.5331 -2.4371 -0.5155
 4658TIP3   OH235464   2.292   3.043  14.485 -0.2629 -0.0175  0.3959
 4658TIP3    H135465   2.327   2.957  14.461  0.8141  0.6025 -0.3868
 4658TIP3    H235466   2.199   3.029  14.498 -0.2572 -1.1442 -0.5756
 4659TIP3   OH235467   0.372   6.417  14.176 -0.1109  0.2271 -0.4051
 4659TIP3    H135468   0.361   6.489  14.238  1.3521 -0.4273  0.6936
 4659TIP3    H235469   0.358   6.456  14.090  0.6252  1.8215  0.1744
 4660TIP3   OH235470   0.841   4.981  15.212 -0.9159  0.6724  0.0612
 4660TIP3    H135471   0.753   4.945  15.218 -0.2433 -0.8330  2.0056
 4660TIP3    H235472   0.870   4.990  15.302  0.2208  3.0440 -0.4671
 4661TIP3   OH235473   3.640   5.064  15.406 -0.7366  0.0770  0.1630
 4661TIP3    H135474   3.629   5.123  15.481 -1.1957 -1.3386  1.2539
 4661TIP3    H235475   3.706   5.001  15.434 -1.2957 -0.7896 -0.4168
 4662TIP3   OH235476   0.083   6.238   3.560 -0.0670  0.0200 -0.2517
 4662TIP3    H135477   0.001   6.265   3.600  0.0653 -0.1156  0.1189
 4662TIP3    H235478   0.099   6.150   3.594 -1.7055 -1.6003 -3.2630
 4663TIP3   OH235479   2.484   6.281  14.788 -0.1284  0.4206 -0.2812
 4663TIP3    H135480   2.401   6.279  14.836 -0.6171  1.5447 -1.0482
 4663TIP3    H235481   2.463   6.320  14.704  1.4043  1.9033 -0.0428
 4664TIP3   OH235482   1.234   1.427   2.109  0.3809  0.4634 -0.2804
 4664TIP3    H135483   1.261   1.339   2.137 -0.1294  0.7061  1.0366
 4664TIP3    H235484   1.235   1.479   2.189  0.2720  1.5702 -0.9738
 4665TIP3   OH235485   4.226   5.200  12.652  0.2817 -0.3636  0.2963
 4665TIP3    H135486   4.301   5.171  12.706  0.6666  1.2191  0.6821
 4665TIP3    H235487   4.173   5.252  12.712  1.1848  2.2094 -1.0198
 4666TIP3   OH235488   6.420   2.898   5.835  0.4233  0.4872  0.2210
 4666TIP3    H135489   6.446   2.988   5.815  2.3323  0.0376  0.4714
 4666TIP3    H235490   6.454   2.847   5.762 -0.2435 -0.1029  0.3119
 4667TIP3   OH235491   1.884   4.660  14.284  0.0652  0.1990  0.3408
 4667TIP3    H135492   1.813   4.599  14.262 -0.5765  1.4402 -1.2830
 4667TIP3    H235493   1.865   4.689  14.373 -0.1889 -1.1751  0.7540
 4668TIP3   OH235494   5.466   3.040  16.943 -0.4710  0.0618  0.3712
 4668TIP3    H135495   5.399   3.108  16.953 -2.3408 -1.3135 -1.7549
 4668TIP3    H235496   5.440   2.972  17.005 -1.2825 -0.6090 -0.6769
 4669TIP3   OH235497   2.127   3.033  11.695  0.1266 -0.1171  0.1393
 4669TIP3    H135498   2.219   3.029  11.722 -0.2139  0.9640  1.5855
 4669TIP3    H235499   2.081   2.980  11.760 -0.6032  1.7677  1.2299
 4670TIP3   OH235500   6.653   2.197  15.763 -0.0536 -0.1975 -0.7938
 4670TIP3    H135501   6.732   2.241  15.795 -0.6545 -0.5832  1.3117
 4670TIP3    H235502   6.621   2.255  15.693  1.0762  0.9175 -0.4266
 4671TIP3   OH235503   3.252   4.951  11.277 -0.2596 -0.2898  0.1794
 4671TIP3    H135504   3.250   5.030  11.331 -0.2138 -2.0025  2.8454
 4671TIP3    H235505   3.164   4.946  11.239  0.4649  2.3274 -2.2562
 4672TIP3   OH235506   6.499   1.785   0.792  0.2494 -0.1547 -0.3286
 4672TIP3    H135507   6.585   1.808   0.756  0.7978  1.0972  1.6236
 4672TIP3    H235508   6.515   1.705   0.841  1.2899  1.9035  3.0410
 4673TIP3   OH235509   6.572   1.964   0.246  0.2278  0.2890  0.1917
 4673TIP3    H135510   6.596   2.029   0.181 -0.8151  1.9051  1.3422
 4673TIP3    H235511   6.642   1.968   0.311 -1.3507  2.6551  1.8871
 4674TIP3   OH235512   2.817   0.014  13.655  0.2057 -0.5254  0.3282
 4674TIP3    H135513   2.908  -0.015  13.660  0.5848  0.7582  1.9724
 4674TIP3    H235514   2.816   0.082  13.588  0.2032 -1.3193 -0.4892
 4675TIP3   OH235515   0.247   3.332  13.809  0.3114 -0.0845 -0.1691
 4675TIP3    H135516   0.217   3.397  13.872 -5.0745 -1.9368 -0.3478
 4675TIP3    H235517   0.294   3.267  13.863 -0.0025  0.6928  1.0881
 4676TIP3   OH235518   4.742   4.354   3.042  0.0321 -0.1125  1.0065
 4676TIP3    H135519   4.697   4.430   3.006 -0.6598 -0.0350  1.9749
 4676TIP3    H235520   4.678   4.283   3.037  0.3147 -0.3715  1.0399
 4677TIP3   OH235521   2.333   4.383   2.745 -0.1701 -0.1749 -0.3611
 4677TIP3    H135522   2.274   4.451   2.711  0.0631  0.6121  0.7491
 4677TIP3    H235523   2.288   4.349   2.822  0.7929  0.4127  0.4835
 4678TIP3   OH235524   4.600   3.227  16.204  0.3800 -0.0483 -0.1120
 4678TIP3    H135525   4.602   3.251  16.297  0.6504 -1.4995  0.2900
 4678TIP3    H235526   4.691   3.208  16.182  0.5091  1.5011 -1.0467
 4679TIP3   OH235527   4.004   3.616   2.926  0.0397  0.0083  0.2534
 4679TIP3    H135528   3.927   3.564   2.903 -0.2869 -0.0718  1.4971
 4679TIP3    H235529   4.022   3.667   2.847 -1.9233  0.8107  0.2839
 4680TIP3   OH235530   2.827   3.368   3.302 -0.3592 -0.3122  0.2640
 4680TIP3    H135531   2.735   3.379   3.329  0.0096 -1.1142  1.9362
 4680TIP3    H235532   2.824   3.376   3.206 -1.8324  2.0383  0.3948
 4681TIP3   OH235533   1.814   2.667  15.046 -0.0245 -0.2900 -0.0508
 4681TIP3    H135534   1.860   2.747  15.072 -1.0070  0.4637 -0.5325
 4681TIP3    H235535   1.882   2.600  15.041  0.5067 -0.0560  2.5383
 4682TIP3   OH235536   3.863   1.948  14.128 -0.2490  0.0971  0.2051
 4682TIP3    H135537   3.896   2.002  14.199 -0.7272 -0.2274  0.6863
 4682TIP3    H235538   3.788   1.997  14.093  1.2928  1.3302 -1.5617
 4683TIP3   OH235539   5.765   3.973   3.001  0.1066 -0.3939 -0.0858
 4683TIP3    H135540   5.761   3.994   2.907 -1.6297  1.0191  0.2722
 4683TIP3    H235541   5.814   3.890   3.004 -2.0841 -1.9207 -2.4989
 4684TIP3   OH235542   6.599   1.651   4.988 -0.0940 -0.3636  0.0868
 4684TIP3    H135543   6.567   1.612   5.069 -2.0130  0.7554 -0.0843
 4684TIP3    H235544   6.659   1.585   4.952  0.4580 -1.0780  2.1492
 4685TIP3   OH235545   0.582   3.275   0.261 -0.0435 -0.5190 -0.3148
 4685TIP3    H135546   0.487   3.274   0.249 -0.0676 -1.0700 -0.0773
 4685TIP3    H235547   0.618   3.278   0.172 -0.2724 -0.9391 -0.4182
 4686TIP3   OH235548   1.203   1.385   4.931  0.2911 -0.4292  0.6255
 4686TIP3    H135549   1.183   1.333   5.008  2.9875 -2.1410  0.2867
 4686TIP3    H235550   1.240   1.466   4.965  0.1934 -0.5875  1.1098
 4687TIP3   OH235551   5.866   3.866   1.708 -0.3484 -0.1935 -1.0099
 4687TIP3    H135552   5.786   3.917   1.724 -1.2521 -0.8329 -3.0604
 4687TIP3    H235553   5.888   3.884   1.616  1.9679  0.0539 -0.4655
 4688TIP3   OH235554   5.684   0.764  13.434  0.2370 -0.3426  0.1516
 4688TIP3    H135555   5.730   0.844  13.461  0.1305 -0.2997  0.2110
 4688TIP3    H235556   5.619   0.795  13.371  1.3446 -0.6183 -1.1539
 4689TIP3   OH235557   3.135   5.881  14.352 -0.3050 -0.2922  0.2707
 4689TIP3    H135558   3.187   5.960  14.337 -0.2095 -0.4047  0.0052
 4689TIP3    H235559   3.187   5.811  14.313 -1.3279 -0.2040 -1.3458
 4690TIP3   OH235560   6.119   3.077  13.673  0.0601 -0.2244 -0.3744
 4690TIP3    H135561   6.146   3.114  13.589 -2.8800 -0.3341 -1.4802
 4690TIP3    H235562   6.094   3.153  13.726  1.6251 -0.1787  0.3644
 4691TIP3   OH235563   3.255   2.300  14.881 -0.3189  0.2416  0.3641
 4691TIP3    H135564   3.281   2.210  14.861  1.1294  0.6521  0.2538
 4691TIP3    H235565   3.172   2.311  14.835  1.4686  0.2503 -3.2596
 4692TIP3   OH235566   4.042   3.272  11.029  0.6703 -0.5102 -0.0566
 4692TIP3    H135567   4.058   3.263  10.935 -0.2939  0.0881 -0.2888
 4692TIP3    H235568   4.075   3.358  11.052  0.3634 -0.4129  0.0285
 4693TIP3   OH235569   1.087   2.792   2.694 -0.3258 -0.4233 -0.2335
 4693TIP3    H135570   1.020   2.755   2.636  1.7803 -2.4355 -1.5374
 4693TIP3    H235571   1.118   2.870   2.647 -0.7200 -0.3290 -0.3416
 4694TIP3   OH235572   1.436   4.494   5.833 -0.5083 -0.1515 -0.5943
 4694TIP3    H135573   1.346   4.477   5.862 -0.7344  2.2015  0.3532
 4694TIP3    H235574   1.489   4.431   5.880 -1.2542  1.3136  2.4618
 4695TIP3   OH235575   4.317   0.152   2.606  0.2682 -0.6360  0.5402
 4695TIP3    H135576   4.376   0.206   2.658  0.9994 -0.0820 -0.8161
 4695TIP3    H235577   4.325   0.065   2.644  2.0993 -0.6081  0.3066
 4696TIP3   OH235578   0.625   1.114   4.656  0.0229  0.2600  0.4241
 4696TIP3    H135579   0.629   1.145   4.746  0.7635  0.2488  0.4010
 4696TIP3    H235580   0.594   1.024   4.663 -2.1008  0.9584  0.4927
 4697TIP3   OH235581   2.883   2.637  15.240 -0.2553 -0.2745  0.4479
 4697TIP3    H135582   2.881   2.543  15.259  1.1541 -0.8522 -1.7826
 4697TIP3    H235583   2.834   2.646  15.158 -0.2882  0.9369  0.5805
 4698TIP3   OH235584   0.366   4.972   2.135 -0.0479  0.4276  0.9299
 4698TIP3    H135585   0.427   5.036   2.172  0.6540 -0.6425  1.6864
 4698TIP3    H235586   0.340   5.010   2.051  0.0945  1.8458  1.4930
 4699TIP3   OH235587   2.632   1.603  15.517  0.3589  0.5468 -0.2850
 4699TIP3    H135588   2.724   1.596  15.491 -0.3981  0.5133 -3.3307
 4699TIP3    H235589   2.629   1.681  15.572  2.0057  1.4314 -1.3575
 4700TIP3   OH235590   0.083   6.012  14.476  0.4994  0.0836 -0.0529
 4700TIP3    H135591   0.023   6.056  14.537  0.9714  1.7781 -0.7467
 4700TIP3    H235592   0.033   6.006  14.394  0.8570  0.3882 -0.2918
 4701TIP3   OH235593   6.827   0.153  13.964  0.1119  0.4093 -0.7179
 4701TIP3    H135594   6.887   0.132  14.036 -1.1181 -0.3526  0.1325
 4701TIP3    H235595   6.871   0.222  13.915  0.0379  2.5955  2.0733
 4702TIP3   OH235596   3.375   5.718   3.124 -0.7340 -0.0132  0.1514
 4702TIP3    H135597   3.362   5.729   3.218 -1.6990 -0.7621  0.1236
 4702TIP3    H235598   3.411   5.630   3.114 -0.5087  0.1130 -0.1699
 4703TIP3   OH235599   6.044   4.608   1.014 -0.1546  0.2671 -0.3209
 4703TIP3    H135600   5.984   4.683   1.007 -0.8494 -0.3036 -0.7016
 4703TIP3    H235601   5.993   4.541   1.061  0.2930 -0.1222 -0.3855
 4704TIP3   OH235602   1.871   1.477   4.896 -0.1427  0.1640  0.2097
 4704TIP3    H135603   1.947   1.499   4.948 -0.6851  0.6349  0.8101
 4704TIP3    H235604   1.906   1.426   4.823  0.6582 -0.2234  0.8517
 4705TIP3   OH235605   6.381   1.065   5.856 -0.0354 -0.4947  0.0029
 4705TIP3    H135606   6.464   1.109   5.876  0.4289 -0.6176 -1.4877
 4705TIP3    H235607   6.349   1.034   5.940  0.9364  0.4278  0.7355
 4706TIP3   OH235608   4.468   0.549   0.622  0.1128 -0.1361  0.1250
 4706TIP3    H135609   4.400   0.531   0.688  2.7640 -1.2406  2.8027
 4706TIP3    H235610   4.483   0.643   0.629  1.8502 -0.5003  2.8929
 4707TIP3   OH235611   6.473   0.542   2.764 -0.1544  0.3559 -0.2568
 4707TIP3    H135612   6.407   0.561   2.830 -2.0838  0.9689 -2.2495
 4707TIP3    H235613   6.523   0.623   2.755  2.9327 -0.8795  3.2278
 4708TIP3   OH235614   0.178   6.825   1.973 -0.3153  0.3760 -0.7234
 4708TIP3    H135615   0.259   6.774   1.974 -0.6818 -0.2107  0.6943
 4708TIP3    H235616   0.117   6.772   1.921 -0.1134  0.3059 -0.8903
 4709TIP3   OH235617   3.016   2.337   1.923 -0.2690 -0.4642  0.4327
 4709TIP3    H135618   2.938   2.381   1.890 -0.1949 -1.7375 -1.5899
 4709TIP3    H235619   3.028   2.262   1.865  2.8111  0.0392  0.2453
 4710TIP3   OH235620   5.202   5.279   5.879 -0.0412 -0.3954  0.4228
 4710TIP3    H135621   5.113   5.305   5.903  0.4711  0.1528  1.8076
 4710TIP3    H235622   5.231   5.347   5.818 -0.4800 -0.4675  0.1228
 4711TIP3   OH235623   5.918   0.018  11.865  0.2663 -0.0238  0.4442
 4711TIP3    H135624   5.923   0.081  11.792  0.2684 -0.0994  0.3787
 4711TIP3    H235625   5.827   0.021  11.893  0.1692 -0.3029  0.1652
 4712TIP3   OH235626   2.948   5.019   1.065 -0.1476  0.2793  0.4552
 4712TIP3    H135627   2.978   4.934   1.033 -2.0999 -1.0739  1.9682
 4712TIP3    H235628   2.857   5.025   1.037 -0.9217  0.5227  2.7590
 4713TIP3   OH235629   4.267   0.025  14.151  0.1163 -0.3823  0.2804
 4713TIP3    H135630   4.184   0.071  14.139  0.5796  0.8429  1.5525
 4713TIP3    H235631   4.285   0.032  14.245  1.3627 -1.1733  0.1284
 4714TIP3   OH235632   5.623   3.706   4.408 -0.0230  0.5488 -0.3987
 4714TIP3    H135633   5.673   3.666   4.480 -1.2551  2.1351  1.4582
 4714TIP3    H235634   5.538   3.662   4.411 -1.5814  3.3435  2.0086
 4715TIP3   OH235635   0.225   6.195  14.228 -0.4171  0.0759  0.1577
 4715TIP3    H135636   0.292   6.254  14.192 -0.4541 -1.0745 -1.9347
 4715TIP3    H235637   0.270   6.112  14.239 -0.6290  0.1822  2.1621
 4716TIP3   OH235638   1.301   3.046   1.802 -0.2515 -0.0659 -0.8684
 4716TIP3    H135639   1.377   2.992   1.824 -1.0411 -1.1770 -0.8192
 4716TIP3    H235640   1.338   3.132   1.781  0.9702 -0.4372 -0.3221
 4717TIP3   OH235641   6.503   6.778   5.853 -0.0778  0.4531  0.2228
 4717TIP3    H135642   6.453   6.801   5.931 -0.0810  1.2819 -0.0066
 4717TIP3    H235643   6.436   6.755   5.788 -0.0318 -1.4859  0.8181
 4718TIP3   OH235644   6.366   4.389  14.766 -0.6435  0.0230 -0.7681
 4718TIP3    H135645   6.378   4.340  14.685 -0.1931 -0.6799 -0.2900
 4718TIP3    H235646   6.446   4.374  14.815 -0.9139  0.4393 -0.1867
 4719TIP3   OH235647   2.529   4.034   3.892 -0.5518 -0.3878  0.3417
 4719TIP3    H135648   2.503   4.096   3.960 -2.6054 -0.8969  0.0831
 4719TIP3    H235649   2.623   4.049   3.880 -0.8233  2.1166  0.8346
 4720TIP3   OH235650   4.628   6.139   5.410  0.3276 -0.0883 -0.3917
 4720TIP3    H135651   4.693   6.084   5.453  0.8108  0.1674 -0.7965
 4720TIP3    H235652   4.673   6.177   5.335 -0.2490  0.1907 -0.6053
 4721TIP3   OH235653   1.127   4.225   3.171  0.3948  0.5624 -0.8032
 4721TIP3    H135654   1.187   4.245   3.243  1.1093  1.8525 -1.7312
 4721TIP3    H235655   1.101   4.134   3.187  0.1930  0.9507  1.3116
 4722TIP3   OH235656   3.725   0.344  12.967  0.0473  0.3621  0.1030
 4722TIP3    H135657   3.666   0.373  13.037 -0.3284  0.3303 -0.1941
 4722TIP3    H235658   3.718   0.249  12.967 -2.0872  0.4295 -1.7478
 4723TIP3   OH235659   0.191   3.234   4.759 -0.2063 -0.3761  0.0069
 4723TIP3    H135660   0.270   3.205   4.713  0.0832 -3.2436  2.0734
 4723TIP3    H235661   0.206   3.328   4.773  3.4192 -0.9602  1.2442
 4724TIP3   OH235662   6.005   6.252   1.549  0.3022  0.2754  0.2332
 4724TIP3    H135663   5.955   6.284   1.473  3.9258 -1.1808 -3.1445
 4724TIP3    H235664   5.962   6.170   1.573 -0.7245  0.5750 -0.5152
 4725TIP3   OH235665   4.662   6.604   4.344 -0.6627 -0.4914 -0.2414
 4725TIP3    H135666   4.744   6.601   4.392 -0.5010  0.2360 -0.4574
 4725TIP3    H235667   4.683   6.569   4.257 -0.7017 -0.7813 -0.1349
 4726TIP3   OH235668   3.334   2.920   2.726  0.1411  0.0302  0.1453
 4726TIP3    H135669   3.274   2.965   2.666  0.5785  0.1663 -0.2058
 4726TIP3    H235670   3.333   2.973   2.806 -1.6950 -1.0574  0.8795
 4727TIP3   OH235671   1.824   4.499   0.851 -0.5945 -0.0481  0.1121
 4727TIP3    H135672   1.778   4.457   0.778 -1.0322 -0.2287  0.4906
 4727TIP3    H235673   1.841   4.588   0.819 -1.6852  0.1977  0.1560
 4728TIP3   OH235674   6.729   4.976   1.747  0.3466 -0.1450  0.1658
 4728TIP3    H135675   6.814   4.990   1.706  1.2245 -1.3794  1.4614
 4728TIP3    H235676   6.720   4.881   1.753 -0.2782 -0.0278  1.6991
 4729TIP3   OH235677   6.578   1.575  12.576  0.3618 -0.3071 -0.4486
 4729TIP3    H135678   6.577   1.667  12.551 -1.0960 -0.2504 -0.2807
 4729TIP3    H235679   6.503   1.565  12.635 -0.0549 -1.7729 -1.1633
 4730TIP3   OH235680   0.768   1.124  13.215  0.2233  0.2767  0.0502
 4730TIP3    H135681   0.696   1.091  13.269 -1.5165  0.4464 -2.0268
 4730TIP3    H235682   0.804   1.046  13.172 -0.2434  0.4276 -0.6354
 4731TIP3   OH235683   1.913   0.604  12.974 -0.7424 -0.5456  0.2634
 4731TIP3    H135684   1.950   0.655  12.902 -2.3635 -2.2955 -1.9553
 4731TIP3    H235685   1.829   0.646  12.992  0.5065  1.1302  2.6749
 4732TIP3   OH235686   1.969   1.996   2.634  0.5947  0.0217  0.2332
 4732TIP3    H135687   2.051   2.004   2.585  0.0919  0.5839 -0.5656
 4732TIP3    H235688   1.921   2.077   2.612 -0.3588 -0.5105  0.3064
 4733TIP3   OH235689   4.045   0.593   0.162  0.2250  0.5485 -0.1397
 4733TIP3    H135690   4.042   0.504   0.197  0.3605  0.6491  0.1335
 4733TIP3    H235691   4.136   0.604   0.135  0.5423  1.0620  1.0551
 4734TIP3   OH235692   6.398   0.536  13.090  0.1935 -0.5763 -0.2820
 4734TIP3    H135693   6.441   0.611  13.048  2.1044 -0.7255  1.2306
 4734TIP3    H235694   6.308   0.565  13.105  1.1841  1.9674  1.3923
 4735TIP3   OH235695   4.017   1.153   6.512 -0.0351 -0.0161  0.2512
 4735TIP3    H135696   4.108   1.162   6.542 -0.0646  1.3506 -0.0139
 4735TIP3    H235697   3.982   1.080   6.563  0.7715  0.4003  1.4411
 4736TIP3   OH235698   5.327   3.689   2.065  0.4864  0.3397 -0.3285
 4736TIP3    H135699   5.259   3.636   2.107  1.0400 -0.9218 -0.9762
 4736TIP3    H235700   5.298   3.780   2.079 -0.3889 -0.0998  0.9709
 4737TIP3   OH235701   5.052   0.170   5.546 -0.0474  0.0448  0.1175
 4737TIP3    H135702   5.060   0.134   5.634  0.9994 -0.5750 -0.2133
 4737TIP3    H235703   5.010   0.255   5.559 -2.7754 -1.2797  0.9182
 4738TIP3   OH235704   5.665   4.571  13.467 -0.3937 -0.4087  0.2925
 4738TIP3    H135705   5.680   4.665  13.456 -1.1095 -0.3198  0.0509
 4738TIP3    H235706   5.700   4.552  13.554  0.6354 -0.1124 -0.0435
 4739TIP3   OH235707   2.056   2.272  14.130  0.1202  0.2883  0.0826
 4739TIP3    H135708   2.059   2.183  14.095  0.3814  0.2196  0.2768
 4739TIP3    H235709   1.968   2.303  14.110 -0.3283 -0.3963  0.9425
 4740TIP3   OH235710   0.381   6.747   3.760  0.7620  0.0934  0.2820
 4740TIP3    H135711   0.386   6.670   3.816 -1.1580 -0.0596  0.3252
 4740TIP3    H235712   0.287   6.756   3.740  1.0428  1.8868 -0.4530
 4741TIP3   OH235713   3.235   1.015  15.216  0.5352  0.4578 -0.4684
 4741TIP3    H135714   3.177   0.940  15.204  1.1770  0.0212 -0.9071
 4741TIP3    H235715   3.231   1.034  15.310 -1.6603  1.5490 -0.6925
 4742TIP3   OH235716   5.427   6.580  15.065 -0.2011 -0.7024 -0.2255
 4742TIP3    H135717   5.394   6.490  15.062  0.6920 -1.0290 -0.4788
 4742TIP3    H235718   5.485   6.586  14.989 -0.3644  0.1318 -0.2881
 4743TIP3   OH235719   4.961   0.985   0.139  0.3100 -0.2624  0.4098
 4743TIP3    H135720   4.890   0.996   0.075 -0.6065 -1.0992  1.2426
 4743TIP3    H235721   4.970   0.890   0.149  0.7718 -0.1518  1.1478
 4744TIP3   OH235722   3.695   5.181  13.060 -0.2032 -0.2753 -0.5131
 4744TIP3    H135723   3.678   5.156  12.969 -0.0150 -0.0919 -0.5993
 4744TIP3    H235724   3.770   5.127  13.086  0.2043  0.1943 -0.6991
 4745TIP3   OH235725   6.705   5.949  12.355 -0.2542  0.0983 -0.4108
 4745TIP3    H135726   6.764   5.884  12.317 -0.2165  0.4445 -0.9641
 4745TIP3    H235727   6.762   6.024  12.375 -0.4198  0.2376 -0.4602
 4746TIP3   OH235728   4.937   2.166  13.263  0.1271 -0.0435 -0.2744
 4746TIP3    H135729   4.966   2.212  13.185 -1.5023  0.7664 -0.4284
 4746TIP3    H235730   4.933   2.074  13.237 -0.7983  0.2674 -1.2772
 4747TIP3   OH235731   2.308   3.111   2.806 -0.4004 -0.6740  0.4031
 4747TIP3    H135732   2.222   3.120   2.848 -0.9749  1.1404 -1.0361
 4747TIP3    H235733   2.368   3.156   2.865 -0.7963 -0.1771  0.4348
 4748TIP3   OH235734   5.647   0.980  15.245 -0.3541  0.1786  0.1035
 4748TIP3    H135735   5.562   0.938  15.256  0.3981 -1.6447 -0.6367
 4748TIP3    H235736   5.666   0.973  15.151 -0.0030  1.8500  0.0194
 4749TIP3   OH235737   5.514   6.790   6.184 -0.0305 -0.1457 -0.1624
 4749TIP3    H135738   5.577   6.753   6.122 -1.9232 -1.5150 -1.3647
 4749TIP3    H235739   5.476   6.864   6.137  0.1369  0.2247  0.2788
 4750TIP3   OH235740   5.186   6.620  12.662 -0.5584 -0.1816  0.1057
 4750TIP3    H135741   5.133   6.633  12.584 -0.3833  0.9888  0.1686
 4750TIP3    H235742   5.148   6.679  12.727 -0.6690 -1.0962  0.9062
 4751TIP3   OH235743   2.038   3.947  15.128  0.4290  0.1258  0.2850
 4751TIP3    H135744   2.112   3.892  15.099 -0.7313 -0.8352 -1.0048
 4751TIP3    H235745   1.985   3.889  15.182 -0.0518  0.4193  0.1308
 4752TIP3   OH235746   0.840   0.272   0.761 -0.7620 -0.2208  0.0919
 4752TIP3    H135747   0.835   0.305   0.850 -2.3099 -1.5123  0.5119
 4752TIP3    H235748   0.823   0.349   0.706 -0.7051  0.4011  0.9355
 4753TIP3   OH235749   3.808   5.413   3.155  0.1086  0.1921  0.0949
 4753TIP3    H135750   3.811   5.351   3.228  1.1394  1.0528  0.8064
 4753TIP3    H235751   3.772   5.493   3.194  1.1698  0.8230 -0.1986
 4754TIP3   OH235752   2.296   3.648   5.215  0.2788  0.0208  0.1872
 4754TIP3    H135753   2.361   3.666   5.147 -1.3583  2.4760 -0.8708
 4754TIP3    H235754   2.212   3.669   5.175 -0.9631 -0.6873  2.2601
 4755TIP3   OH235755   1.081   4.207   5.165  0.3529  0.1253 -0.5296
 4755TIP3    H135756   1.131   4.238   5.089 -0.9889  0.0543 -1.4807
 4755TIP3    H235757   1.025   4.281   5.188 -0.1660 -0.2935 -0.4308
 4756TIP3   OH235758   3.908   3.010   0.931  0.1592 -0.3839  0.3633
 4756TIP3    H135759   3.893   2.959   1.010  0.5306 -1.1115 -0.0226
 4756TIP3    H235760   3.860   2.962   0.862  1.2452 -0.7295 -0.1734
 4757TIP3   OH235761   5.266   6.660   4.468 -0.2628  0.4896 -0.0338
 4757TIP3    H135762   5.354   6.622   4.470 -0.0259  0.9806 -0.7598
 4757TIP3    H235763   5.208   6.587   4.491  0.2706 -0.0406 -0.3351
 4758TIP3   OH235764   5.502   5.858   2.722  0.3976  0.4650  0.2618
 4758TIP3    H135765   5.567   5.927   2.738  1.5232 -0.0401 -1.7601
 4758TIP3    H235766   5.543   5.802   2.656 -2.0425  0.0177 -0.9815
 4759TIP3   OH235767   3.062   3.901  16.829  0.0806 -0.0149 -0.3709
 4759TIP3    H135768   3.096   3.879  16.742 -0.3560  2.0855 -1.1171
 4759TIP3    H235769   3.110   3.842  16.889 -1.8652 -3.8261 -2.2169
 4760TIP3   OH235770   6.720   5.261   1.569  0.4672  0.1697 -0.1035
 4760TIP3    H135771   6.692   5.173   1.543 -1.3493  0.0865  1.8452
 4760TIP3    H235772   6.804   5.273   1.526  0.2603 -2.0926 -1.2939
 4761TIP3   OH235773   3.975   2.642   4.931  0.1996  0.3933 -0.5984
 4761TIP3    H135774   4.041   2.573   4.947  0.6615  0.1671 -3.0895
 4761TIP3    H235775   3.931   2.615   4.851 -2.5355  0.9151  0.6181
 4762TIP3   OH235776   5.929   1.501   1.694 -0.1836 -0.0132 -0.0727
 4762TIP3    H135777   5.941   1.590   1.726  0.3286  0.0850 -0.5410
 4762TIP3    H235778   6.015   1.474   1.663 -0.5112 -0.3797 -0.6756
 4763TIP3   OH235779   4.708   2.659   3.215 -0.6648 -0.5120 -0.6324
 4763TIP3    H135780   4.688   2.752   3.214 -1.1253 -0.6001 -2.2290
 4763TIP3    H235781   4.785   2.651   3.270 -0.3894  0.8621 -0.7960
 4764TIP3   OH235782   0.669   0.558  15.165  0.0594  0.0178  0.7036
 4764TIP3    H135783   0.679   0.463  15.166  1.5008  0.1644  1.0004
 4764TIP3    H235784   0.689   0.583  15.074  1.4230  0.1995  1.0383
 4765TIP3   OH235785   6.720   0.666  16.440  0.0221 -0.0060  0.0696
 4765TIP3    H135786   6.647   0.614  16.473 -1.7670  2.7837  0.8790
 4765TIP3    H235787   6.798   0.615  16.462 -1.4422 -1.2092  2.9753
 4766TIP3   OH235788   3.216   0.795  11.436  0.3404  0.1952  0.4749
 4766TIP3    H135789   3.163   0.846  11.375  0.6608 -0.6350 -0.5402
 4766TIP3    H235790   3.156   0.727  11.469  0.3831  0.1448  0.4495
 4767TIP3   OH235791   0.954   5.234   0.483 -0.3368  0.4785  0.0350
 4767TIP3    H135792   0.867   5.197   0.463 -0.7885  1.9069 -0.7387
 4767TIP3    H235793   0.994   5.248   0.397  1.0459 -0.9615  0.3969
 4768TIP3   OH235794   4.446   2.783   2.777 -0.2823  0.1239  0.4729
 4768TIP3    H135795   4.420   2.694   2.756  1.4559 -0.0307 -1.3731
 4768TIP3    H235796   4.539   2.777   2.799  0.2118  1.5801 -0.9444
 4769TIP3   OH235797   4.154   3.953   0.753  0.1640  0.1073 -0.7082
 4769TIP3    H135798   4.110   4.013   0.693  0.2028 -1.1641 -2.0518
 4769TIP3    H235799   4.235   3.929   0.708  1.9321  1.7873  1.3779
 4770TIP3   OH235800   2.845   2.630  14.121 -0.2512  0.2535 -0.0425
 4770TIP3    H135801   2.756   2.662  14.111 -0.2820  0.0630 -0.3948
 4770TIP3    H235802   2.896   2.678  14.055  0.0245  0.7929  0.5478
 4771TIP3   OH235803   6.422   0.445  15.670 -0.4089 -0.1743 -0.2172
 4771TIP3    H135804   6.335   0.407  15.656  0.2141 -1.6665 -0.1459
 4771TIP3    H235805   6.408   0.540  15.660 -2.5299 -0.1133  2.2847
 4772TIP3   OH235806   2.416   3.606  10.587  0.6401 -0.5858 -0.0383
 4772TIP3    H135807   2.462   3.642  10.511 -0.4842 -1.7449 -1.3241
 4772TIP3    H235808   2.351   3.545  10.550  1.6481 -3.0620  1.9310
 4773TIP3   OH235809   3.106   0.507  11.320 -0.4314 -0.2872 -0.1885
 4773TIP3    H135810   3.044   0.477  11.254  0.3437 -0.4456 -0.8627
 4773TIP3    H235811   3.052   0.527  11.397 -1.3535 -0.0292 -0.8893
 4774TIP3   OH235812   0.911   6.718  11.544 -0.1952 -0.2635 -0.1525
 4774TIP3    H135813   0.838   6.780  11.537 -1.7279 -1.9604 -0.0168
 4774TIP3    H235814   0.871   6.633  11.528  1.5718 -1.3832  1.0558
 4775TIP3   OH235815   6.455   5.188  13.202 -0.1991 -0.7350 -0.0972
 4775TIP3    H135816   6.441   5.100  13.166 -2.7221 -0.1575 -0.7451
 4775TIP3    H235817   6.472   5.243  13.125 -2.6280 -0.0169 -0.2001
 4776TIP3   OH235818   1.453   5.656  11.681  0.1726  0.1398 -0.3389
 4776TIP3    H135819   1.403   5.600  11.740  1.1171 -0.5922 -0.2019
 4776TIP3    H235820   1.401   5.658  11.600 -0.8436  0.6808  0.3032
 4777TIP3   OH235821   4.446   4.393  14.049  0.1121  0.2112 -0.1935
 4777TIP3    H135822   4.448   4.333  13.975  1.6911  0.0630 -0.0614
 4777TIP3    H235823   4.378   4.457  14.026 -0.4447 -0.6638 -1.0789
 4778TIP3   OH235824   3.114   5.915  16.079  0.4558 -0.5266 -0.1119
 4778TIP3    H135825   3.099   6.009  16.084  2.1191 -0.1730 -1.0673
 4778TIP3    H235826   3.058   5.878  16.147  0.4635  1.2147  0.8890
 4779TIP3   OH235827   6.012   2.417  13.581  0.0585 -0.6402 -0.7675
 4779TIP3    H135828   6.027   2.479  13.511 -1.7592  1.6217  0.7112
 4779TIP3    H235829   6.100   2.392  13.610  0.8974  1.8776 -0.9181
 4780TIP3   OH235830   2.450   2.414  12.238 -0.5326 -0.2693 -0.2752
 4780TIP3    H135831   2.519   2.378  12.294 -1.0472 -0.4338  0.2590
 4780TIP3    H235832   2.432   2.345  12.175 -2.3480 -1.4873  1.4644
 4781TIP3   OH235833   5.697   4.739  11.885  0.0042 -0.0972 -0.2951
 4781TIP3    H135834   5.771   4.720  11.828 -0.2955 -0.6963 -0.4955
 4781TIP3    H235835   5.685   4.659  11.936 -0.5444 -0.0313 -0.3143
 4782TIP3   OH235836   6.764   0.866   1.990 -0.2167  0.3337 -0.2206
 4782TIP3    H135837   6.771   0.776   2.021  0.1558  0.3785 -0.1726
 4782TIP3    H235838   6.770   0.920   2.069  1.0445  0.4615 -0.3823
 4783TIP3   OH235839   1.261   6.036  11.891 -0.8179  0.2124  0.0955
 4783TIP3    H135840   1.244   5.960  11.837  1.3935 -1.3752  1.4324
 4783TIP3    H235841   1.356   6.045  11.890 -1.0075  2.9051  0.1040
 4784TIP3   OH235842   6.810   1.843  17.214 -0.2981  0.5334  0.5960
 4784TIP3    H135843   6.847   1.763  17.177 -0.8382  1.0154 -1.0759
 4784TIP3    H235844   6.885   1.893  17.245  0.0252 -0.7303  1.9399
 4785TIP3   OH235845   3.719   2.376  16.432  0.0323  0.1406 -0.1775
 4785TIP3    H135846   3.728   2.314  16.361 -0.3414 -1.7418  1.3310
 4785TIP3    H235847   3.680   2.454  16.392  0.7342 -0.4862 -2.1725
 4786TIP3   OH235848   3.401   5.129   5.351  0.2733 -0.2966 -0.5992
 4786TIP3    H135849   3.378   5.213   5.312  0.9600  0.3527  0.3595
 4786TIP3    H235850   3.427   5.150   5.441  0.3963 -1.5411 -0.3208
 4787TIP3   OH235851   3.287   6.477  13.374 -0.5702 -0.2048  0.2520
 4787TIP3    H135852   3.255   6.497  13.285  1.0808 -1.2868 -0.6393
 4787TIP3    H235853   3.275   6.559  13.422 -1.8518  0.3009 -0.8541
 4788TIP3   OH235854   6.646   6.412  16.682 -0.0241 -0.0295  0.1917
 4788TIP3    H135855   6.601   6.480  16.731 -3.0494 -2.2170  0.7078
 4788TIP3    H235856   6.707   6.373  16.745 -2.2748 -1.3315  1.7182
 4789TIP3   OH235857   4.234   1.582   4.585  0.4948  0.5033 -0.4655
 4789TIP3    H135858   4.152   1.610   4.544 -0.3557 -0.3481  0.5976
 4789TIP3    H235859   4.270   1.662   4.624 -0.4863  0.6637  0.1494
 4790TIP3   OH235860   3.601   2.720  17.080 -0.2366 -0.0591 -0.0090
 4790TIP3    H135861   3.531   2.762  17.130 -0.9958 -0.5070 -0.6709
 4790TIP3    H235862   3.665   2.694  17.146 -0.6934  0.3615  0.6098
 4791TIP3   OH235863   0.190   1.891  12.670 -0.0338 -0.3796 -0.6608
 4791TIP3    H135864   0.222   1.836  12.599 -0.9888 -0.9029 -0.6925
 4791TIP3    H235865   0.164   1.830  12.738 -2.9937 -0.1303 -1.4624
 4792TIP3   OH235866   1.302   5.667  14.221  0.4227 -0.1379 -0.1268
 4792TIP3    H135867   1.299   5.715  14.138 -0.3635 -0.0734 -0.0709
 4792TIP3    H235868   1.214   5.676  14.257  1.0867  0.9390  1.3443
 4793TIP3   OH235869   3.290   5.976   4.523 -0.5355  0.9561 -0.5230
 4793TIP3    H135870   3.206   5.991   4.479 -0.3898 -0.2702 -1.2687
 4793TIP3    H235871   3.303   5.881   4.518  0.1666  0.9373  0.9463
 4794TIP3   OH235872   4.569   4.812  14.506  0.1912 -0.4028 -0.1365
 4794TIP3    H135873   4.494   4.752  14.508 -1.5078  1.5318 -1.2492
 4794TIP3    H235874   4.596   4.819  14.598 -3.3536  1.4575  0.9971
 4795TIP3   OH235875   4.403   3.964  11.933  0.4950  0.5116  0.1030
 4795TIP3    H135876   4.338   3.980  12.002  0.6719  1.9137 -0.0278
 4795TIP3    H235877   4.352   3.928  11.861  0.3518 -1.2848  1.0301
 4796TIP3   OH235878   6.661   2.591  13.260 -0.0244 -0.4609 -0.7363
 4796TIP3    H135879   6.742   2.638  13.241  0.5783 -0.9323  0.5542
 4796TIP3    H235880   6.604   2.655  13.302  0.5817 -0.7102  0.5008
 4797TIP3   OH235881   5.317   6.616   0.895 -0.4928 -0.0557  0.2864
 4797TIP3    H135882   5.225   6.633   0.916 -0.1742  2.0088  0.3155
 4797TIP3    H235883   5.326   6.642   0.803  0.3270  1.2253  0.6925
 4798TIP3   OH235884   5.898   6.825   1.146  0.6585  0.1185  0.2596
 4798TIP3    H135885   5.816   6.874   1.146 -0.4214 -1.5041  2.4694
 4798TIP3    H235886   5.964   6.888   1.176 -0.3873  0.6288  1.5584
 4799TIP3   OH235887   5.455   1.295   4.491  0.5438 -0.1695  0.0334
 4799TIP3    H135888   5.538   1.303   4.538  0.2101 -0.5966  0.7017
 4799TIP3    H235889   5.391   1.274   4.558 -0.1865  0.5473 -0.4246
 4800TIP3   OH235890   2.142   3.649  16.691  0.2491 -0.2989 -0.6681
 4800TIP3    H135891   2.183   3.657  16.777 -0.0382  1.1952 -0.6513
 4800TIP3    H235892   2.215   3.659  16.629  0.1104  1.2732 -0.6177
 4801TIP3   OH235893   3.298   4.666  12.790  0.1525  0.3715 -0.0461
 4801TIP3    H135894   3.379   4.619  12.805  0.2797  0.5905 -0.0440
 4801TIP3    H235895   3.230   4.608  12.823  0.1853 -0.4034 -1.2679
 4802TIP3   OH235896   2.948   6.180  16.086 -0.1710  0.4408 -0.1542
 4802TIP3    H135897   3.006   6.209  16.158  0.8387  1.3317 -1.2726
 4802TIP3    H235898   2.875   6.241  16.089 -1.1398 -0.7313  1.3142
 4803TIP3   OH235899   4.740   1.185  13.188  0.4348 -0.1832 -0.3305
 4803TIP3    H135900   4.734   1.269  13.143  2.3089  0.4244  0.4498
 4803TIP3    H235901   4.697   1.123  13.129 -1.4405  1.3620 -0.7003
 4804TIP3   OH235902   4.484   3.774  16.425 -0.2675  0.2140 -0.1672
 4804TIP3    H135903   4.431   3.779  16.505  1.0408  1.1225  0.6738
 4804TIP3    H235904   4.564   3.728  16.453  0.6733  1.4908 -0.6599
 4805TIP3   OH235905   4.220   4.861   2.705 -0.2522 -0.8154  0.1982
 4805TIP3    H135906   4.189   4.811   2.781  0.8230 -0.1445  1.1196
 4805TIP3    H235907   4.203   4.952   2.728  2.3842 -0.3961  0.8162
 4806TIP3   OH235908   3.086   1.578  12.234 -0.2287  0.0319  0.5168
 4806TIP3    H135909   3.081   1.587  12.329 -2.0920  1.0196  0.3716
 4806TIP3    H235910   3.137   1.654  12.205  0.2664 -0.2243  0.7115
 4807TIP3   OH235911   5.004   4.126   5.148 -0.5738 -0.2535 -0.6748
 4807TIP3    H135912   4.959   4.074   5.081 -0.8019 -0.7864 -0.1111
 4807TIP3    H235913   4.937   4.187   5.179 -0.5119 -0.1145 -0.8100
 4808TIP3   OH235914   4.115   0.140  13.098  0.0202  0.4519  0.7522
 4808TIP3    H135915   4.196   0.090  13.090  1.3313  2.1661  2.4605
 4808TIP3    H235916   4.134   0.223  13.055 -0.9561  0.7377  0.8522
 4809TIP3   OH235917   2.030   2.170  14.660 -0.0040  0.2662 -0.5362
 4809TIP3    H135918   2.103   2.195  14.605  2.4244 -1.1250  1.8205
 4809TIP3    H235919   2.065   2.101  14.717 -3.1161 -0.3814  0.8123
 4810TIP3   OH235920   5.229   0.219   1.597 -0.0322 -0.6490 -0.3499
 4810TIP3    H135921   5.259   0.213   1.507  0.2819  0.9383 -0.3891
 4810TIP3    H235922   5.174   0.297   1.599 -2.3718 -2.2090  0.2341
 4811TIP3   OH235923   0.506   4.315  12.341 -0.0971 -1.1566  0.2489
 4811TIP3    H135924   0.443   4.275  12.282  1.5186  0.0148 -2.4921
 4811TIP3    H235925   0.455   4.377  12.393 -1.0269  2.1933 -4.0878
 4812TIP3   OH235926   1.868   1.986  16.686  0.3620 -0.1310 -0.2806
 4812TIP3    H135927   1.936   1.942  16.737 -0.4678  0.7286  1.6504
 4812TIP3    H235928   1.870   2.076  16.717 -0.3620  0.3620 -1.6139
 4813TIP3   OH235929   4.508   3.335  15.575  0.0764  0.0689 -0.0632
 4813TIP3    H135930   4.540   3.349  15.486 -1.2664 -0.7064 -0.6957
 4813TIP3    H235931   4.494   3.423  15.610 -0.5211  0.3677 -1.0480
 4814TIP3   OH235932   5.879   4.536   2.431 -0.5325  0.7748  0.0494
 4814TIP3    H135933   5.886   4.627   2.404  1.1130  0.1784 -1.8133
 4814TIP3    H235934   5.823   4.495   2.365 -0.7062  0.2956  0.4857
 4815TIP3   OH235935   3.254   2.270  12.987 -0.4919  0.1374 -0.1019
 4815TIP3    H135936   3.213   2.343  13.034 -1.0454 -0.5126  0.4508
 4815TIP3    H235937   3.208   2.193  13.019  0.6444 -0.5441 -0.0661
 4816TIP3   OH235938   3.880   1.831   5.028 -0.3061  0.0848  0.0266
 4816TIP3    H135939   3.821   1.905   5.015 -1.0702 -0.2304  1.4496
 4816TIP3    H235940   3.884   1.820   5.123  1.9509 -0.0070 -0.0129
 4817TIP3   OH235941   2.353   3.842  16.200  0.1406 -0.3808 -0.9680
 4817TIP3    H135942   2.415   3.773  16.222  1.4603  0.6837 -1.2317
 4817TIP3    H235943   2.395   3.890  16.129 -1.3095 -0.0474 -1.6395
 4818TIP3   OH235944   3.444   5.230   4.519 -0.5078  0.0812 -0.1485
 4818TIP3    H135945   3.493   5.253   4.439  0.9975 -0.1482  0.6657
 4818TIP3    H235946   3.378   5.168   4.489  2.1078 -2.6438 -0.8348
 4819TIP3   OH235947   5.618   5.800   0.588 -0.4337 -0.1869  0.0671
 4819TIP3    H135948   5.558   5.864   0.550  0.0107 -0.9425 -2.0226
 4819TIP3    H235949   5.598   5.718   0.542  1.5126 -0.6866  0.0246
 4820TIP3   OH235950   4.419   5.765  13.903 -0.3179 -0.0904  0.1319
 4820TIP3    H135951   4.453   5.802  13.821 -1.1203 -3.3432 -1.8459
 4820TIP3    H235952   4.342   5.817  13.923 -0.9960 -0.1429 -2.0954
 4821TIP3   OH235953   1.369   5.896   4.441 -0.2037 -0.2337  0.0274
 4821TIP3    H135954   1.346   5.814   4.485 -1.2403 -0.0941 -0.2306
 4821TIP3    H235955   1.409   5.949   4.510 -1.2221 -0.2575  0.6548
 4822TIP3   OH235956   4.100   4.607   3.992 -0.7108  0.6305 -0.1098
 4822TIP3    H135957   4.157   4.666   4.041  0.3789 -1.1581  0.9026
 4822TIP3    H235958   4.155   4.577   3.919 -0.5140 -0.6550  0.5364
 4823TIP3   OH235959   1.295   3.880   6.007 -0.2337 -0.6286 -0.5374
 4823TIP3    H135960   1.368   3.875   6.069 -1.4640 -0.0996  1.0370
 4823TIP3    H235961   1.227   3.827   6.047 -1.2500  0.1724 -1.1617
 4824TIP3   OH235962   6.271   4.189   2.803 -0.4097  0.1731  0.3897
 4824TIP3    H135963   6.261   4.108   2.853  1.3695 -0.2807  0.1032
 4824TIP3    H235964   6.350   4.174   2.751 -1.1034  1.4003 -1.0593
 4825TIP3   OH235965   0.245   4.708   0.827  0.3583 -0.3999 -0.1147
 4825TIP3    H135966   0.314   4.763   0.863 -1.9302  0.7801  2.8745
 4825TIP3    H235967   0.264   4.620   0.861  0.8406 -0.2701 -0.0456
 4826TIP3   OH235968   4.709   0.649   1.061  0.4459  0.3045 -0.2842
 4826TIP3    H135969   4.666   0.564   1.072 -1.9734  0.9621 -3.3251
 4826TIP3    H235970   4.651   0.711   1.107  1.6238  0.5062  0.9937
 4827TIP3   OH235971   4.105   2.681  15.459 -0.2383 -0.2256  0.3749
 4827TIP3    H135972   4.068   2.746  15.400 -0.3395  0.6587  1.3861
 4827TIP3    H235973   4.076   2.597  15.423 -3.5941  0.3900  1.2934
 4828TIP3   OH235974   1.199   1.386  12.368 -0.1275 -0.0616  0.1854
 4828TIP3    H135975   1.204   1.478  12.340  0.5426 -0.5981 -1.6092
 4828TIP3    H235976   1.109   1.360  12.349 -0.3412  0.2368  0.7700
 4829TIP3   OH235977   2.988   2.753   5.606  0.2681 -0.1666 -0.4221
 4829TIP3    H135978   3.031   2.837   5.626  0.5106 -0.6136  1.0366
 4829TIP3    H235979   3.011   2.736   5.515 -0.9143  2.0147 -1.1954
 4830TIP3   OH235980   0.824   1.080  14.931 -0.2824 -0.4908  0.4477
 4830TIP3    H135981   0.737   1.075  14.892  0.1576  0.3053 -0.6694
 4830TIP3    H235982   0.814   1.037  15.017 -1.6946 -0.6486  0.2274
 4831TIP3   OH235983   3.099   4.824  14.689 -0.0090 -0.5060  0.4327
 4831TIP3    H135984   3.134   4.894  14.635 -1.3307  0.5793  0.9098
 4831TIP3    H235985   3.125   4.847  14.778 -0.6933 -0.4402  0.6252
 4832TIP3   OH235986   3.412   5.194  16.341  0.3051  0.1377 -0.4684
 4832TIP3    H135987   3.503   5.163  16.344  0.1660 -0.2324  0.0194
 4832TIP3    H235988   3.362   5.124  16.382 -0.2715  0.0932 -1.2386
 4833TIP3   OH235989   0.949   0.563  13.739  0.2925  0.2766  0.2744
 4833TIP3    H135990   0.968   0.486  13.685  0.5877  0.5513 -0.0192
 4833TIP3    H235991   0.854   0.567  13.742  0.2644 -0.5204  0.8990
 4834TIP3   OH235992   3.327   1.414  14.700 -0.0647 -0.3523 -0.1389
 4834TIP3    H135993   3.295   1.484  14.644 -0.5605 -0.7035 -0.2997
 4834TIP3    H235994   3.267   1.412  14.774  0.5088  0.0190  0.3532
 4835TIP3   OH235995   2.527   0.038   1.606 -0.3508 -0.3515 -0.1280
 4835TIP3    H135996   2.466  -0.023   1.647 -0.3002  0.8775  1.9408
 4835TIP3    H235997   2.472   0.091   1.547 -1.3192  0.5783  1.5215
 4836TIP3   OH235998   3.350   5.977   6.085  0.0385  0.3149  0.1036
 4836TIP3    H135999   3.394   5.897   6.113 -1.2621  0.2051  2.0038
 4836TIP3    H236000   3.275   5.946   6.034  0.3990  0.4038 -0.4953
 4837TIP3   OH236001   3.067   6.107   6.066  0.1755 -0.1568  0.1007
 4837TIP3    H136002   2.976   6.089   6.087  0.0305  1.3928  0.8913
 4837TIP3    H236003   3.064   6.138   5.975 -0.0885 -0.0460  0.1454
 4838TIP3   OH236004   6.107   3.289  15.277  0.1522  0.6613 -0.6896
 4838TIP3    H136005   6.039   3.258  15.218 -0.7967 -0.0762  0.7251
 4838TIP3    H236006   6.073   3.271  15.365  3.7268 -3.4209  0.1806
 4839TIP3   OH236007   5.575   0.357   5.508 -0.4773  0.4712 -0.8467
 4839TIP3    H136008   5.664   0.379   5.479 -0.4041  2.0678  0.4126
 4839TIP3    H236009   5.585   0.275   5.557  0.4658  0.9925 -0.1106
 4840TIP3   OH236010   6.629   2.799  13.723 -0.2436  0.0581 -0.4135
 4840TIP3    H136011   6.703   2.764  13.673 -0.3575 -1.1523  0.2243
 4840TIP3    H236012   6.661   2.884  13.755  1.3902 -0.9674  0.8898
 4841TIP3   OH236013   2.147   3.128  14.174  0.0857 -0.8846  0.4313
 4841TIP3    H136014   2.161   3.068  14.247 -0.3771 -0.0235  1.2495
 4841TIP3    H236015   2.084   3.084  14.118 -0.4376 -1.0721  1.1484
 4842TIP3   OH236016   0.488   0.834  11.825 -0.1008 -0.1272 -0.0500
 4842TIP3    H136017   0.580   0.813  11.842 -0.1596 -0.0785  0.3212
 4842TIP3    H236018   0.468   0.788  11.743 -0.0130 -0.8993  0.3520
 4843TIP3   OH236019   2.586   0.537   6.489  0.2292  0.1494 -0.2252
 4843TIP3    H136020   2.661   0.530   6.548 -0.0034 -0.2817  0.0204
 4843TIP3    H236021   2.625   0.563   6.405  0.6619 -0.1323 -0.1176
 4844TIP3   OH236022   5.770   6.645  11.367 -0.1359 -0.1257 -0.2010
 4844TIP3    H136023   5.792   6.557  11.398  0.2451  0.1420  0.3041
 4844TIP3    H236024   5.842   6.669  11.309 -0.5251 -0.3654 -0.7990
 4845TIP3   OH236025   2.074   5.153  13.408 -0.3621  0.4005 -0.3425
 4845TIP3    H136026   2.050   5.244  13.389  0.2350  0.3103 -1.6810
 4845TIP3    H236027   2.159   5.160  13.452 -2.2541  0.6781  3.7431
 4846TIP3   OH236028   3.564   5.831  16.494  0.2897 -0.6700 -0.1128
 4846TIP3    H136029   3.590   5.768  16.426 -0.0567 -0.2573 -0.6356
 4846TIP3    H236030   3.591   5.790  16.576  0.5849 -1.2446 -0.4880
 4847TIP3   OH236031   2.974   3.153   3.709 -0.6801 -0.2790  0.1438
 4847TIP3    H136032   2.956   3.161   3.803 -0.4890 -2.7141  0.4380
 4847TIP3    H236033   3.055   3.201   3.696 -0.8565  0.3307  1.1569
 4848TIP3   OH236034   3.302   2.579  13.713  0.0940  0.1225  0.1333
 4848TIP3    H136035   3.357   2.547  13.784 -0.3739  0.8987  0.8610
 4848TIP3    H236036   3.273   2.499  13.668  0.5505 -0.3720  0.6935
 4849TIP3   OH236037   0.463   6.546   0.413  0.4217  0.5436 -0.7388
 4849TIP3    H136038   0.383   6.556   0.361  0.6276  1.1054 -0.9645
 4849TIP3    H236039   0.488   6.455   0.401 -1.9131 -0.5755  1.9107
 4850TIP3   OH236040   5.090   6.477   6.074  0.1461 -0.2779  0.2649
 4850TIP3    H136041   5.006   6.440   6.048 -0.4040  0.2365  1.2488
 4850TIP3    H236042   5.072   6.521   6.157  0.8650  1.7524 -0.5773
 4851TIP3   OH236043   6.500   1.442   4.742 -0.0993  0.1552  0.4676
 4851TIP3    H136044   6.523   1.534   4.758  1.1999 -0.2048  0.8032
 4851TIP3    H236045   6.575   1.393   4.777  1.2008 -0.8969 -3.2884
 4852TIP3   OH236046   6.394   4.263   0.217 -0.2799 -0.5101 -0.2199
 4852TIP3    H136047   6.312   4.232   0.178 -0.7356  0.1262  0.2133
 4852TIP3    H236048   6.385   4.358   0.219  1.0019 -0.3498 -1.3121
 4853TIP3   OH236049   2.896   4.628   5.208  0.3603  0.2342  0.0206
 4853TIP3    H136050   2.812   4.675   5.201 -0.4785 -1.3007 -0.8161
 4853TIP3    H236051   2.918   4.632   5.301 -0.2759  1.2834  0.1376
 4854TIP3   OH236052   1.217   1.136  15.485  0.2441  0.0395 -0.1216
 4854TIP3    H136053   1.222   1.105  15.575 -1.7898 -0.0605 -0.0079
 4854TIP3    H236054   1.211   1.056  15.432  3.2293 -0.0076 -0.5878
 4855TIP3   OH236055   4.873   4.957   4.347  0.0263  0.4800  1.2856
 4855TIP3    H136056   4.796   4.963   4.290 -0.6210  0.1998  2.1150
 4855TIP3    H236057   4.855   4.882   4.403  1.7255 -0.7167  0.3181
 4856TIP3   OH236058   6.727   1.118   3.677  0.5450  0.1477 -0.1487
 4856TIP3    H136059   6.668   1.085   3.745  1.3635 -1.3203 -0.1186
 4856TIP3    H236060   6.744   1.209   3.703 -1.2011  0.4379  0.1634
 4857TIP3   OH236061   4.859   0.876   3.485  0.1281  0.2650  0.1338
 4857TIP3    H136062   4.778   0.907   3.443 -1.1844 -2.1852  0.6766
 4857TIP3    H236063   4.905   0.956   3.510 -2.8211  1.8028  1.1352
 4858TIP3   OH236064   4.824   5.156  12.418 -0.2370  0.2412  0.1396
 4858TIP3    H136065   4.857   5.066  12.419 -0.3656  0.1373 -1.5120
 4858TIP3    H236066   4.730   5.147  12.434  0.2255  0.4303  3.5565
 4859TIP3   OH236067   6.152   0.607   6.837 -0.0641 -0.5760 -0.4333
 4859TIP3    H136068   6.139   0.639   6.748 -0.0486 -0.1970 -0.2994
 4859TIP3    H236069   6.241   0.635   6.859 -0.5978  0.6282  0.2436
 4860TIP3   OH236070   1.802   2.351  15.021  0.3548  0.4612  0.5980
 4860TIP3    H136071   1.801   2.382  14.930  0.7940  0.5804  0.6352
 4860TIP3    H236072   1.884   2.302  15.029  0.3920  0.5878  0.9810
 4861TIP3   OH236073   6.057   0.696  12.970  0.6023 -0.4968  0.0510
 4861TIP3    H136074   6.100   0.652  12.897  0.5187 -0.0408 -0.2756
 4861TIP3    H236075   6.097   0.657  13.048  0.3055 -1.3653 -0.2259
 4862TIP3   OH236076   0.768   2.797  10.878 -0.9095  0.3846  0.6988
 4862TIP3    H136077   0.848   2.795  10.931 -0.8912  0.3509  0.6694
 4862TIP3    H236078   0.769   2.715  10.830 -1.6330 -0.2294  1.6915
 4863TIP3   OH236079   2.441   0.412  16.477  0.5537 -0.0924 -0.1269
 4863TIP3    H136080   2.451   0.323  16.442  0.2856  0.8514 -2.7608
 4863TIP3    H236081   2.365   0.406  16.536  0.3039 -1.5074 -0.5536
 4864TIP3   OH236082   4.764   5.400   6.300 -0.4799  0.7487  0.0898
 4864TIP3    H136083   4.728   5.477   6.256  0.9661  2.1539  1.2082
 4864TIP3    H236084   4.851   5.429   6.330 -0.9320 -0.4559  2.8260
 4865TIP3   OH236085   1.364   6.748   2.529  0.1695 -0.5420  0.1593
 4865TIP3    H136086   1.295   6.749   2.595  0.2743 -1.7547  0.3017
 4865TIP3    H236087   1.442   6.780   2.576  0.2418 -1.3850  0.6295
 4866TIP3   OH236088   2.446   1.874   1.588 -0.0370 -0.5367 -0.0469
 4866TIP3    H136089   2.358   1.876   1.625  0.7981  0.4459  2.0350
 4866TIP3    H236090   2.482   1.790   1.615 -0.4128 -1.1158 -1.2365
 4867TIP3   OH236091   3.239   0.913   2.117 -0.4677  0.3171  0.4455
 4867TIP3    H136092   3.288   0.991   2.092 -0.4468  0.3114  0.4693
 4867TIP3    H236093   3.265   0.847   2.053 -1.9335  0.8585 -0.7722
 4868TIP3   OH236094   0.378   0.927  11.419 -0.0207  0.3968 -0.6426
 4868TIP3    H136095   0.356   1.012  11.382 -0.1660  1.3522  1.5091
 4868TIP3    H236096   0.294   0.886  11.439  0.0614  0.0245 -1.0363
 4869TIP3   OH236097   1.173   4.192  14.570 -0.3195  0.0094 -0.0049
 4869TIP3    H136098   1.202   4.225  14.655 -0.7573  1.1613 -0.2809
 4869TIP3    H236099   1.218   4.247  14.506 -1.6343  0.6121 -0.4647
 4870TIP3   OH236100   4.836   1.133  15.463 -0.1950 -0.2751 -0.3642
 4870TIP3    H136101   4.774   1.204  15.450  1.0580  0.5091 -2.5354
 4870TIP3    H236102   4.782   1.054  15.471 -1.5042  0.5820 -0.5873
 4871TIP3   OH236103   2.262   6.502   1.854 -1.0909 -0.2969  0.3440
 4871TIP3    H136104   2.317   6.461   1.921 -0.9508 -0.1287  0.3336
 4871TIP3    H236105   2.176   6.462   1.866 -0.8379 -0.9587  0.0048
 4872TIP3   OH236106   5.599   4.974   5.315  0.5646 -0.0425  0.1747
 4872TIP3    H136107   5.666   4.975   5.247 -1.1388 -1.5040 -1.6457
 4872TIP3    H236108   5.517   4.963   5.268 -0.8223 -0.0585  2.4290
 4873TIP3   OH236109   2.448   0.585   2.311 -0.3156 -0.0884  0.3630
 4873TIP3    H136110   2.431   0.635   2.391 -0.3611 -0.9259  0.8886
 4873TIP3    H236111   2.382   0.516   2.312 -0.6469  0.1992 -0.6733
 4874TIP3   OH236112   2.747   4.156   4.107  0.3554  0.3845 -0.2365
 4874TIP3    H136113   2.653   4.140   4.107  0.5238 -0.8014 -1.6592
 4874TIP3    H236114   2.786   4.073   4.132  1.0123  1.9042  4.8054
 4875TIP3   OH236115   3.123   5.712   1.871 -0.2801  0.5613  0.8472
 4875TIP3    H136116   3.080   5.651   1.812  0.6433  0.6530  0.0522
 4875TIP3    H236117   3.173   5.657   1.931 -0.0532  0.5068  0.6101
 4876TIP3   OH236118   5.199   0.826   5.478  0.2544  0.1073  0.5383
 4876TIP3    H136119   5.173   0.739   5.510 -0.5641  0.0492 -0.2463
 4876TIP3    H236120   5.278   0.847   5.528  1.3320 -1.7327 -0.2547
 4877TIP3   OH236121   2.948   4.728   1.851 -0.0509 -0.0618  0.3397
 4877TIP3    H136122   2.892   4.805   1.861 -0.1570 -0.1244  0.2404
 4877TIP3    H236123   2.961   4.695   1.940  0.0354  0.0992  0.3867
 4878TIP3   OH236124   0.453   6.348  16.606 -0.6159 -0.1146 -0.5551
 4878TIP3    H136125   0.370   6.333  16.652  0.3737 -2.4269  0.6896
 4878TIP3    H236126   0.493   6.261  16.602  2.1099  1.0591 -0.4128
 4879TIP3   OH236127   0.084   4.880   3.868  0.5362  0.7105 -0.1361
 4879TIP3    H136128   0.167   4.850   3.830  1.0084  1.0023  0.6492
 4879TIP3    H236129   0.017   4.826   3.826  1.1594  0.2024 -0.4830
 4880TIP3   OH236130   0.652   5.406   4.702 -0.0818  0.2531 -0.3788
 4880TIP3    H136131   0.742   5.396   4.671  0.4687 -0.0207  1.2057
 4880TIP3    H236132   0.599   5.361   4.636  0.7697  1.5721 -2.0546
 4881TIP3   OH236133   6.556   5.430  14.953 -0.2792 -0.3318  0.2738
 4881TIP3    H136134   6.649   5.450  14.959 -0.2336  0.2323 -1.6669
 4881TIP3    H236135   6.550   5.336  14.972  0.5710 -0.2366  1.0959
 4882TIP3   OH236136   2.441   4.884   2.633  0.1850  0.7679 -0.0953
 4882TIP3    H136137   2.385   4.863   2.708  0.0513  0.5161 -0.2624
 4882TIP3    H236138   2.508   4.815   2.634 -0.5204  0.0440 -0.9171
 4883TIP3   OH236139   4.771   3.370  16.719  0.3442 -0.2878 -0.1156
 4883TIP3    H136140   4.693   3.334  16.760  0.2412  0.8573  0.7329
 4883TIP3    H236141   4.823   3.405  16.792  1.2694 -0.3205 -0.7418
 4884TIP3   OH236142   4.938   0.515   4.034  0.2418 -0.0381  0.2085
 4884TIP3    H136143   4.888   0.496   3.953 -0.7843 -2.0977  1.2290
 4884TIP3    H236144   4.888   0.584   4.077  0.9862  1.3351 -1.0193
 4885TIP3   OH236145   4.421   5.123   4.736  0.8197  0.8615 -0.3579
 4885TIP3    H136146   4.493   5.061   4.746 -0.0280  0.0390  0.8092
 4885TIP3    H236147   4.438   5.165   4.651  2.1832  0.0736 -0.5117
 4886TIP3   OH236148   1.420   4.799  10.534  0.1392  0.2535  0.1245
 4886TIP3    H136149   1.502   4.774  10.491 -0.4294 -0.6400 -0.4724
 4886TIP3    H236150   1.430   4.770  10.625  0.9320  1.2076  0.3635
 4887TIP3   OH236151   0.798   5.367  14.134 -0.5409 -0.0192  0.3148
 4887TIP3    H136152   0.763   5.343  14.219 -0.2001  0.7191  0.6723
 4887TIP3    H236153   0.721   5.393  14.083 -0.8474 -1.3007  0.0984
 4888TIP3   OH236154   0.498   3.590  17.187 -0.0508 -0.0935  0.3889
 4888TIP3    H136155   0.445   3.596  17.267  0.5475 -0.2118  0.8043
 4888TIP3    H236156   0.563   3.522  17.207 -1.4055 -1.9216 -1.0982
 4889TIP3   OH236157   0.661   0.143  14.654 -0.1123  0.0315 -0.5981
 4889TIP3    H136158   0.587   0.110  14.704  0.6856  0.1546  0.7215
 4889TIP3    H236159   0.734   0.086  14.678  0.4155  0.4103 -1.2384
 4890TIP3   OH236160   3.917   2.774   3.942  0.3315  0.1472  0.2371
 4890TIP3    H136161   3.908   2.859   3.985  1.2656 -0.2191  1.2059
 4890TIP3    H236162   3.995   2.782   3.887 -0.3881  0.3500 -0.7799
 4891TIP3   OH236163   3.993   2.546   6.269 -0.1977  0.1859 -0.0841
 4891TIP3    H136164   3.965   2.463   6.231 -0.0818 -0.1447  0.5479
 4891TIP3    H236165   3.918   2.576   6.319  0.0035  0.1157  0.2594
 4892TIP3   OH236166   0.266   6.018   5.533  0.6862  0.1619 -0.7243
 4892TIP3    H136167   0.256   5.938   5.483  0.8439 -1.4343  1.6356
 4892TIP3    H236168   0.230   5.997   5.619  4.7141  1.0716  1.4223
 4893TIP3   OH236169   3.430   5.185   3.200  0.4905  0.2426  0.3080
 4893TIP3    H136170   3.337   5.162   3.197  0.3934  0.7171 -0.5899
 4893TIP3    H236171   3.454   5.173   3.292 -0.0760 -1.3527  0.2908
 4894TIP3   OH236172   5.098   4.751   5.481 -0.4502 -0.0744  0.4831
 4894TIP3    H136173   5.108   4.656   5.473 -0.6756 -0.0508 -0.1289
 4894TIP3    H236174   5.007   4.763   5.509 -0.8192  0.0066 -0.6907
 4895TIP3   OH236175   3.501   6.676   5.440  0.0840 -0.3638 -0.0180
 4895TIP3    H136176   3.500   6.602   5.379  2.3277 -0.8228  0.3947
 4895TIP3    H236177   3.547   6.642   5.517  2.1974  1.7018 -0.2443
 4896TIP3   OH236178   2.350   3.951  16.629 -0.1165 -0.1673  0.2078
 4896TIP3    H136179   2.283   3.983  16.569  0.0313  0.5459  0.4138
 4896TIP3    H236180   2.387   3.875  16.585 -1.4029 -0.8816  0.3239
 4897TIP3   OH236181   4.819   5.513  13.893  0.0648 -0.1250 -0.5722
 4897TIP3    H136182   4.774   5.595  13.913 -0.6076 -1.0097  1.8829
 4897TIP3    H236183   4.781   5.449  13.954  2.6105 -1.5809 -0.3605
 4898TIP3   OH236184   6.143   5.451  15.418 -0.0435  0.1448  0.1266
 4898TIP3    H136185   6.141   5.546  15.411  1.3112  0.2475  0.8180
 4898TIP3    H236186   6.213   5.424  15.358  0.3368 -0.3082  0.7567
 4899TIP3   OH236187   6.115   6.720  15.649  0.7103 -0.2391 -0.1919
 4899TIP3    H136188   6.078   6.694  15.564 -1.8995  1.7706  0.2047
 4899TIP3    H236189   6.057   6.681  15.714  2.7979 -1.9303  0.7831
 4900TIP3   OH236190   1.982   0.023   5.597 -0.4389  0.8324 -0.6424
 4900TIP3    H136191   2.031   0.038   5.678 -1.4068 -1.4626  0.4714
 4900TIP3    H236192   2.034  -0.042   5.549 -1.6052 -0.5062 -0.1424
 4901TIP3   OH236193   3.192   6.498   4.126 -0.0262 -0.3107 -0.0160
 4901TIP3    H136194   3.217   6.538   4.043 -0.3109 -1.6228 -0.7611
 4901TIP3    H236195   3.266   6.440   4.147  0.5818  0.8776  1.2681
 4902TIP3   OH236196   5.622   2.239  15.655  0.8259  0.1695  0.0737
 4902TIP3    H136197   5.640   2.268  15.566  0.5639 -0.5355 -0.2182
 4902TIP3    H236198   5.564   2.305  15.692  1.4465  0.7955 -0.0566
 4903TIP3   OH236199   6.766   0.359  12.781 -0.0444 -0.1254  0.1902
 4903TIP3    H136200   6.814   0.277  12.794 -1.2242 -0.4830  2.9781
 4903TIP3    H236201   6.767   0.401  12.866 -1.3754  1.7061 -0.6385
 4904TIP3   OH236202   0.857   4.710  13.815 -0.2544 -0.0372  0.1486
 4904TIP3    H136203   0.764   4.710  13.838 -0.1368  1.3839  0.7422
 4904TIP3    H236204   0.875   4.801  13.790  0.7139 -0.5538 -1.0816
 4905TIP3   OH236205   3.139   3.561   5.559  0.2282 -0.5712 -0.5870
 4905TIP3    H136206   3.125   3.495   5.627 -1.9894 -1.2561 -1.6387
 4905TIP3    H236207   3.214   3.527   5.509  0.4112 -1.2398  0.1197
 4906TIP3   OH236208   3.479   0.848  15.372 -0.1518  0.1564 -0.1656
 4906TIP3    H136209   3.435   0.913  15.317 -0.1693  0.8682  0.6762
 4906TIP3    H236210   3.427   0.846  15.453  0.5782  0.0118  0.3063
 4907TIP3   OH236211   0.500   3.223   5.994 -0.2219  0.1541  0.3317
 4907TIP3    H136212   0.546   3.267   6.066 -2.1043 -0.0852  1.7438
 4907TIP3    H236213   0.411   3.209   6.027 -0.6007 -1.7354 -1.3207
 4908TIP3   OH236214   4.789   3.816   5.885 -0.0612  0.4470 -0.4771
 4908TIP3    H136215   4.810   3.766   5.964 -1.0504 -1.3610 -1.3049
 4908TIP3    H236216   4.700   3.848   5.901  0.1220  0.9386 -0.4422
 4909TIP3   OH236217   4.809   3.629   0.568  0.3576 -0.3403 -0.0132
 4909TIP3    H136218   4.836   3.642   0.477 -1.9979  0.9713 -0.6016
 4909TIP3    H236219   4.821   3.535   0.583  1.5103 -0.4456 -1.3990
 4910TIP3   OH236220   4.999   3.794  12.032 -0.6282 -0.3693  0.4608
 4910TIP3    H136221   5.005   3.699  12.022  0.7637 -0.2665  0.0914
 4910TIP3    H236222   4.937   3.821  11.964 -0.4630 -0.9408  0.0748
 4911TIP3   OH236223   5.356   5.543   6.497 -0.0412  0.1328 -0.2264
 4911TIP3    H136224   5.377   5.472   6.558  1.1346  0.7436  0.1006
 4911TIP3    H236225   5.337   5.618   6.553  1.6951  0.8762 -0.5815
 4912TIP3   OH236226   5.438   1.460   3.633 -0.0977  0.1800 -0.0908
 4912TIP3    H136227   5.515   1.405   3.621 -0.0001  0.3650 -0.3248
 4912TIP3    H236228   5.365   1.405   3.609  0.0840  0.5035 -1.4411
 4913TIP3   OH236229   1.998   5.914   6.027  0.2007  0.3934 -0.3853
 4913TIP3    H136230   1.922   5.872   6.067 -0.0394  0.9548 -0.2341
 4913TIP3    H236231   2.071   5.894   6.085 -0.1841  1.3761  0.4556
 4914TIP3   OH236232   1.998   5.122  16.966 -0.2172  0.0801  0.1212
 4914TIP3    H136233   2.010   5.148  16.874  2.6138 -1.8042 -0.1522
 4914TIP3    H236234   2.058   5.178  17.015 -0.0866 -0.4379  0.5531
 4915TIP3   OH236235   0.975   5.345   1.469 -0.9241  0.0340 -0.2918
 4915TIP3    H136236   1.008   5.342   1.379 -0.5528  0.9971 -0.2040
 4915TIP3    H236237   0.885   5.312   1.464 -0.8557 -0.0474 -0.9893
 4916TIP3   OH236238   0.311   0.919   2.181  0.6166 -0.0698  0.3738
 4916TIP3    H136239   0.224   0.934   2.145  0.2370  0.6288  1.5408
 4916TIP3    H236240   0.334   1.001   2.224  1.1630 -0.7915  1.4901
 4917TIP3   OH236241   0.456   0.545   3.916  0.0284 -0.0377 -0.0492
 4917TIP3    H136242   0.437   0.452   3.906 -0.4242 -0.0713  1.0600
 4917TIP3    H236243   0.526   0.549   3.980 -0.1623  0.4011  0.1385
 4918TIP3   OH236244   2.013   3.735  16.199  0.2007  0.6258  0.6141
 4918TIP3    H136245   2.009   3.669  16.129 -1.2879 -0.3457  1.5599
 4918TIP3    H236246   2.098   3.720  16.240 -0.3001 -1.1096  1.1280
 4919TIP3   OH236247   2.816   2.165  12.228 -0.0713 -0.1855 -0.1823
 4919TIP3    H136248   2.902   2.124  12.225  0.3575  0.7253 -0.9956
 4919TIP3    H236249   2.831   2.253  12.195 -1.4356 -0.2276 -0.9684
 4920TIP3   OH236250   2.289   5.839  14.891 -0.2002 -0.2013 -0.1485
 4920TIP3    H136251   2.241   5.873  14.966 -0.5557  1.9384 -1.2742
 4920TIP3    H236252   2.228   5.846  14.818 -0.6661 -4.2890 -0.4077
 4921TIP3   OH236253   6.134   0.172  15.533  0.5324  0.0198 -0.4331
 4921TIP3    H136254   6.101   0.108  15.597 -0.4358  1.4618  0.5808
 4921TIP3    H236255   6.225   0.146  15.517  0.9340 -0.1548  1.8569
 4922TIP3   OH236256   2.564   4.344  13.271  0.1792  0.2341 -0.4877
 4922TIP3    H136257   2.575   4.435  13.300 -0.7329  0.4690 -0.8616
 4922TIP3    H236258   2.556   4.350  13.176  0.1784 -0.2503 -0.5198
 4923TIP3   OH236259   5.178   6.660  11.628  0.5718 -0.0224 -0.1776
 4923TIP3    H136260   5.136   6.630  11.548 -0.2624  1.6266 -0.3812
 4923TIP3    H236261   5.259   6.702  11.598  0.3511  0.4297 -0.1398
 4924TIP3   OH236262   3.323   0.171  16.610  0.3051  0.0685 -0.1893
 4924TIP3    H136263   3.269   0.241  16.647  0.8533 -0.8194  2.4538
 4924TIP3    H236264   3.261   0.100  16.594  0.2489  0.0158  0.2427
 4925TIP3   OH236265   0.874   2.205  14.455  0.2498 -0.2257 -0.1430
 4925TIP3    H136266   0.888   2.131  14.396  1.0751 -0.5514  0.4277
 4925TIP3    H236267   0.935   2.272  14.424  0.9191 -0.5162  0.5153
 4926TIP3   OH236268   2.515   2.805   3.579 -0.3137 -0.5039  0.0312
 4926TIP3    H136269   2.582   2.830   3.642  1.0255 -0.7342 -1.2554
 4926TIP3    H236270   2.475   2.726   3.616  2.5493 -2.4836 -0.7686
 4927TIP3   OH236271   0.464   5.227  12.484 -0.3527 -0.3115 -0.5701
 4927TIP3    H136272   0.477   5.204  12.392  0.1818 -1.4545 -0.2270
 4927TIP3    H236273   0.374   5.259  12.489 -0.5059 -0.5954 -1.4209
 4928TIP3   OH236274   1.147   3.202  11.043  0.0214  0.2451 -0.4591
 4928TIP3    H136275   1.065   3.251  11.051 -0.4048 -0.4947 -0.2661
 4928TIP3    H236276   1.214   3.263  11.075 -0.8679 -0.3838  3.0396
 4929TIP3   OH236277   2.369   3.469   5.640  0.0150 -0.5646  0.3303
 4929TIP3    H136278   2.443   3.496   5.694 -0.3194  0.0605  0.4847
 4929TIP3    H236279   2.390   3.380   5.613 -0.2393 -1.2625  2.2717
 4930TIP3   OH236280   0.447   3.204  17.107 -0.2834  0.5130 -0.3099
 4930TIP3    H136281   0.469   3.145  17.178  1.8690  0.7885 -0.6850
 4930TIP3    H236282   0.379   3.261  17.144 -1.2296 -1.1195  0.5685
 4931TIP3   OH236283   2.509   4.076  16.103  0.1335 -0.8177  0.6038
 4931TIP3    H136284   2.498   4.149  16.043  0.4855 -0.3802  1.0642
 4931TIP3    H236285   2.577   4.021  16.064  1.4801  0.2632  1.3354
 4932TIP3   OH236286   2.872   4.989   3.052 -0.3901  0.1620  0.2239
 4932TIP3    H136287   2.867   4.934   3.129 -0.4662 -1.3664 -0.8376
 4932TIP3    H236288   2.942   4.952   2.999 -0.1791  1.3131 -0.3544
 4933TIP3   OH236289   3.830   0.362   1.775 -0.4886 -0.2009 -0.7043
 4933TIP3    H136290   3.903   0.358   1.713 -0.3514 -1.9045 -0.4807
 4933TIP3    H236291   3.752   0.351   1.720 -0.5397  0.6043 -0.8173
 4934TIP3   OH236292   5.368   5.626   0.551  0.4896 -0.1661 -0.0566
 4934TIP3    H136293   5.408   5.539   0.543  0.1856 -0.2979 -0.1667
 4934TIP3    H236294   5.378   5.648   0.644 -1.6804 -1.4290  0.5546
 4935TIP3   OH236295   2.445   1.553  11.071 -0.2730 -0.2436  0.0072
 4935TIP3    H136296   2.392   1.624  11.035  0.6055  0.7103  0.5016
 4935TIP3    H236297   2.534   1.589  11.072  0.1899 -1.3671  0.2696
 4936TIP3   OH236298   2.355   4.672   2.147  0.5251 -0.3360 -0.0384
 4936TIP3    H136299   2.424   4.725   2.185 -1.8081  1.4505  2.0546
 4936TIP3    H236300   2.339   4.711   2.061 -2.7919  4.4548  2.3049
 4937TIP3   OH236301   1.758   5.217  15.345 -0.0427 -0.5207  0.0071
 4937TIP3    H136302   1.700   5.261  15.283 -0.0771 -0.9797 -0.2927
 4937TIP3    H236303   1.714   5.134  15.364  1.6650 -2.0351 -2.1639
 4938TIP3   OH236304   4.480   2.611  13.697 -0.4516 -0.1401 -0.3834
 4938TIP3    H136305   4.492   2.585  13.788  0.0062  0.0498 -0.3901
 4938TIP3    H236306   4.547   2.677  13.682 -2.3757  2.0244  0.0126
 4939TIP3   OH236307   3.572   5.205   0.838  0.4097  0.3609  0.1866
 4939TIP3    H136308   3.661   5.240   0.846  0.0029  1.4081  0.1601
 4939TIP3    H236309   3.515   5.278   0.861 -0.4417 -0.5110  0.9354
 4940TIP3   OH236310   0.497   0.147  14.067 -0.3072 -0.4895 -0.2444
 4940TIP3    H136311   0.542   0.168  14.149  0.1559 -0.0065 -0.6158
 4940TIP3    H236312   0.414   0.195  14.072 -1.2212 -2.0694  0.8291
 4941TIP3   OH236313   0.200   6.045  10.361  0.1364  0.0172  0.1932
 4941TIP3    H136314   0.283   6.017  10.401  0.5405  0.0253 -0.6315
 4941TIP3    H236315   0.189   6.135  10.390 -0.4666 -0.5032  1.7179
 4942TIP3   OH236316   1.475   1.909  17.065  0.8657 -0.2361 -0.2264
 4942TIP3    H136317   1.520   1.987  17.032  2.3051 -0.9995 -0.1836
 4942TIP3    H236318   1.442   1.865  16.987 -0.0185  0.4523 -0.2435
 4943TIP3   OH236319   3.914   3.008  12.571 -0.3138 -0.5118  0.1500
 4943TIP3    H136320   3.869   3.043  12.647  2.2809 -0.9969  2.0498
 4943TIP3    H236321   3.941   2.920  12.598  1.2928 -0.4248 -1.0204
 4944TIP3   OH236322   5.156   4.876   0.577 -0.5566 -0.2204 -0.4258
 4944TIP3    H136323   5.171   4.966   0.550  0.7824 -0.2719  0.0678
 4944TIP3    H236324   5.161   4.825   0.496 -0.1301  0.0293 -0.5597
 4945TIP3   OH236325   0.170   4.357  14.353 -0.1681  0.4668 -0.3804
 4945TIP3    H136326   0.257   4.356  14.393 -0.6779  0.1578  0.7755
 4945TIP3    H236327   0.148   4.264  14.341 -0.5706  0.5235 -0.1181
 4946TIP3   OH236328   3.238   6.406   4.805  0.4792  0.4901 -0.5721
 4946TIP3    H136329   3.211   6.495   4.782 -1.8254  0.4887  1.5736
 4946TIP3    H236330   3.168   6.351   4.770  0.3737 -0.1239  0.5420
 4947TIP3   OH236331   5.164   2.469   3.667  1.2855 -0.3657 -0.4514
 4947TIP3    H136332   5.239   2.456   3.725  1.2127  1.3125  0.0898
 4947TIP3    H236333   5.150   2.564   3.668 -0.1924 -0.5468 -1.3738
 4948TIP3   OH236334   5.528   6.816   1.465  0.2067  0.4541 -0.2642
 4948TIP3    H136335   5.443   6.812   1.509 -1.1539 -0.1962 -2.7967
 4948TIP3    H236336   5.546   6.726   1.440  0.8181  0.8426 -1.2551
 4949TIP3   OH236337   0.223   4.587   5.408  0.2176  0.3432  0.1814
 4949TIP3    H136338   0.296   4.527   5.390 -0.0672 -0.2885  1.0630
 4949TIP3    H236339   0.241   4.619   5.497 -0.4182  0.4249  0.2802
 4950TIP3   OH236340   2.565   4.864  16.730  0.1883  0.1133 -0.0224
 4950TIP3    H136341   2.483   4.868  16.680  0.2717 -3.4090 -0.6669
 4950TIP3    H236342   2.536   4.866  16.822 -0.4499  0.6747 -0.2235
 4951TIP3   OH236343   2.636   6.780   2.755 -0.3939 -0.0373  0.5524
 4951TIP3    H136344   2.595   6.772   2.669 -0.9378 -2.2678  0.9475
 4951TIP3    H236345   2.566   6.809   2.814 -0.2038  0.7658  0.3915
 4952TIP3   OH236346   5.943   4.189  12.573  0.0003  0.0229 -0.3069
 4952TIP3    H136347   6.037   4.172  12.564  0.1035  1.4754 -3.5120
 4952TIP3    H236348   5.909   4.112  12.618  2.8130 -0.1170  1.8233
 4953TIP3   OH236349   6.606   4.876  13.958 -0.4803 -0.3169  0.5703
 4953TIP3    H136350   6.535   4.814  13.969 -0.7984 -0.1854 -0.6926
 4953TIP3    H236351   6.567   4.951  13.914  0.4045 -0.1902 -0.0262
 4954TIP3   OH236352   1.089   1.887  14.957 -0.4591 -0.4144 -0.6031
 4954TIP3    H136353   1.112   1.808  14.908  1.1624  0.9752 -2.2334
 4954TIP3    H236354   1.060   1.950  14.890  1.3132  1.3770  0.1940
 4955TIP3   OH236355   4.875   4.366  14.619  0.7869 -0.3675  0.2883
 4955TIP3    H136356   4.871   4.313  14.699 -0.7026 -2.0160 -0.8135
 4955TIP3    H236357   4.784   4.377  14.593  1.0774  2.2687  0.0870
 4956TIP3   OH236358   0.628   3.550  14.424  0.3112 -0.0579  0.2131
 4956TIP3    H136359   0.577   3.522  14.347  0.5421 -0.7347  0.2972
 4956TIP3    H236360   0.714   3.509  14.412  0.1320 -0.7483  1.1727
 4957TIP3   OH236361   3.347   4.664   3.995  0.5748 -0.1842  0.1191
 4957TIP3    H136362   3.422   4.644   3.939 -0.3070 -0.5424 -0.9794
 4957TIP3    H236363   3.335   4.585   4.047  0.8413 -0.1887  0.1786
 4958TIP3   OH236364   2.985   2.518   6.484 -0.1338  0.3714  0.4907
 4958TIP3    H136365   3.056   2.536   6.545  0.4234 -2.1992  0.7123
 4958TIP3    H236366   2.971   2.601   6.438  3.3957  0.8725  0.0401
 4959TIP3   OH236367   1.947   3.340  16.896 -0.4780  0.1002 -0.3782
 4959TIP3    H136368   1.961   3.340  16.801  1.0618  0.4653 -0.1834
 4959TIP3    H236369   1.974   3.253  16.924 -2.0279 -0.4066 -0.3935
 4960TIP3   OH236370   6.223   1.585   5.780  0.5380 -0.1199 -0.2969
 4960TIP3    H136371   6.153   1.639   5.745 -1.0525 -1.4216  0.6973
 4960TIP3    H236372   6.222   1.603   5.874  0.6582 -1.1027 -0.0973
 4961TIP3   OH236373   6.443   5.274   0.340  1.0305 -0.0818 -0.1178
 4961TIP3    H136374   6.399   5.283   0.424 -1.1196  0.9379 -1.2706
 4961TIP3    H236375   6.483   5.187   0.342 -0.0730 -0.5858  1.4487
 4962TIP3   OH236376   1.471   6.123   1.098  0.4999  0.5997  0.0554
 4962TIP3    H136377   1.406   6.178   1.144 -0.4304 -0.8752  0.5763
 4962TIP3    H236378   1.496   6.057   1.163  1.8813  0.6030 -0.4419
 4963TIP3   OH236379   6.334   2.931   3.566  0.6935  0.1513 -0.3896
 4963TIP3    H136380   6.285   2.907   3.644  1.9963 -0.6087  0.2301
 4963TIP3    H236381   6.266   2.947   3.499 -0.3930 -1.2423  0.3112
 4964TIP3   OH236382   1.856   0.024   1.303 -0.3110  0.4576 -0.3865
 4964TIP3    H136383   1.810   0.001   1.222 -3.9263  3.1355  0.6073
 4964TIP3    H236384   1.862   0.120   1.300  0.0230  0.5839  2.2208
 4965TIP3   OH236385   3.184   5.596  10.570 -0.0802  0.4317 -0.0950
 4965TIP3    H136386   3.208   5.576  10.479 -0.8556  3.1602 -0.9894
 4965TIP3    H236387   3.142   5.682  10.566 -4.4585 -1.2780  2.2054
 4966TIP3   OH236388   4.224   5.318  11.818 -0.0468  0.3697  0.7836
 4966TIP3    H136389   4.288   5.353  11.756 -1.3763  2.6729  0.5875
 4966TIP3    H236390   4.270   5.317  11.902  1.4030 -1.6903  0.0496
 4967TIP3   OH236391   1.413   3.828  15.409 -0.7762 -0.0081  0.2632
 4967TIP3    H136392   1.418   3.749  15.355  1.5225  0.4443 -0.2892
 4967TIP3    H236393   1.335   3.873  15.378 -2.2197 -2.0801  0.6776
 4968TIP3   OH236394   0.109   2.983   4.215  0.8778  0.0340 -1.0309
 4968TIP3    H136395   0.196   2.944   4.227  1.9203  1.8759 -2.0667
 4968TIP3    H236396   0.071   2.934   4.143  1.7799  0.3208 -1.7167
 4969TIP3   OH236397   4.124   5.844   5.181  0.4533  0.0340  0.0717
 4969TIP3    H136398   4.119   5.845   5.276  1.3721 -0.1252  0.1313
 4969TIP3    H236399   4.048   5.792   5.153 -0.1281  0.5380  0.6761
 4970TIP3   OH236400   4.501   0.401   2.265 -0.0499  0.0340 -0.4954
 4970TIP3    H136401   4.555   0.407   2.344 -0.9668  0.9037  0.1110
 4970TIP3    H236402   4.429   0.462   2.282 -1.0703 -0.8877 -1.3794
 4971TIP3   OH236403   2.071   4.649   0.214 -0.6291  0.6655  1.0790
 4971TIP3    H136404   2.076   4.625   0.121 -0.5561 -0.2775  1.3181
 4971TIP3    H236405   2.161   4.674   0.237 -0.5011  0.2078  1.0763
 4972TIP3   OH236406   1.662   5.275  14.900 -0.2386  0.1011 -0.0777
 4972TIP3    H136407   1.661   5.192  14.948  1.0315 -0.7468 -1.4606
 4972TIP3    H236408   1.754   5.289  14.878 -0.2801  2.3902  0.9157
 4973TIP3   OH236409   5.871   6.108   3.808 -0.0970  0.3419 -0.6093
 4973TIP3    H136410   5.812   6.035   3.794  0.3889  0.0642 -1.2601
 4973TIP3    H236411   5.815   6.180   3.838 -0.7443  0.0623 -1.1443
 4974TIP3   OH236412   2.025   6.748   3.259  0.2496 -0.2345 -0.2794
 4974TIP3    H136413   1.931   6.744   3.277  0.2572 -0.3537 -0.2652
 4974TIP3    H236414   2.033   6.721   3.167  0.4715 -2.4335  0.3178
 4975TIP3   OH236415   1.640   3.331  14.711 -0.2823 -0.5451  0.6317
 4975TIP3    H136416   1.568   3.300  14.765 -1.1593 -1.3419 -0.8993
 4975TIP3    H236417   1.719   3.293  14.750 -0.8537 -0.8515  1.4920
 4976TIP3   OH236418   6.165   2.085  13.222  0.0990  0.6239 -0.4092
 4976TIP3    H136419   6.171   2.103  13.129  0.9399 -0.3339 -0.5646
 4976TIP3    H236420   6.241   2.129  13.260 -0.0513  0.7281 -0.2274
 4977TIP3   OH236421   5.506   5.124  12.881  0.5763  0.2448 -0.0401
 4977TIP3    H136422   5.438   5.189  12.864  0.0060 -0.0240  1.0962
 4977TIP3    H236423   5.457   5.042  12.895  1.0488  0.1856  1.4964
 4978TIP3   OH236424   0.296   5.808  16.354 -0.2621 -0.2689 -0.1980
 4978TIP3    H136425   0.209   5.809  16.393 -0.2637  1.5646 -0.1790
 4978TIP3    H236426   0.344   5.743  16.406 -0.3293  1.8634  2.7931
 4979TIP3   OH236427   3.015   1.560  16.451 -0.0455 -0.0924 -0.5415
 4979TIP3    H136428   3.001   1.469  16.426 -0.3040 -0.2563  0.1742
 4979TIP3    H236429   3.077   1.594  16.387  1.3925 -1.2558  0.1730
 4980TIP3   OH236430   4.721   6.254   5.195  0.5765 -0.3776 -0.0314
 4980TIP3    H136431   4.676   6.328   5.155  2.3744 -0.0781 -1.6365
 4980TIP3    H236432   4.799   6.241   5.141  1.7727 -1.6485  1.8828
 4981TIP3   OH236433   3.978   0.082   5.207 -0.1645 -0.2482 -0.1458
 4981TIP3    H136434   4.045   0.141   5.174 -0.0201 -0.5572 -0.4023
 4981TIP3    H236435   3.929   0.135   5.270 -0.9291  0.6041 -1.3922
 4982TIP3   OH236436   5.372   6.347   1.011 -0.0698 -0.7340 -0.4790
 4982TIP3    H136437   5.414   6.361   0.925 -1.2638 -1.2611 -1.1750
 4982TIP3    H236438   5.374   6.432   1.053  1.3142 -0.6562 -0.6639
 4983TIP3   OH236439   2.804   3.301   1.805  0.3871 -0.0032 -0.4362
 4983TIP3    H136440   2.855   3.325   1.728 -1.6348 -0.5103 -2.0389
 4983TIP3    H236441   2.737   3.241   1.772 -0.5255 -0.2944  1.7382
 4984TIP3   OH236442   6.730   0.045   1.662  0.3757 -0.3633  0.4606
 4984TIP3    H136443   6.711  -0.005   1.742  0.0514  1.4948  1.6061
 4984TIP3    H236444   6.793   0.112   1.690 -0.8211  1.2323 -0.4625
 4985TIP3   OH236445   4.623   4.826  14.768 -0.3049  0.0857 -0.3657
 4985TIP3    H136446   4.623   4.732  14.788  0.5354  0.5109  1.9686
 4985TIP3    H236447   4.555   4.863  14.825  0.4645  1.0830 -0.0655
 4986TIP3   OH236448   4.372   5.917  15.411  0.5902 -0.7379 -0.2314
 4986TIP3    H136449   4.316   5.978  15.458 -0.6930  0.0759 -2.6635
 4986TIP3    H236450   4.385   5.845  15.473 -0.0908  0.7192  1.7280
 4987TIP3   OH236451   0.259   3.770   6.509 -0.5750  0.6364  0.1804
 4987TIP3    H136452   0.318   3.701   6.539 -0.8898  1.2463  2.3485
 4987TIP3    H236453   0.317   3.841   6.480 -0.2487  0.6041  0.7507
 4988TIP3   OH236454   3.689   0.386  11.545  0.6427 -0.1757  0.5798
 4988TIP3    H136455   3.716   0.328  11.473  2.2416 -0.0143  1.0365
 4988TIP3    H236456   3.602   0.353  11.569  0.8069 -1.3292 -0.2848
 4989TIP3   OH236457   5.636   2.629   0.991 -0.6496 -0.8673  0.4479
 4989TIP3    H136458   5.631   2.541   1.027  1.4326 -1.3598 -0.3169
 4989TIP3    H236459   5.713   2.628   0.935 -1.5675  0.9696 -0.9630
 4990TIP3   OH236460   4.296   0.535   4.750 -0.3276  0.3296 -0.3632
 4990TIP3    H136461   4.275   0.614   4.701  2.2315 -0.4630 -3.0152
 4990TIP3    H236462   4.389   0.544   4.772 -0.6510 -0.7630  1.7101
 4991TIP3   OH236463   5.797   2.384  15.430 -0.1710  0.0936  0.2009
 4991TIP3    H136464   5.873   2.353  15.382  0.8304  0.9638  1.1927
 4991TIP3    H236465   5.741   2.424  15.363 -0.6770 -2.1865 -0.8374
 4992TIP3   OH236466   4.247   0.451  15.663  0.0034 -0.2846 -0.5547
 4992TIP3    H136467   4.242   0.545  15.679  1.1187 -0.4072  0.7506
 4992TIP3    H236468   4.286   0.443  15.576  1.2431  0.4698 -0.0840
 4993TIP3   OH236469   4.395   2.189   6.501  0.9871  0.0340  0.4109
 4993TIP3    H136470   4.374   2.106   6.458  0.1122  0.4938 -0.0839
 4993TIP3    H236471   4.359   2.180   6.589  0.2309  0.1640  0.1185
 4994TIP3   OH236472   3.098   1.952   4.742 -0.0457  0.2038  0.0849
 4994TIP3    H136473   3.119   2.033   4.696  2.5784  0.5931  1.7452
 4994TIP3    H236474   3.096   1.976   4.834  1.1512 -1.6283  0.6421
 4995TIP3   OH236475   2.047   2.624  14.775  0.1573 -0.1370  0.0574
 4995TIP3    H136476   2.071   2.627  14.867  0.7166 -2.7071  0.0655
 4995TIP3    H236477   1.994   2.545  14.766  1.5074 -0.8941 -2.1009
 4996TIP3   OH236478   1.018   1.603   2.066 -0.2075  0.1205  0.1373
 4996TIP3    H136479   1.016   1.544   2.141 -0.2208 -0.4262 -0.2866
 4996TIP3    H236480   1.036   1.546   1.991  1.2543  0.8449 -0.0956
 4997TIP3   OH236481   4.360   2.958  14.217 -0.3409 -0.7437 -0.1045
 4997TIP3    H136482   4.264   2.966  14.223 -0.2761 -0.7469  1.4208
 4997TIP3    H236483   4.381   2.987  14.128 -1.5673  1.3199  0.2109
 4998TIP3   OH236484   1.844   5.653  16.435  0.1212 -0.0046 -0.0662
 4998TIP3    H136485   1.765   5.702  16.414 -1.7594 -1.8433  2.2238
 4998TIP3    H236486   1.866   5.680  16.524  2.0852  0.4083 -0.6314
 4999TIP3   OH236487   2.065   1.107  13.423  0.3852 -0.1928 -1.0601
 4999TIP3    H136488   1.975   1.093  13.396  0.8703 -3.1949 -1.4293
 4999TIP3    H236489   2.115   1.109  13.342  0.8171  0.0594 -0.7935
 5000TIP3   OH236490   3.978   1.036  15.187  0.4857  0.2151 -0.3723
 5000TIP3    H136491   4.041   1.049  15.258 -0.1833 -0.7205  0.4119
 5000TIP3    H236492   3.952   1.125  15.162  2.3176  0.6395 -0.9258
 5001TIP3   OH236493   0.613   4.788  12.237  0.1898 -0.3486 -0.0572
 5001TIP3    H136494   0.551   4.751  12.175 -1.3148  0.0799  1.1483
 5001TIP3    H236495   0.650   4.712  12.283 -1.9916 -0.5191  1.5687
 5002TIP3   OH236496   6.826   5.263  12.807  0.4729 -0.0491  0.6627
 5002TIP3    H136497   6.747   5.243  12.856 -0.8705  0.6719 -1.0722
 5002TIP3    H236498   6.857   5.346  12.844 -0.6695  0.6194  0.1970
 5003TIP3   OH236499   4.933   0.699   2.562 -0.0920  0.1830  0.8958
 5003TIP3    H136500   4.968   0.673   2.476 -0.1540  1.5719  0.4266
 5003TIP3    H236501   4.977   0.781   2.582  0.4478 -0.4809  2.5488
 5004TIP3   OH236502   1.161   1.740   3.947 -0.3593 -0.1536 -0.9856
 5004TIP3    H136503   1.155   1.648   3.976 -1.3234  0.6134  1.5647
 5004TIP3    H236504   1.070   1.771   3.950  0.0716  1.1408 -0.8080
 5005TIP3   OH236505   3.804   0.044   0.095 -0.0268  0.3061 -0.4249
 5005TIP3    H136506   3.771   0.082   0.176  1.0180 -0.3402  0.3359
 5005TIP3    H236507   3.804  -0.050   0.111 -1.6568 -0.0139 -1.9172
 5006TIP3   OH236508   0.877   0.355   2.140 -0.1793  0.2009  0.1366
 5006TIP3    H136509   0.793   0.398   2.155 -1.7808 -3.0759  1.5863
 5006TIP3    H236510   0.927   0.369   2.221 -0.8471 -0.8901  0.7570
 5007TIP3   OH236511   6.612   3.498  12.998 -0.5057  0.0753 -0.3410
 5007TIP3    H136512   6.649   3.546  13.072 -1.4496  1.3195 -0.6385
 5007TIP3    H236513   6.651   3.411  13.004  1.6411  0.9958 -0.0596
 5008TIP3   OH236514   4.013   5.432  15.900  0.5759  0.1652 -0.4423
 5008TIP3    H136515   3.999   5.344  15.936 -0.9631 -0.2367 -1.9275
 5008TIP3    H236516   3.998   5.491  15.974 -1.3312 -0.6817 -0.1021
 5009TIP3   OH236517   4.386   0.910   6.604 -0.3173  0.6095 -0.1174
 5009TIP3    H136518   4.460   0.893   6.662 -0.2373 -0.0134 -0.4030
 5009TIP3    H236519   4.309   0.903   6.661 -0.1071  2.5167  0.4647
 5010TIP3   OH236520   2.173   0.341   5.855  0.0535 -0.6593 -0.0234
 5010TIP3    H136521   2.142   0.362   5.943  0.0849  0.3168 -0.2343
 5010TIP3    H236522   2.095   0.352   5.800  0.2414 -0.4153 -0.2380
 5011TIP3   OH236523   5.118   3.240   2.656 -0.4624 -0.5810 -0.1060
 5011TIP3    H136524   5.039   3.225   2.709 -0.6437 -3.7805 -1.0973
 5011TIP3    H236525   5.189   3.207   2.711 -0.2678 -1.0541 -0.6434
 5012TIP3   OH236526   2.693   4.693  12.108  0.3482 -0.5161 -0.2737
 5012TIP3    H136527   2.785   4.717  12.094  0.3108 -0.8155 -1.0855
 5012TIP3    H236528   2.695   4.597  12.115  0.2121 -0.4555  0.6362
 5013TIP3   OH236529   5.546   5.468  14.720 -0.3041  0.1391  0.1933
 5013TIP3    H136530   5.493   5.477  14.641 -0.6903 -1.1256  0.2865
 5013TIP3    H236531   5.636   5.486  14.691 -0.5387  0.4265 -0.3702
 5014TIP3   OH236532   3.865   1.919  13.402 -0.4572 -0.1551  0.1643
 5014TIP3    H136533   3.872   1.902  13.496  1.0927  0.0391  0.0948
 5014TIP3    H236534   3.781   1.965  13.392 -0.9434 -0.7507  1.3508
 5015TIP3   OH236535   3.788   3.752   0.339 -0.2614 -0.1575 -0.3378
 5015TIP3    H136536   3.881   3.732   0.342 -0.3325 -0.3794  1.6694
 5015TIP3    H236537   3.750   3.683   0.285  0.5574 -0.8706 -0.0104
 5016TIP3   OH236538   5.376   1.979   4.153 -0.0022  0.0971  0.0552
 5016TIP3    H136539   5.395   1.895   4.111  1.4866  0.6207 -0.3807
 5016TIP3    H236540   5.395   1.965   4.245 -0.7316 -0.3074  0.1566
 5017TIP3   OH236541   3.459   1.045   1.606  0.3687  0.5092 -0.5838
 5017TIP3    H136542   3.420   1.088   1.531 -5.1547 -0.9882  0.9726
 5017TIP3    H236543   3.480   1.116   1.667  1.5011  1.4669 -2.0138
 5018TIP3   OH236544   2.924   4.430  11.868  0.1898 -0.0966  0.7645
 5018TIP3    H136545   2.973   4.399  11.945  1.5204  1.1635  0.4726
 5018TIP3    H236546   2.972   4.394  11.794  0.7487  1.2190  0.4683
 5019TIP3   OH236547   1.757   4.155  12.379 -0.4908 -0.9054 -0.6086
 5019TIP3    H136548   1.843   4.134  12.343 -0.3355  0.7010 -1.2421
 5019TIP3    H236549   1.699   4.161  12.303 -0.6072  0.5038 -0.4253
 5020TIP3   OH236550   1.228   2.319  16.727  0.2563  0.1526  0.2656
 5020TIP3    H136551   1.192   2.252  16.785 -1.1211  0.9058  0.3213
 5020TIP3    H236552   1.176   2.398  16.746  0.9685  0.8858 -0.7220
 5021TIP3   OH236553   2.883   5.456   5.173  0.2406 -0.4242  1.2655
 5021TIP3    H136554   2.874   5.397   5.098  2.4114 -0.4046  0.9200
 5021TIP3    H236555   2.799   5.502   5.178 -0.2686 -1.0681 -0.5961
 5022TIP3   OH236556   1.549   5.267  13.096  0.0903  0.0973  0.1968
 5022TIP3    H136557   1.490   5.342  13.086 -1.9608 -1.2315  1.4930
 5022TIP3    H236558   1.636   5.305  13.095 -0.8510  2.4628  0.4546
 5023TIP3   OH236559   2.832   2.781   1.149  0.1839  0.2466 -0.2816
 5023TIP3    H136560   2.886   2.851   1.114  0.8291  0.5182  1.1876
 5023TIP3    H236561   2.885   2.702   1.137  0.6694  0.4261  0.6001
 5024TIP3   OH236562   0.559   1.830  11.643  0.2195 -0.5676 -0.1065
 5024TIP3    H136563   0.524   1.855  11.729  1.3952 -1.3522  0.6141
 5024TIP3    H236564   0.499   1.762  11.612  0.1829 -0.7662  0.3936
 5025TIP3   OH236565   3.344   6.281  15.542 -0.1736 -0.2482 -0.0029
 5025TIP3    H136566   3.254   6.281  15.573 -0.5163 -1.0522 -0.9511
 5025TIP3    H236567   3.391   6.338  15.603 -0.5458 -2.6623  2.7161
 5026TIP3   OH236568   3.501   2.597  13.962  0.3273  0.0222  0.4038
 5026TIP3    H136569   3.457   2.530  14.013  1.9140 -1.0176  0.4732
 5026TIP3    H236570   3.550   2.648  14.027  2.4489 -1.3785  0.0120
 5027TIP3   OH236571   4.089   4.696   2.339 -0.3687 -0.3986 -0.4795
 5027TIP3    H136572   4.024   4.656   2.397  1.4617 -1.7325  0.7771
 5027TIP3    H236573   4.089   4.789   2.363 -1.8884 -0.3274 -0.6369
 5028TIP3   OH236574   0.841   6.502  14.116 -0.2634  0.1649 -0.2974
 5028TIP3    H136575   0.910   6.489  14.181 -2.1900  0.1083  1.8761
 5028TIP3    H236576   0.769   6.447  14.147 -2.4378  2.6332 -0.6394
 5029TIP3   OH236577   5.615   3.355   4.907 -0.2856 -0.3950 -0.3217
 5029TIP3    H136578   5.647   3.444   4.924 -0.4411 -0.1881 -1.0647
 5029TIP3    H236579   5.665   3.300   4.966 -0.8110  0.2840  0.8019
 5030TIP3   OH236580   3.040   4.143  15.017  0.0792  0.1880 -0.3978
 5030TIP3    H136581   2.988   4.184  14.948  1.4570  1.3623 -0.7891
 5030TIP3    H236582   3.123   4.190  15.015  0.6798 -0.7512  1.0895
 5031TIP3   OH236583   1.236   5.542  16.305 -0.0995  0.3669  0.0982
 5031TIP3    H136584   1.296   5.496  16.246  0.9969  1.6524  0.1687
 5031TIP3    H236585   1.205   5.616  16.253 -0.4602  0.5447  0.5721
 5032TIP3   OH236586   0.996   4.574   3.714  0.4340  0.6759 -0.0600
 5032TIP3    H136587   1.018   4.608   3.801  0.5211 -2.1603  1.1395
 5032TIP3    H236588   0.901   4.569   3.714  0.4891 -2.1130  1.1612
 5033TIP3   OH236589   2.402   3.306   4.538  0.3774 -0.0887  0.0475
 5033TIP3    H136590   2.493   3.323   4.512 -0.4530  1.3933 -2.2293
 5033TIP3    H236591   2.351   3.327   4.460 -2.0794  0.8085  1.7756
 5034TIP3   OH236592   2.495   2.628   5.366  0.6135  0.1085 -0.3712
 5034TIP3    H136593   2.406   2.662   5.370  0.3597 -0.4971 -0.7581
 5034TIP3    H236594   2.511   2.594   5.453  0.0097 -0.8880 -0.6320
 5035TIP3   OH236595   4.043   2.095   0.766 -0.5681  0.0231  0.2096
 5035TIP3    H136596   4.053   2.155   0.840  1.4682 -0.8862  0.7533
 5035TIP3    H236597   4.063   2.009   0.803 -0.9414 -0.6489 -1.1016
 5036TIP3   OH236598   1.848   4.164  10.572 -0.3253  0.0945 -0.0789
 5036TIP3    H136599   1.842   4.245  10.624 -0.4643 -0.0581  0.1451
 5036TIP3    H236600   1.879   4.193  10.486 -1.1793  0.4971 -0.2647
 5037TIP3   OH236601   4.409   4.345   0.070 -0.4628 -0.0505  0.3494
 5037TIP3    H136602   4.318   4.342   0.041 -0.4870  0.1305  0.4073
 5037TIP3    H236603   4.405   4.325   0.164 -0.7112  2.3369  0.9205
 5038TIP3   OH236604   3.568   2.583  11.876 -0.2948 -0.3346  0.4139
 5038TIP3    H136605   3.501   2.582  11.945 -0.9303 -1.3981 -0.1950
 5038TIP3    H236606   3.618   2.503  11.890  0.1262 -0.1175  0.1637
 5039TIP3   OH236607   3.292   0.624  16.767 -0.5727 -0.8968 -0.0991
 5039TIP3    H136608   3.344   0.582  16.835  0.0937 -1.1756 -0.7650
 5039TIP3    H236609   3.233   0.683  16.815 -0.1069 -1.0724  0.7110
 5040TIP3   OH236610   2.576   5.291  15.155 -0.1741 -0.4652  0.1471
 5040TIP3    H136611   2.621   5.280  15.072  0.5981 -0.0356  0.5015
 5040TIP3    H236612   2.555   5.384  15.159  2.5757  0.1826  1.8030
 5041TIP3   OH236613   3.069   2.284   6.341 -0.1178 -0.1378  0.4902
 5041TIP3    H136614   2.990   2.251   6.299 -0.2018 -1.3422  1.5336
 5041TIP3    H236615   3.037   2.346   6.407 -0.0213  1.2705 -0.7428
 5042TIP3   OH236616   3.702   1.346   3.579 -0.4406 -0.7494  0.4855
 5042TIP3    H136617   3.730   1.255   3.585 -0.9404 -1.0074 -0.7406
 5042TIP3    H236618   3.616   1.347   3.622 -0.9043 -1.1033 -0.3917
 5043TIP3   OH236619   4.680   2.296   1.161 -0.8712 -0.1931 -0.0520
 5043TIP3    H136620   4.672   2.263   1.250 -0.2302 -0.8997 -0.2513
 5043TIP3    H236621   4.625   2.237   1.109  0.6101 -1.2470 -0.4741
 5044TIP3   OH236622   0.140   0.723   3.307 -0.3574 -0.2797  0.3846
 5044TIP3    H136623   0.219   0.777   3.299 -0.1930 -0.3974  1.1789
 5044TIP3    H236624   0.165   0.652   3.366 -0.1831 -1.9786 -1.5888
 5045TIP3   OH236625   0.161   6.089   1.971 -0.0691  0.0922  0.4476
 5045TIP3    H136626   0.205   6.174   1.959  0.3214 -0.3196 -1.2558
 5045TIP3    H236627   0.211   6.028   1.916 -1.7605 -0.7429 -0.2204
 5046TIP3   OH236628   5.034   5.059   5.573  0.0857 -0.4238 -0.2125
 5046TIP3    H136629   5.113   5.077   5.522 -0.4280 -0.9756 -1.2361
 5046TIP3    H236630   4.976   5.014   5.512 -0.7397 -0.6806  0.7372
 5047TIP3   OH236631   3.141   0.288  15.526  0.3840  0.7666 -0.8501
 5047TIP3    H136632   3.119   0.209  15.477  0.4242  0.0347  0.3056
 5047TIP3    H236633   3.069   0.299  15.588  2.0049 -0.3193  1.3431
 5048TIP3   OH236634   4.731   6.788   2.728  0.0309 -0.3484 -0.1130
 5048TIP3    H136635   4.773   6.723   2.784  0.7013 -1.3405 -1.7242
 5048TIP3    H236636   4.798   6.855   2.715 -0.8749  1.0998  2.1012
 5049TIP3   OH236637   0.943   6.214   4.295 -0.4902 -0.8544 -0.0912
 5049TIP3    H136638   1.023   6.168   4.271  0.2333  0.8723 -1.1820
 5049TIP3    H236639   0.946   6.220   4.391  0.2465 -1.5698 -0.0624
 5050TIP3   OH236640   1.108   3.685  16.798 -0.0598  0.8660  0.1200
 5050TIP3    H136641   1.072   3.647  16.878  0.0550 -0.2839 -0.3525
 5050TIP3    H236642   1.191   3.641  16.786 -0.3820  0.5285 -0.9937
 5051TIP3   OH236643   5.737   6.698   5.696 -0.2308  0.6003  0.0849
 5051TIP3    H136644   5.672   6.759   5.659 -0.1499 -0.3839 -1.8467
 5051TIP3    H236645   5.760   6.641   5.622  1.9421  0.1505  1.0453
 5052TIP3   OH236646   6.743   3.667  16.278 -0.4219  0.1083 -0.0502
 5052TIP3    H136647   6.775   3.744  16.326 -0.0688  0.9200 -1.5085
 5052TIP3    H236648   6.649   3.665  16.296 -0.3442  0.5454  0.4564
 5053TIP3   OH236649   6.801   3.567   5.654  0.1408 -0.6386  0.0030
 5053TIP3    H136650   6.827   3.581   5.745  2.4762 -1.2285 -0.5052
 5053TIP3    H236651   6.877   3.527   5.613 -1.2188 -1.3582 -1.9927
 5054TIP3   OH236652   3.284   2.924   4.646 -0.4275 -0.0276 -0.2114
 5054TIP3    H136653   3.206   2.931   4.700  0.5053 -0.7872  1.2957
 5054TIP3    H236654   3.349   2.882   4.702  1.2230  0.9972 -1.2597
 5055TIP3   OH236655   6.684   3.445  14.456  0.2725 -0.0419  0.2723
 5055TIP3    H136656   6.617   3.486  14.400 -0.0004 -0.4995  0.2626
 5055TIP3    H236657   6.766   3.461  14.411  0.0589 -0.3612 -0.2371
 5056TIP3   OH236658   0.069   6.545  11.116 -0.2577  0.0157 -0.7607
 5056TIP3    H136659   0.140   6.576  11.059  0.0385  0.3947 -0.2021
 5056TIP3    H236660   0.005   6.506  11.056  1.3000 -2.1383 -1.1447
 5057TIP3   OH236661   2.235   6.724  16.245  0.7687 -0.4316  0.2988
 5057TIP3    H136662   2.298   6.766  16.186  0.8097  0.7098  1.1228
 5057TIP3    H236663   2.189   6.797  16.287  1.5178 -1.1498  2.4872
 5058TIP3   OH236664   3.231   5.541  15.039  0.0166  0.1952 -0.5861
 5058TIP3    H136665   3.315   5.564  15.000  1.0781 -1.3741  0.6857
 5058TIP3    H236666   3.248   5.532  15.132 -1.4785 -0.5310 -0.3429
 5059TIP3   OH236667   5.130   5.800  13.013  0.6721 -0.4198  0.0782
 5059TIP3    H136668   5.036   5.790  13.005  0.7600 -2.6707  1.0378
 5059TIP3    H236669   5.165   5.769  12.929  0.5623  0.7066 -0.3920
 5060TIP3   OH236670   1.624   5.243  11.978  0.3545 -0.1889  0.1078
 5060TIP3    H136671   1.552   5.305  11.969  1.1659  1.0549  1.7491
 5060TIP3    H236672   1.630   5.201  11.892 -0.0944  2.1606 -1.1747
 5061TIP3   OH236673   2.188   4.615   3.113  0.4648 -0.2280 -0.3581
 5061TIP3    H136674   2.149   4.622   3.025 -1.8184  1.0952  0.6512
 5061TIP3    H236675   2.242   4.694   3.121 -0.9090  0.7195  0.0656
 5062TIP3   OH236676   4.296   1.261  14.345  0.9203 -0.2887  0.4925
 5062TIP3    H136677   4.303   1.167  14.328  1.8201  0.0034 -0.9159
 5062TIP3    H236678   4.226   1.268  14.409  0.6719 -1.9056  0.4472
 5063TIP3   OH236679   1.265   2.304   1.244 -0.4696  0.2459 -0.6347
 5063TIP3    H136680   1.229   2.281   1.330 -0.5935 -0.4506 -0.8714
 5063TIP3    H236681   1.206   2.371   1.210 -1.3713 -0.6421 -0.8736
 5064TIP3   OH236682   2.028   4.694   0.727 -0.3588 -0.0888 -0.0758
 5064TIP3    H136683   2.101   4.685   0.666  0.3693  0.8811  0.6353
 5064TIP3    H236684   2.060   4.753   0.795 -2.3707  1.8052 -0.6557
 5065TIP3   OH236685   2.298   2.734  12.766  0.2032  0.0538 -0.1568
 5065TIP3    H136686   2.212   2.750  12.728 -0.5683  0.9449  1.8030
 5065TIP3    H236687   2.299   2.639  12.783  0.1259 -0.1626 -1.3252
 5066TIP3   OH236688   6.775   1.714   0.735 -0.1856 -0.0477  0.3055
 5066TIP3    H136689   6.805   1.784   0.793 -1.8608  0.4681  0.6021
 5066TIP3    H236690   6.840   1.644   0.746  0.8579  0.9800  0.9214
 5067TIP3   OH236691   5.366   2.992   1.392  0.1583 -0.0424 -0.4393
 5067TIP3    H136692   5.434   2.993   1.459 -0.5595 -0.1151  0.3003
 5067TIP3    H236693   5.405   2.943   1.319  0.6813 -0.5991  0.2019
 5068TIP3   OH236694   6.318   3.547   6.356 -0.0211  0.2255 -0.7781
 5068TIP3    H136695   6.300   3.461   6.396  1.6561  0.3735  0.3580
 5068TIP3    H236696   6.366   3.526   6.276  2.6174  0.1014  0.7248
 5069TIP3   OH236697   6.674   2.443   3.154  0.7016  0.4230 -0.6202
 5069TIP3    H136698   6.705   2.379   3.089  1.1827  1.6607 -1.6484
 5069TIP3    H236699   6.734   2.433   3.228  0.5778 -0.5249 -0.6365
 5070TIP3   OH236700   0.530   3.910   3.704  0.3676 -0.1769 -0.1107
 5070TIP3    H136701   0.557   3.858   3.628 -2.7656 -0.9557 -0.8139
 5070TIP3    H236702   0.459   3.966   3.671 -1.5495 -1.0051  2.3423
 5071TIP3   OH236703   5.287   3.470   4.053  0.2447  0.3338  0.0455
 5071TIP3    H136704   5.335   3.511   4.124 -0.7064  1.2079  0.1990
 5071TIP3    H236705   5.196   3.466   4.084  0.3532 -2.3992  0.2731
 5072TIP3   OH236706   0.009   2.128  14.264 -0.2284 -0.0213 -0.3000
 5072TIP3    H136707   0.028   2.177  14.344 -1.6972  2.2356 -1.2320
 5072TIP3    H236708  -0.015   2.041  14.295  1.8034 -0.0468  1.4911
 5073TIP3   OH236709   0.696   0.076  11.523  0.0482  0.1622  0.7327
 5073TIP3    H136710   0.715   0.141  11.455 -0.0546  0.4152  0.9448
 5073TIP3    H236711   0.635   0.015  11.480 -1.5549  1.3810  1.1533
 5074TIP3   OH236712   1.415   1.643   3.435  0.3987 -0.3256  0.3686
 5074TIP3    H136713   1.353   1.594   3.490 -1.4021  0.6473 -0.7181
 5074TIP3    H236714   1.389   1.624   3.345  2.4761 -0.8419 -0.1926
 5075TIP3   OH236715   3.072   2.661   2.789  0.0016 -0.8767 -0.5293
 5075TIP3    H136716   3.074   2.722   2.863 -0.0621 -1.2054 -0.2539
 5075TIP3    H236717   3.034   2.581   2.825  2.0750 -1.8322 -0.3189
 5076TIP3   OH236718   5.016   5.988   4.839  0.5529 -0.0607 -0.0179
 5076TIP3    H136719   5.075   6.056   4.807  1.0271  0.3112  1.5208
 5076TIP3    H236720   5.058   5.905   4.816  0.9381  0.1927 -0.2296
 5077TIP3   OH236721   0.638   1.395  15.866  0.2164  0.0336  0.4667
 5077TIP3    H136722   0.566   1.454  15.890 -0.7227 -0.7406 -0.3100
 5077TIP3    H236723   0.667   1.356  15.948 -0.5377  0.0633  0.7532
 5078TIP3   OH236724   2.357   3.017  15.782  0.5285 -0.0026  0.1507
 5078TIP3    H136725   2.417   3.083  15.748  0.8188  0.3160  1.2526
 5078TIP3    H236726   2.397   2.987  15.864 -1.2940  1.0295  1.5199
 5079TIP3   OH236727   3.536   5.246  14.537 -0.0865  0.1155  0.8457
 5079TIP3    H136728   3.557   5.210  14.623  1.0675 -1.7339 -0.1492
 5079TIP3    H236729   3.608   5.218  14.481 -0.5561  1.7071 -0.6399
 5080TIP3   OH236730   5.302   4.485   5.038 -0.6119  0.5747 -0.3543
 5080TIP3    H136731   5.361   4.409   5.035  0.1239  1.1575 -1.7385
 5080TIP3    H236732   5.361   4.561   5.040 -1.3109  1.1518  2.4896
 5081TIP3   OH236733   0.892   4.721   4.449 -0.1104  0.3332 -0.6338
 5081TIP3    H136734   0.894   4.815   4.428 -2.3319  0.6259  0.1438
 5081TIP3    H236735   0.813   4.688   4.405  0.4215 -1.0944 -0.5662
 5082TIP3   OH236736   3.818   2.570   1.946  0.5935  0.0205  0.1147
 5082TIP3    H136737   3.913   2.578   1.955  0.7784 -0.1266 -1.3486
 5082TIP3    H236738   3.783   2.649   1.987  1.3716  0.1840  0.4733
 5083TIP3   OH236739   5.091   4.908  13.981 -0.6509  0.1339  0.2970
 5083TIP3    H136740   4.996   4.896  13.987 -0.7108  0.4846  0.0947
 5083TIP3    H236741   5.125   4.820  13.966 -0.8693 -0.1219  1.2277
 5084TIP3   OH236742   6.600   0.855   1.329 -0.1127 -0.2600 -0.0496
 5084TIP3    H136743   6.668   0.843   1.395 -2.5301 -2.2180  2.3061
 5084TIP3    H236744   6.553   0.935   1.356  1.7435  1.7758 -2.3260
 5085TIP3   OH236745   0.875   4.414   1.442  0.1905 -0.3883  0.2887
 5085TIP3    H136746   0.969   4.427   1.434  0.0721 -0.1086 -0.7854
 5085TIP3    H236747   0.854   4.444   1.531  0.4601  3.7152 -0.8260
 5086TIP3   OH236748   0.741   2.560   0.692 -0.7372  0.0384 -0.9316
 5086TIP3    H136749   0.649   2.587   0.693 -0.8599 -0.3723 -0.1887
 5086TIP3    H236750   0.738   2.466   0.711 -0.1561  0.0431 -0.8034
 5087TIP3   OH236751   4.873   0.421   3.531  0.0980  1.1001  0.5952
 5087TIP3    H136752   4.795   0.370   3.507  1.4726 -1.2971  0.9148
 5087TIP3    H236753   4.902   0.459   3.448 -0.0745  0.0098  0.0055
 5088TIP3   OH236754   2.361   3.644   1.917  0.5291 -0.4157 -0.1960
 5088TIP3    H136755   2.322   3.557   1.911 -1.1546  0.2571  0.5751
 5088TIP3    H236756   2.343   3.684   1.832  1.0708 -0.7086 -0.4552
 5089TIP3   OH236757   0.788   4.517   1.683 -0.1908  0.0784  0.1334
 5089TIP3    H136758   0.794   4.593   1.740 -0.7790 -0.0659  0.4020
 5089TIP3    H236759   0.712   4.469   1.716  0.8375 -1.2212  0.7028
 5090TIP3   OH236760   5.666   4.608  12.592  0.4943  0.3722 -0.5061
 5090TIP3    H136761   5.663   4.617  12.687  0.3274  1.5317 -0.6008
 5090TIP3    H236762   5.576   4.584  12.568  0.6272 -0.2983 -0.3438
 5091TIP3   OH236763   1.935   2.443   2.839  0.5033 -0.3295 -0.4224
 5091TIP3    H136764   1.960   2.516   2.895  2.4087 -0.9746 -0.3508
 5091TIP3    H236765   1.854   2.409   2.878 -2.0423  3.3231 -2.0302
 5092TIP3   OH236766   3.181   3.160  12.114 -0.0325  0.4728  0.7596
 5092TIP3    H136767   3.269   3.196  12.104  0.0817 -0.2151 -1.0582
 5092TIP3    H236768   3.127   3.210  12.053  0.0033 -1.8181 -1.3420
 5093TIP3   OH236769   0.711   3.885  12.169 -0.5697  0.1586 -0.3121
 5093TIP3    H136770   0.727   3.825  12.242 -1.8845  1.7256  1.3853
 5093TIP3    H236771   0.795   3.891  12.124  0.8237  0.3707  2.1099
 5094TIP3   OH236772   5.304   2.912  13.444 -0.1252 -0.4278  0.5872
 5094TIP3    H136773   5.370   2.954  13.500  1.2589 -1.4067 -0.2653
 5094TIP3    H236774   5.289   2.975  13.373  2.1370 -1.3590 -0.8303
 5095TIP3   OH236775   6.592   4.086  13.332 -0.7491 -0.3123 -0.3493
 5095TIP3    H136776   6.625   4.168  13.296 -0.9684  0.3006  0.8121
 5095TIP3    H236777   6.659   4.059  13.396 -0.7211 -0.9963 -0.6572
 5096TIP3   OH236778   4.412   1.873  11.265 -0.2682  0.6333 -0.1420
 5096TIP3    H136779   4.327   1.873  11.222 -0.7532 -1.9128  0.6132
 5096TIP3    H236780   4.464   1.810  11.215  0.0775 -0.2609  1.2719
 5097TIP3   OH236781   6.449   1.389   4.138 -0.4879 -0.1124  0.2568
 5097TIP3    H136782   6.486   1.440   4.210 -1.3882  1.0281 -0.0551
 5097TIP3    H236783   6.356   1.383   4.159 -1.6277  3.6340 -2.6447
 5098TIP3   OH236784   0.883   2.096   1.847  0.3874  0.0049 -0.1299
 5098TIP3    H136785   0.835   2.027   1.802 -1.3560  0.4371  0.9914
 5098TIP3    H236786   0.847   2.098   1.935  1.3693  1.4261  0.2798
 5099TIP3   OH236787   3.740   0.299   2.701 -0.3053  0.7976 -0.3662
 5099TIP3    H136788   3.799   0.350   2.645 -0.8574  0.7386 -1.0031
 5099TIP3    H236789   3.780   0.212   2.704  1.2377  1.4745  1.5964
 5100TIP3   OH236790   3.961   5.052  12.022  0.3493  0.6730  0.5394
 5100TIP3    H136791   3.999   5.050  11.934  0.7079 -1.7114  0.6869
 5100TIP3    H236792   4.021   5.107  12.072  1.8507 -0.3806 -0.0185
 5101TIP3   OH236793   1.819   1.815   4.755 -0.4509 -0.2910 -0.0452
 5101TIP3    H136794   1.791   1.907   4.754 -0.2986 -0.2057  1.2494
 5101TIP3    H236795   1.844   1.799   4.846 -1.0517 -1.7920 -0.1157
 5102TIP3   OH236796   2.802   0.053   2.437  0.5270 -0.2441 -0.3109
 5102TIP3    H136797   2.864   0.026   2.369  2.3724  0.6541  0.9285
 5102TIP3    H236798   2.740  -0.019   2.443  0.6537 -0.6010 -2.5196
 5103TIP3   OH236799   3.106   5.858   6.252  0.2248 -0.2492 -0.0002
 5103TIP3    H136800   3.101   5.923   6.322 -3.3305 -0.9928  0.6500
 5103TIP3    H236801   3.074   5.904   6.175 -1.4879 -0.9126  0.2733
 5104TIP3   OH236802   3.488   2.460   5.909  0.0440  0.0874 -0.2679
 5104TIP3    H136803   3.540   2.500   5.979 -2.5398  1.6775  0.8726
 5104TIP3    H236804   3.512   2.367   5.912  2.1690  0.6032  0.7215
 5105TIP3   OH236805   3.560   6.036   2.164 -0.1790 -1.0587 -0.2358
 5105TIP3    H136806   3.551   6.053   2.070 -0.0281  0.5376  0.0152
 5105TIP3    H236807   3.513   6.108   2.206 -1.8816 -2.7348  0.9403
 5106TIP3   OH236808   6.688   4.703   1.790  0.0486  0.5160  0.3216
 5106TIP3    H136809   6.647   4.666   1.712 -1.0300 -0.3445  1.2723
 5106TIP3    H236810   6.669   4.641   1.860 -0.0865  1.8582  1.5407
 5107TIP3   OH236811   3.834   0.204   1.352  0.1634 -0.2677 -0.1096
 5107TIP3    H136812   3.787   0.211   1.435  0.3141  0.8752 -0.1059
 5107TIP3    H236813   3.766   0.203   1.285  0.0804  2.0793 -0.1502
 5108TIP3   OH236814   0.863   5.217   4.182  0.0280 -0.1596 -0.5561
 5108TIP3    H136815   0.912   5.256   4.254 -0.7156 -1.5830  0.7963
 5108TIP3    H236816   0.775   5.253   4.191  0.0662  0.0688 -1.0896
 5109TIP3   OH236817   2.198   6.218  11.397 -0.3311 -0.4084 -0.1021
 5109TIP3    H136818   2.167   6.230  11.487 -0.2902 -1.6873  0.1112
 5109TIP3    H236819   2.290   6.196  11.406 -0.5003 -1.2740 -0.3888
 5110TIP3   OH236820   5.270   1.084   1.690 -0.3129 -0.7840  0.4756
 5110TIP3    H136821   5.332   1.142   1.646 -0.0888 -0.7510  0.8295
 5110TIP3    H236822   5.300   0.996   1.668 -0.7206 -0.7693 -0.1550
 5111TIP3   OH236823   6.008   3.651  17.211  0.0914 -0.3402  0.2933
 5111TIP3    H136824   6.022   3.560  17.185  0.7267  0.1447 -1.1301
 5111TIP3    H236825   5.953   3.688  17.142  0.0654  0.4344  0.7175
 5112TIP3   OH236826   6.048   4.369   2.903  0.3313  0.7721 -0.0531
 5112TIP3    H136827   6.038   4.301   2.837 -2.7685  1.9350 -0.9824
 5112TIP3    H236828   6.142   4.385   2.907  0.7612 -0.0420 -3.5255
 5113TIP3   OH236829   1.439   1.609   4.897 -0.2096 -0.6543 -0.0520
 5113TIP3    H136830   1.498   1.641   4.965  0.1199 -3.0121  0.8757
 5113TIP3    H236831   1.488   1.619   4.815 -0.1809  1.1762  0.1434
 5114TIP3   OH236832   6.550   0.671  15.061  0.1770  0.0971  0.3032
 5114TIP3    H136833   6.590   0.586  15.078 -1.5968 -0.5897  1.4184
 5114TIP3    H236834   6.570   0.689  14.970  1.7628 -0.8463  0.4226
 5115TIP3   OH236835   5.943   2.856  16.204 -0.2751  0.4117 -0.2997
 5115TIP3    H136836   5.996   2.899  16.137 -1.2228 -0.0782 -1.3993
 5115TIP3    H236837   5.962   2.904  16.284  0.9625  0.9592 -0.8892
 5116TIP3   OH236838   3.229   4.170   1.910  0.6146  0.0244  0.1325
 5116TIP3    H136839   3.267   4.085   1.890  1.0526  0.5732 -1.5169
 5116TIP3    H236840   3.263   4.192   1.997 -1.0627 -2.3083  1.5209
 5117TIP3   OH236841   5.669   1.871   6.897  0.0586 -0.4027 -0.0159
 5117TIP3    H136842   5.701   1.838   6.813 -0.6121 -0.2188 -0.3479
 5117TIP3    H236843   5.699   1.961   6.901  1.5842 -0.9020  0.7318
 5118TIP3   OH236844   5.585   1.177   0.919  0.2803 -0.3312  0.4329
 5118TIP3    H136845   5.645   1.243   0.884 -0.2990 -0.8756 -1.7297
 5118TIP3    H236846   5.507   1.227   0.944  0.9828  0.1636  1.7466
 5119TIP3   OH236847   4.951   5.117  16.391  0.1201 -0.1744  0.1606
 5119TIP3    H136848   4.941   5.097  16.484 -0.6826  2.6895  0.7871
 5119TIP3    H236849   4.929   5.035  16.346 -0.2911 -1.3912  2.4430
 5120TIP3   OH236850   0.811   5.875   3.184 -0.2238  0.6369 -0.1680
 5120TIP3    H136851   0.747   5.824   3.134  0.5303 -0.2280 -0.2939
 5120TIP3    H236852   0.798   5.965   3.155 -0.6970  0.3328 -0.9426
 5121TIP3   OH236853   1.842   5.712  12.384 -0.0540  0.2682  0.3279
 5121TIP3    H136854   1.934   5.686  12.375  0.1109  1.0838 -0.4774
 5121TIP3    H236855   1.816   5.679  12.470  0.4174 -1.6519 -0.2246
 5122TIP3   OH236856   6.131   2.727  17.176  0.1852  0.2280 -0.2949
 5122TIP3    H136857   6.168   2.679  17.249 -1.6781 -0.7818  0.0457
 5122TIP3    H236858   6.041   2.695  17.168 -0.4988  2.1728 -1.3762
 5123TIP3   OH236859   1.759   3.322   2.609  0.9058  0.1157 -0.1242
 5123TIP3    H136860   1.751   3.300   2.702 -0.3465  0.0768 -0.2211
 5123TIP3    H236861   1.850   3.350   2.598  1.4859 -1.2808  0.8093
 5124TIP3   OH236862   0.830   6.292   0.256 -0.6130  0.1840  0.1746
 5124TIP3    H136863   0.741   6.259   0.241 -0.6752  0.2871  0.3152
 5124TIP3    H236864   0.830   6.378   0.215 -1.1041  0.9199  1.6425
 5125TIP3   OH236865   2.071   3.482   0.081 -0.2773 -0.5850  0.0120
 5125TIP3    H136866   2.078   3.509  -0.011  0.3133 -1.2123 -0.1322
 5125TIP3    H236867   2.130   3.408   0.089  2.1444  1.3733  1.6722
 5126TIP3   OH236868   4.039   2.081   3.721  0.0389 -0.4009  0.0786
 5126TIP3    H136869   3.998   2.125   3.795 -2.8549  1.1152 -2.2120
 5126TIP3    H236870   3.986   2.002   3.707  1.1822 -1.2163  0.1694
 5127TIP3   OH236871   4.802   2.264   5.500 -0.7683  0.5743 -0.5631
 5127TIP3    H136872   4.804   2.260   5.405  0.5608  3.1419 -0.7371
 5127TIP3    H236873   4.870   2.203   5.529 -2.1218 -1.2894 -1.1123
 5128TIP3   OH236874   5.089   5.094   0.378  0.3633  0.5378 -0.0131
 5128TIP3    H136875   5.007   5.083   0.331  0.2328 -0.3259  0.3848
 5128TIP3    H236876   5.109   5.187   0.372 -1.1589  0.9474  0.7258
 5129TIP3   OH236877   2.968   5.665   2.716  0.1272 -0.1517 -0.3043
 5129TIP3    H136878   2.986   5.607   2.791  1.9524 -1.5998 -1.7667
 5129TIP3    H236879   3.054   5.679   2.676 -0.6907  1.3138 -1.6530
 5130TIP3   OH236880   4.323   2.118  14.402  0.3170  0.4487  0.0301
 5130TIP3    H136881   4.259   2.063  14.446  0.7447  1.5050  2.0890
 5130TIP3    H236882   4.340   2.189  14.463  1.3220  1.7608 -1.6757
 5131TIP3   OH236883   6.718   2.988   1.198  0.5889  0.0822 -0.3203
 5131TIP3    H136884   6.767   3.001   1.279 -1.0123 -1.0353  0.9109
 5131TIP3    H236885   6.626   2.985   1.226  0.0346 -1.0661 -2.0710
 5132TIP3   OH236886   4.102   6.822  16.912 -0.1065  0.8910  0.1748
 5132TIP3    H136887   4.040   6.817  16.984  1.0500 -1.5383  1.1007
 5132TIP3    H236888   4.069   6.759  16.847  0.1150  1.3406 -0.3815
 5133TIP3   OH236889   0.179   0.674  15.722 -0.1954 -0.0267 -0.5081
 5133TIP3    H136890   0.219   0.634  15.645  0.8678  1.2471 -0.6296
 5133TIP3    H236891   0.242   0.660  15.793 -1.4278 -1.7457  0.3426
 5134TIP3   OH236892   4.759   6.619  12.147 -0.4452  0.3021 -0.2134
 5134TIP3    H136893   4.775   6.658  12.061 -2.5205 -2.3776 -2.0007
 5134TIP3    H236894   4.805   6.535  12.143  1.4486  1.0974  2.3496
 5135TIP3   OH236895   5.562   5.511   5.866  0.0250  0.0967  0.0170
 5135TIP3    H136896   5.634   5.539   5.811  1.1345 -1.9177  0.3445
 5135TIP3    H236897   5.603   5.484   5.948 -1.3572  0.9943  1.0537
 5136TIP3   OH236898   3.335   2.027   6.094 -0.4775 -0.0741  0.4673
 5136TIP3    H136899   3.243   2.017   6.117 -0.2440 -3.8035  0.3354
 5136TIP3    H236900   3.377   2.057   6.175 -1.7364  1.5903  0.5434
 5137TIP3   OH236901   3.866   4.935   0.687  0.4324  0.4786  0.0543
 5137TIP3    H136902   3.794   4.884   0.723  1.6230 -1.0252  0.4147
 5137TIP3    H236903   3.830   4.977   0.609 -1.8006  2.6209  2.0554
 5138TIP3   OH236904   6.442   0.674  16.961 -0.2918  0.2047  0.1036
 5138TIP3    H136905   6.525   0.719  16.948  0.1986 -0.6254  0.2868
 5138TIP3    H236906   6.466   0.589  16.999 -1.1008 -0.6946 -1.3220
 5139TIP3   OH236907   3.834   3.138  14.064 -0.1542 -1.2357  0.3421
 5139TIP3    H136908   3.825   3.205  14.132 -0.9575 -0.5988 -0.3659
 5139TIP3    H236909   3.928   3.133  14.047  0.3339 -2.8699  2.9027
 5140TIP3   OH236910   3.195   5.650  16.743 -0.3133 -0.0962 -0.1731
 5140TIP3    H136911   3.165   5.700  16.668 -0.3674 -1.3947 -1.0422
 5140TIP3    H236912   3.201   5.714  16.814 -1.8895  0.8421 -0.8343
 5141TIP3   OH236913   4.002   5.824   3.229 -0.0322 -0.6862  0.0039
 5141TIP3    H136914   4.079   5.770   3.210 -0.3746 -1.5594  1.0061
 5141TIP3    H236915   3.941   5.803   3.158  0.4052 -0.4580 -0.4505
 5142TIP3   OH236916   3.403   3.405   2.447  0.0434 -0.0598  0.0117
 5142TIP3    H136917   3.390   3.500   2.452  0.8549 -0.0078  1.4405
 5142TIP3    H236918   3.351   3.370   2.518  1.4943 -0.4842  0.8994
 5143TIP3   OH236919   2.688   0.216   0.604  0.0372 -0.0554 -0.3361
 5143TIP3    H136920   2.698   0.274   0.529  1.7964 -1.1836 -1.0243
 5143TIP3    H236921   2.769   0.228   0.654 -0.2145 -0.8492  0.2788
 5144TIP3   OH236922   4.425   1.782   0.789  0.2851  0.5664 -0.4886
 5144TIP3    H136923   4.394   1.814   0.873 -1.2765  0.3802 -0.9661
 5144TIP3    H236924   4.405   1.852   0.728  0.6345  0.3588 -0.8458
 5145TIP3   OH236925   1.127   0.006   2.311 -0.4303 -0.0952  0.0908
 5145TIP3    H136926   1.197   0.063   2.343  0.6383 -0.3908 -1.5822
 5145TIP3    H236927   1.055   0.066   2.290  0.3904  0.5791 -0.8923
 5146TIP3   OH236928   4.027   5.485   2.987  0.1334 -0.1433 -0.5739
 5146TIP3    H136929   3.958   5.450   3.044  0.0182 -0.4653 -0.9061
 5146TIP3    H236930   3.995   5.571   2.961 -1.0329 -1.0213 -2.2191
 5147TIP3   OH236931   4.951   1.701   3.294 -0.1936  0.3018  0.2834
 5147TIP3    H136932   4.914   1.621   3.332  1.0446 -0.2341  0.4429
 5147TIP3    H236933   4.876   1.759   3.281 -0.8624 -0.0435  2.1887
 5148TIP3   OH236934   3.299   3.359  14.283 -0.0922  0.3534 -0.2149
 5148TIP3    H136935   3.364   3.303  14.325 -0.7971 -0.2073  0.1598
 5148TIP3    H236936   3.317   3.446  14.318 -1.3448 -0.2468  2.2207
 5149TIP3   OH236937   4.091   5.407   2.256 -0.1297 -0.3161  0.0552
 5149TIP3    H136938   4.102   5.312   2.257 -1.0168 -0.4860 -1.7383
 5149TIP3    H236939   3.999   5.420   2.234  0.0582  0.9616 -0.0700
 5150TIP3   OH236940   1.415   3.561   3.314  0.1747  0.1480 -0.8395
 5150TIP3    H136941   1.503   3.526   3.328 -0.1376  0.0902  1.2381
 5150TIP3    H236942   1.428   3.641   3.263  1.7487  1.6666  1.7855
 5151TIP3   OH236943   5.554   5.778  16.690 -0.7069 -0.1845 -0.0330
 5151TIP3    H136944   5.590   5.777  16.779 -2.5883 -2.3777  0.7897
 5151TIP3    H236945   5.564   5.689  16.658 -0.6492  0.4183 -1.8173
 5152TIP3   OH236946   2.704   5.849   6.619 -0.9385 -0.2760 -0.0584
 5152TIP3    H136947   2.620   5.817   6.651 -0.8604 -0.4566 -0.0301
 5152TIP3    H236948   2.752   5.770   6.595 -0.2846 -0.2738  1.1574
 5153TIP3   OH236949   1.695   0.256   6.463  0.0905  0.0450  0.1650
 5153TIP3    H136950   1.724   0.167   6.445  1.1968  0.2448  0.8769
 5153TIP3    H236951   1.601   0.254   6.447  0.1347 -1.1916 -0.0387
 5154TIP3   OH236952   1.450   6.212  16.689 -0.5338  0.3113 -0.3042
 5154TIP3    H136953   1.403   6.129  16.690 -0.2505  0.1477 -0.4068
 5154TIP3    H236954   1.396   6.272  16.739 -0.3711 -0.1351  0.4075
 5155TIP3   OH236955   6.192   3.387  16.873 -0.4026 -0.1078 -0.1594
 5155TIP3    H136956   6.260   3.438  16.828  0.5662  0.2322  1.6022
 5155TIP3    H236957   6.226   3.298  16.874 -0.5447 -0.1637 -0.3331
 5156TIP3   OH236958   2.335   1.740   6.439  0.0523  0.4158 -0.0821
 5156TIP3    H136959   2.395   1.815   6.444  1.3908 -0.6518  0.7095
 5156TIP3    H236960   2.392   1.664   6.450 -1.1487 -0.7780 -1.6225
 5157TIP3   OH236961   5.852   3.949  12.025 -0.0905 -0.4824 -0.0061
 5157TIP3    H136962   5.886   4.025  12.072  0.0385 -1.3099  1.2877
 5157TIP3    H236963   5.759   3.945  12.049  0.1641 -1.4038  0.9174
 5158TIP3   OH236964   6.517   0.104   0.383  0.5760 -0.1976  0.3745
 5158TIP3    H136965   6.435   0.072   0.421 -0.4003 -0.2392 -1.6412
 5158TIP3    H236966   6.581   0.037   0.405 -0.7010 -1.9416 -0.8896
 5159TIP3   OH236967   1.909   1.833  14.803  0.4530  0.8454  0.4136
 5159TIP3    H136968   1.963   1.876  14.870  0.1760  0.9145  0.5933
 5159TIP3    H236969   1.846   1.781  14.853 -0.2017  1.4372  0.2288
 5160TIP3   OH236970   1.718   1.714   3.143  0.1218  0.1446  0.1114
 5160TIP3    H136971   1.728   1.651   3.214 -0.0007 -1.2251 -1.0563
 5160TIP3    H236972   1.789   1.695   3.083 -1.1839 -0.3676 -1.3395
 5161TIP3   OH236973   3.120   3.420   3.980 -0.2178  0.0546 -0.2466
 5161TIP3    H136974   3.066   3.499   3.976  0.0081  0.2425  0.2813
 5161TIP3    H236975   3.206   3.452   4.007 -0.3188 -0.4642  0.6952
 5162TIP3   OH236976   6.375   4.324   6.492 -0.0723 -0.4653  0.0255
 5162TIP3    H136977   6.425   4.379   6.431 -0.4987  1.9564  1.7216
 5162TIP3    H236978   6.306   4.286   6.437  0.2393  0.7075 -1.2505
 5163TIP3   OH236979   1.260   4.511   2.796  0.1925 -0.1266 -0.6604
 5163TIP3    H136980   1.257   4.571   2.869  0.0454  1.0536 -1.6064
 5163TIP3    H236981   1.295   4.563   2.723  2.7694 -1.9058 -0.8464
 5164TIP3   OH236982   2.110   0.082  16.411 -0.3508 -0.1944  0.2318
 5164TIP3    H136983   2.109   0.077  16.506  1.9270 -1.1572  0.2625
 5164TIP3    H236984   2.079   0.170  16.391  0.1589  0.3985  1.9247
 5165TIP3   OH236985   1.464   4.871   4.271 -0.0028 -0.5554  0.5196
 5165TIP3    H136986   1.427   4.850   4.185 -0.0610  1.2542  0.0679
 5165TIP3    H236987   1.556   4.890   4.253  0.8755 -3.4788  1.4047
 5166TIP3   OH236988   5.399   1.881   2.690  0.3357 -0.0259 -0.0666
 5166TIP3    H136989   5.388   1.786   2.678 -0.0185  0.1417 -1.2112
 5166TIP3    H236990   5.490   1.891   2.719  0.5527 -0.6831 -0.4900
 5167TIP3   OH236991   0.562   5.557   2.720 -0.3562 -0.0502  0.1556
 5167TIP3    H136992   0.576   5.617   2.646 -1.3597 -0.5975 -0.5056
 5167TIP3    H236993   0.484   5.507   2.695 -0.3457 -0.6702  1.3219
 5168TIP3   OH236994   4.047   2.859   5.095 -0.3603 -0.6099 -0.3739
 5168TIP3    H136995   4.133   2.823   5.117 -1.0016 -2.4205 -0.7284
 5168TIP3    H236996   4.003   2.790   5.047 -2.8091 -0.5548  1.5790
 5169TIP3   OH236997   1.242   5.128   3.864 -0.0339 -0.0603 -0.2372
 5169TIP3    H136998   1.287   5.210   3.886  1.7972 -0.7575 -1.1503
 5169TIP3    H236999   1.149   5.151   3.864  0.4421  2.1154 -0.8647
 5170TIP3   OH237000   4.140   3.281   5.816 -0.6876 -0.2672  0.5548
 5170TIP3    H137001   4.179   3.194   5.824 -0.2441 -0.0641  0.5837
 5170TIP3    H237002   4.172   3.329   5.891 -1.8055 -0.4031  1.1446
 5171TIP3   OH237003   3.884   1.482  13.375 -0.2787 -0.7214  0.6056
 5171TIP3    H137004   3.801   1.530  13.373  0.7105  1.0460 -1.5452
 5171TIP3    H237005   3.884   1.430  13.295 -0.0187 -2.0997  1.4594
 5172TIP3   OH237006   1.778   4.266  14.028 -0.1601 -0.4036  0.4618
 5172TIP3    H137007   1.853   4.284  13.971  0.9177  0.7141  2.1331
 5172TIP3    H237008   1.703   4.296  13.978  0.9088  2.1540  0.2241
 5173TIP3   OH237009   3.050   3.895   3.750  0.1174 -0.4547 -0.5435
 5173TIP3    H137010   3.135   3.859   3.724  0.9408  0.9289  0.0780
 5173TIP3    H237011   3.054   3.987   3.724 -1.1826 -0.3516 -0.4531
 5174TIP3   OH237012   4.527   1.997  11.503 -0.3514  0.2770  0.4423
 5174TIP3    H137013   4.494   2.086  11.508  1.8135  1.1217  0.4425
 5174TIP3    H237014   4.490   1.962  11.422 -1.5005  1.0170  0.6267
 5175TIP3   OH237015   5.960   5.032   3.446 -0.4131 -0.3687 -0.0624
 5175TIP3    H137016   5.872   5.029   3.483 -0.5786 -0.2059 -0.4342
 5175TIP3    H237017   5.980   4.940   3.427 -0.1225 -0.5063  0.8858
 5176TIP3   OH237018   1.697   6.828  13.250 -0.2679  0.6650  0.1072
 5176TIP3    H137019   1.739   6.832  13.164  1.0871 -0.3029  0.6936
 5176TIP3    H237020   1.637   6.903  13.251  0.1613  1.0676 -1.4198
 5177TIP3   OH237021   1.948   0.673   3.311  0.4868 -0.0894 -0.1355
 5177TIP3    H137022   1.924   0.592   3.266 -1.1033  1.1466 -1.6767
 5177TIP3    H237023   1.881   0.682   3.380  0.4559  0.0778 -0.1875
 5178TIP3   OH237024   2.938   6.099   3.976 -0.1001  0.1472  0.3844
 5178TIP3    H137025   3.026   6.061   3.971  0.1227  0.7926 -1.3757
 5178TIP3    H237026   2.890   6.058   3.904  0.1849  3.1047 -1.6745
 5179TIP3   OH237027   5.501   4.252  16.181 -0.1296 -0.0652 -0.3677
 5179TIP3    H137028   5.566   4.322  16.192 -1.2545  0.8322  0.9108
 5179TIP3    H237029   5.476   4.229  16.270 -1.8743 -0.0797 -0.8336
 5180TIP3   OH237030   2.661   3.796   2.272  0.0538  0.1813  0.2629
 5180TIP3    H137031   2.577   3.785   2.228  0.1639 -1.1217  0.3176
 5180TIP3    H237032   2.709   3.860   2.219 -1.1010  1.2259  0.4485
 5181TIP3   OH237033   5.330   1.034  12.590  0.4212  0.0191  0.2501
 5181TIP3    H137034   5.383   0.972  12.540 -0.5277  0.3412 -1.2244
 5181TIP3    H237035   5.242   0.996  12.590  0.3612  0.1073  1.5745
 5182TIP3   OH237036   6.099   0.184   0.201 -0.2307 -0.1326 -0.4357
 5182TIP3    H137037   6.006   0.193   0.224 -0.0966 -0.3945  0.2237
 5182TIP3    H237038   6.143   0.253   0.251 -0.2289  0.9799 -1.8843
 5183TIP3   OH237039   4.466   2.145   4.912 -0.2484  0.3712 -0.2188
 5183TIP3    H137040   4.423   2.218   4.868 -0.3575 -0.4571 -1.5423
 5183TIP3    H237041   4.487   2.178   4.999 -0.7550  1.8007 -0.6178
 5184TIP3   OH237042   6.648   1.302   1.436 -0.0425 -0.0803 -0.1744
 5184TIP3    H137043   6.584   1.336   1.373 -0.8338  1.4455  1.3925
 5184TIP3    H237044   6.626   1.209   1.443 -3.1983  0.6496  1.4576
 5185TIP3   OH237045   1.463   1.317  16.287 -0.1629 -0.3207  0.1448
 5185TIP3    H137046   1.514   1.380  16.338 -0.1118 -0.4840  0.2975
 5185TIP3    H237047   1.509   1.234  16.298 -1.8518 -1.0727  2.4731
 5186TIP3   OH237048   4.319   6.315   0.165  0.2326  0.0366 -0.2017
 5186TIP3    H137049   4.403   6.279   0.136  0.3377  0.0002  0.1390
 5186TIP3    H237050   4.338   6.406   0.187  0.6168 -0.4272  1.6226
 5187TIP3   OH237051   2.236   3.472  11.253 -0.4181 -0.0557 -0.0378
 5187TIP3    H137052   2.162   3.532  11.253 -0.2856  0.1501  1.3207
 5187TIP3    H237053   2.247   3.447  11.345  0.6239 -0.7903 -0.3361
 5188TIP3   OH237054   1.782   5.024  11.847  0.0579 -0.8859  0.2584
 5188TIP3    H137055   1.877   5.013  11.854  0.0163 -0.1928  2.7087
 5188TIP3    H237056   1.748   4.935  11.846  0.6906 -1.1383  0.4385
 5189TIP3   OH237057   2.317   1.542   1.965 -0.0215 -0.0812 -0.2470
 5189TIP3    H137058   2.369   1.464   1.982  0.1293 -0.0937 -0.7519
 5189TIP3    H237059   2.378   1.615   1.979 -0.5406  0.0264  1.6688
 5190TIP3   OH237060   1.880   0.876  14.460 -0.3162 -0.2959  0.3021
 5190TIP3    H137061   1.815   0.810  14.438 -0.6992  0.5190 -1.1116
 5190TIP3    H237062   1.959   0.826  14.480 -0.7747 -1.2042 -0.1017
 5191TIP3   OH237063   5.125   2.297   4.405 -0.1062 -0.5222  0.0495
 5191TIP3    H137064   5.105   2.243   4.481 -0.3077 -0.0784  0.3190
 5191TIP3    H237065   5.125   2.236   4.331 -2.2611 -0.6202  0.0471
 5192TIP3   OH237066   3.991   3.020  13.792 -0.1357  0.8541 -0.6071
 5192TIP3    H137067   4.051   3.003  13.864 -0.3753  1.5034 -0.2450
 5192TIP3    H237068   4.046   3.016  13.713 -0.1092 -1.1832 -0.5398
 5193TIP3   OH237069   3.908   5.386   0.277  0.4378  0.0746  0.3765
 5193TIP3    H137070   3.839   5.327   0.247 -1.1399  2.8567 -2.1396
 5193TIP3    H237071   3.867   5.438   0.346  0.8660  0.0671  0.6366
 5194TIP3   OH237072   6.639   1.467   2.147  0.0707  0.0561 -0.1093
 5194TIP3    H137073   6.706   1.414   2.191  0.0929 -0.7810 -1.1203
 5194TIP3    H237074   6.675   1.555   2.147  0.4816 -0.1009  0.7193
 5195TIP3   OH237075   4.016   3.825   1.337 -0.1987 -0.0084  0.0154
 5195TIP3    H137076   4.010   3.867   1.422 -0.6346 -0.0505  0.0103
 5195TIP3    H237077   4.110   3.818   1.319 -0.0769  2.8253 -0.9060
 5196TIP3   OH237078   1.373   4.318   0.757  0.1732  0.5510 -0.6510
 5196TIP3    H137079   1.329   4.293   0.676 -0.8162 -0.5237  0.1918
 5196TIP3    H237080   1.339   4.405   0.777 -0.4412  0.3470 -0.7961
 5197TIP3   OH237081   0.957   4.137  12.376  0.5828  0.3397 -0.0351
 5197TIP3    H137082   1.005   4.220  12.388  0.3846  0.3777  0.5140
 5197TIP3    H237083   0.894   4.156  12.307  0.9044  0.4911 -0.2881
 5198TIP3   OH237084   0.700   2.693   1.699 -0.2862 -0.0145  0.2024
 5198TIP3    H137085   0.647   2.685   1.778 -2.2920 -0.0536 -1.0966
 5198TIP3    H237086   0.734   2.783   1.702  1.6355 -0.7050  2.2179
 5199TIP3   OH237087   4.999   0.667   0.985 -0.3883 -0.2100  0.1017
 5199TIP3    H137088   5.028   0.749   0.946  1.0144  0.2179  1.9250
 5199TIP3    H237089   4.904   0.675   0.990 -0.3047  1.1156 -0.1200
 5200TIP3   OH237090   0.609   2.578  16.673 -0.0871 -0.4743  0.8073
 5200TIP3    H137091   0.698   2.569  16.639  0.2278  0.9206  1.1990
 5200TIP3    H237092   0.553   2.552  16.599  0.6216  0.2458 -0.0077
 5201TIP3   OH237093   4.899   5.693  16.770 -0.1440  0.1198 -0.2301
 5201TIP3    H137094   4.900   5.606  16.730 -0.8307  0.5688 -1.2399
 5201TIP3    H237095   4.825   5.738  16.730 -0.2830  0.9158  0.8624
 5202TIP3   OH237096   0.042   4.810  13.056  0.7508  0.2181 -0.3922
 5202TIP3    H137097   0.080   4.885  13.011 -0.1002  2.0985  1.8297
 5202TIP3    H237098   0.112   4.777  13.112  1.0177 -0.4696 -1.1097
 5203TIP3   OH237099   1.013   1.058   4.765 -0.3541 -0.4115  0.0560
 5203TIP3    H137100   0.978   0.994   4.704  1.7447 -1.1388 -0.4643
 5203TIP3    H237101   1.084   1.101   4.717 -1.2000  1.7893  0.6642
 5204TIP3   OH237102   2.710   6.199   1.190  0.6271 -0.1359 -0.3979
 5204TIP3    H137103   2.629   6.188   1.240  0.7761  1.6106  0.3165
 5204TIP3    H237104   2.682   6.236   1.106  0.6569  0.2492 -0.2400
 5205TIP3   OH237105   5.545   3.085   2.955  0.3015 -0.5267  0.1359
 5205TIP3    H137106   5.557   3.050   3.044  1.4363 -0.3804  0.0588
 5205TIP3    H237107   5.465   3.137   2.960  1.3234  1.0035  1.5766
 5206TIP3   OH237108   1.216   5.494  15.259  0.3993 -0.3117  0.1439
 5206TIP3    H137109   1.286   5.503  15.195 -0.1296 -1.5390 -0.6344
 5206TIP3    H237110   1.140   5.463  15.209 -0.4618  0.1448  1.1141
 5207TIP3   OH237111   3.447   4.498   0.754  0.5287  0.3547 -0.7293
 5207TIP3    H137112   3.486   4.554   0.821 -0.2021  0.6260 -0.5184
 5207TIP3    H237113   3.364   4.541   0.732  0.4708 -0.0657 -1.3579
 5208TIP3   OH237114   3.131   5.199   1.157 -0.3372  0.0133  0.1596
 5208TIP3    H137115   3.078   5.125   1.127 -1.2788  1.1597 -1.1125
 5208TIP3    H237116   3.164   5.239   1.077  1.9225 -0.2410  0.9003
 5209TIP3   OH237117   3.762   3.681   3.383 -0.4444  0.5609 -0.3185
 5209TIP3    H137118   3.712   3.665   3.304 -0.3982  2.6717 -0.8281
 5209TIP3    H237119   3.793   3.594   3.410 -1.3403 -0.3207 -1.9924
 5210TIP3   OH237120   0.149   2.986   5.213  1.1230  0.0278  0.0742
 5210TIP3    H137121   0.180   3.036   5.138 -0.3487 -1.0165 -1.3027
 5210TIP3    H237122   0.053   2.989   5.206  0.9389  0.0725  2.0421
 5211TIP3   OH237123   5.208   0.415  12.435  0.6980  0.1516 -0.1358
 5211TIP3    H137124   5.180   0.395  12.346 -1.4331  0.1769  0.4592
 5211TIP3    H237125   5.303   0.425  12.430  0.5080  1.2232 -2.5771
 5212TIP3   OH237126   6.271   2.957  16.333 -0.4188  0.0492  0.0791
 5212TIP3    H137127   6.267   2.865  16.308 -1.6164  0.3697 -1.0139
 5212TIP3    H237128   6.298   3.003  16.253  1.0312  0.5767  0.8455
 5213TIP3   OH237129   5.024   5.000   3.049  0.1527 -0.1074  0.2563
 5213TIP3    H137130   5.090   5.068   3.036  0.8726 -0.8165  0.1086
 5213TIP3    H237131   4.955   5.043   3.099  0.2904  0.9089 -0.4022
 5214TIP3   OH237132   3.988   3.374   4.633 -0.3443 -0.1661 -0.4265
 5214TIP3    H137133   4.042   3.399   4.557 -0.1130 -0.0255 -0.2161
 5214TIP3    H237134   4.035   3.409   4.708 -0.8695  0.1974 -0.2590
 5215TIP3   OH237135   3.253   6.126  14.287 -0.1571  0.3780  0.0458
 5215TIP3    H137136   3.315   6.115  14.358  0.0232 -0.8218 -0.2734
 5215TIP3    H237137   3.302   6.168  14.217 -0.1984  1.0855  0.4358
 5216TIP3   OH237138   6.617   5.681   1.340 -0.4067 -0.1172  0.1389
 5216TIP3    H137139   6.599   5.587   1.334 -0.4374 -0.1187  0.2595
 5216TIP3    H237140   6.713   5.686   1.349 -0.2888 -0.0903 -0.8897
 5217TIP3   OH237141   1.502   4.081   3.781 -0.0019  0.3290  0.0839
 5217TIP3    H137142   1.457   4.142   3.840 -0.7108 -0.4408  0.3626
 5217TIP3    H237143   1.498   3.997   3.826  0.3947 -0.0538 -0.5855
 5218TIP3   OH237144   1.444   0.201  10.834  0.6014 -0.3580 -0.0349
 5218TIP3    H137145   1.362   0.170  10.795 -0.4894  0.4425  1.5189
 5218TIP3    H237146   1.470   0.132  10.894 -0.0596  0.2631  0.9876
 5219TIP3   OH237147   1.453   6.776  10.712 -0.1735 -0.0710 -0.1973
 5219TIP3    H137148   1.448   6.681  10.717 -2.2212  0.0095  0.1149
 5219TIP3    H237149   1.363   6.804  10.696  0.1074  1.8820  1.2421
 5220TIP3   OH237150   0.260   2.078  14.098 -0.0426  0.1861  0.1317
 5220TIP3    H137151   0.289   2.043  14.182 -1.5087 -1.9771 -0.1683
 5220TIP3    H237152   0.173   2.114  14.115  0.5069  1.7051 -0.0712
 5221TIP3   OH237153   6.608   2.816  15.331 -0.5546 -0.0675 -0.2318
 5221TIP3    H137154   6.675   2.800  15.265 -0.2837  0.1811 -0.0203
 5221TIP3    H237155   6.607   2.911  15.341  1.3022 -0.2111  2.0489
 5222TIP3   OH237156   3.346   2.662   2.071  0.0555 -0.4747 -0.4933
 5222TIP3    H137157   3.350   2.682   2.165 -0.9984  0.5462 -0.6406
 5222TIP3    H237158   3.275   2.717   2.038 -0.7792 -2.1234 -1.5666
 5223TIP3   OH237159   1.659   5.801  13.209 -0.1737  0.3561  0.0234
 5223TIP3    H137160   1.706   5.748  13.144 -0.0084 -0.3944  0.7463
 5223TIP3    H237161   1.580   5.751  13.229 -0.0952  0.4581  0.5932
 5224TIP3   OH237162   4.772   5.387   2.233  0.4202  0.4183 -0.2383
 5224TIP3    H137163   4.856   5.431   2.219 -0.3719  1.4911 -1.9535
 5224TIP3    H237164   4.707   5.450   2.204 -0.8395 -1.3373 -1.4307
 5225TIP3   OH237165   4.519   6.816   4.110 -0.3811  0.2790  0.4264
 5225TIP3    H137166   4.500   6.910   4.103 -0.0960  0.2614 -0.6415
 5225TIP3    H237167   4.509   6.782   4.022  2.7576 -0.0734  0.0916
 5226TIP3   OH237168   4.543   6.671   1.811 -0.2149 -0.7513 -0.0712
 5226TIP3    H137169   4.560   6.586   1.850 -0.0388 -0.3061  0.8603
 5226TIP3    H237170   4.485   6.715   1.874  0.6296  0.2420  0.0326
 5227TIP3   OH237171   5.474   5.364   2.334 -0.6910  0.5577  0.2240
 5227TIP3    H137172   5.410   5.435   2.329 -0.5876  0.5563 -1.6211
 5227TIP3    H237173   5.552   5.398   2.290 -0.8506 -0.8754 -1.2639
 5228TIP3   OH237174   3.805   3.340   0.069 -0.3036  0.1435 -0.3970
 5228TIP3    H137175   3.750   3.325   0.147 -0.0560  0.0346 -0.2408
 5228TIP3    H237176   3.895   3.331   0.102 -0.1087  2.3956 -0.2107
 5229TIP3   OH237177   6.734   5.116   0.333  0.2658  0.5548 -0.1117
 5229TIP3    H137178   6.765   5.115   0.424 -0.7140  2.0992  0.2910
 5229TIP3    H237179   6.658   5.058   0.333 -0.6614  1.7084  0.4743
 5230TIP3   OH237180   3.700   0.957  16.964 -0.3369  0.0196  0.5885
 5230TIP3    H137181   3.617   0.951  17.013 -0.1191  0.9547  1.0860
 5230TIP3    H237182   3.707   1.049  16.940  0.5692 -0.0563  0.5513
 5231TIP3   OH237183   1.157   5.965  14.698  0.2719 -0.1900  0.0821
 5231TIP3    H137184   1.186   6.015  14.774 -2.0039 -1.2399  1.7389
 5231TIP3    H237185   1.232   5.909  14.678  1.1363  0.5151  1.1763
 5232TIP3   OH237186   6.010   3.793   1.920  0.0255 -0.4716 -0.4441
 5232TIP3    H137187   5.937   3.811   1.861 -1.0866 -0.2975  0.9102
 5232TIP3    H237188   6.014   3.697   1.925  0.6768 -0.5038 -1.4338
 5233TIP3   OH237189   3.896   2.213   2.913  0.1035 -0.8872  0.0144
 5233TIP3    H137190   3.940   2.256   2.986  1.0764 -1.4776 -0.2090
 5233TIP3    H237191   3.850   2.283   2.867  2.1037  0.0334 -0.6692
 5234TIP3   OH237192   2.870   3.454   3.897  0.3376 -0.1956  0.7427
 5234TIP3    H137193   2.926   3.497   3.832  0.5452 -0.3841  0.7993
 5234TIP3    H237194   2.845   3.524   3.957  0.7646 -0.1743  0.8956
 5235TIP3   OH237195   2.162   1.869   0.596  0.2949  0.2669  0.3880
 5235TIP3    H137196   2.225   1.809   0.556 -1.0566 -2.5528  2.2313
 5235TIP3    H237197   2.087   1.815   0.619 -1.6266  2.9504  0.9667
 5236TIP3   OH237198   2.568   1.607  11.525  0.1337  0.3336  0.0144
 5236TIP3    H137199   2.647   1.580  11.479 -0.3837  1.4244 -1.6461
 5236TIP3    H237200   2.507   1.632  11.455  0.1034  4.4172  1.2194
 5237TIP3   OH237201   4.010   3.348   0.254  0.1765  0.1608 -0.2026
 5237TIP3    H137202   4.066   3.289   0.304  0.4285 -0.7360 -1.4921
 5237TIP3    H237203   3.934   3.363   0.311  2.3686  2.7928  2.3217
 5238TIP3   OH237204   3.579   2.707  13.729 -0.2447  0.1293  0.2081
 5238TIP3    H137205   3.543   2.662  13.805  1.9124 -2.3750 -0.1069
 5238TIP3    H237206   3.520   2.781  13.715 -3.1471 -1.6908  1.7322
 5239TIP3   OH237207   0.573   2.794   5.549 -0.1511 -0.2831  0.3191
 5239TIP3    H137208   0.599   2.705   5.524  1.7162  0.3899 -0.3034
 5239TIP3    H237209   0.624   2.851   5.492 -1.4061  1.2149  0.6106
 5240TIP3   OH237210   1.181   6.339   2.695  0.1643 -0.4019 -0.8930
 5240TIP3    H137211   1.132   6.402   2.642  0.8597  0.5383 -0.4503
 5240TIP3    H237212   1.143   6.346   2.782  1.8077  1.2200 -0.2466
 5241TIP3   OH237213   1.008   5.394   2.653 -0.6644  0.5029  0.4807
 5241TIP3    H137214   0.955   5.461   2.696  0.5449  0.7755  1.6407
 5241TIP3    H237215   0.946   5.326   2.627 -1.8087  1.6947  0.0096
 5242TIP3   OH237216   2.676   5.980   5.358  0.2786  0.1169 -0.1746
 5242TIP3    H137217   2.672   5.945   5.447  1.5100  1.0928  0.2945
 5242TIP3    H237218   2.639   6.068   5.365  0.8339  0.3831 -0.5215
 5243TIP3   OH237219   1.481   4.588  13.529 -0.2019  0.3254  0.8029
 5243TIP3    H137220   1.548   4.567  13.593  0.3172  1.2239  0.5759
 5243TIP3    H237221   1.529   4.600  13.447 -1.0000 -2.1458 -0.1013
 5244TIP3   OH237222   2.950   5.307   4.949 -0.0976 -0.1330  0.1151
 5244TIP3    H137223   2.906   5.339   4.870 -0.8046  1.2337  1.0148
 5244TIP3    H237224   3.034   5.273   4.918 -0.5611 -0.0579 -1.2729
 5245TIP3   OH237225   2.513   1.917  13.628 -0.3806 -0.4385  0.0553
 5245TIP3    H137226   2.430   1.878  13.656 -1.1464  1.0339 -0.0397
 5245TIP3    H237227   2.578   1.880  13.688 -0.7411 -3.0826 -1.0749
 5246TIP3   OH237228   3.018   0.885   2.264 -0.0264  0.1079  0.0181
 5246TIP3    H137229   3.105   0.887   2.225  0.1308 -0.3264  0.3416
 5246TIP3    H237230   2.959   0.862   2.192  0.1847 -0.0817 -0.0938
 5247TIP3   OH237231   1.843   1.595  15.980 -0.0400  0.1309  0.2997
 5247TIP3    H137232   1.903   1.607  15.906  0.3460  0.0262  0.5906
 5247TIP3    H237233   1.758   1.624  15.947  0.4383  1.6626  0.3301
 5248TIP3   OH237234   0.400   2.715   3.956 -0.1565  0.3254 -0.2353
 5248TIP3    H137235   0.473   2.663   3.990 -2.1602 -2.4660  0.1554
 5248TIP3    H237236   0.392   2.687   3.864 -2.6190 -1.9747  0.5384
 5249TIP3   OH237237   6.210   1.166   4.980 -0.1954 -0.6088 -0.3213
 5249TIP3    H137238   6.284   1.114   4.949 -0.4071 -0.6301 -0.8019
 5249TIP3    H237239   6.161   1.106   5.037 -1.2453 -1.4359 -2.0212
 5250TIP3   OH237240   3.765   1.191  12.880 -0.1725  0.4406  0.4928
 5250TIP3    H137241   3.761   1.137  12.801 -0.3041 -0.5313  1.1356
 5250TIP3    H237242   3.676   1.223  12.893 -0.1570  0.5758  0.2668
 5251TIP3   OH237243   6.774   1.350  13.586 -0.2464  0.6018 -0.3721
 5251TIP3    H137244   6.708   1.391  13.642  0.4424  0.3410  0.6559
 5251TIP3    H237245   6.725   1.283  13.538 -0.0952 -2.8029  3.6379
 5252TIP3   OH237246   6.702   6.114  13.250 -0.6989  0.0015 -0.1065
 5252TIP3    H137247   6.773   6.114  13.315 -1.5533 -0.5503  0.8689
 5252TIP3    H237248   6.638   6.177  13.285 -1.2939 -0.5085 -0.2556
 5253TIP3   OH237249   3.765   4.372  10.436 -0.6720  0.7705  0.5136
 5253TIP3    H137250   3.721   4.316  10.372  1.1639  1.8060 -1.8215
 5253TIP3    H237251   3.741   4.335  10.521 -1.7687 -1.8154 -0.8010
 5254TIP3   OH237252   1.830   3.816   5.088 -0.0985  0.0398 -0.3190
 5254TIP3    H137253   1.804   3.789   5.176  3.2640  0.4388  0.9198
 5254TIP3    H237254   1.843   3.910   5.094  2.7719 -0.2493 -0.3508
 5255TIP3   OH237255   3.312   4.611   3.207  0.8135 -0.3436  0.2907
 5255TIP3    H137256   3.347   4.582   3.290 -1.7502 -0.6005  1.3935
 5255TIP3    H237257   3.251   4.681   3.230 -1.4248 -1.7056 -1.0749
 5256TIP3   OH237258   0.211   5.157   0.644 -0.0006 -0.2803 -0.3239
 5256TIP3    H137259   0.133   5.177   0.592 -1.0997 -2.6991  0.2474
 5256TIP3    H237260   0.186   5.175   0.734  0.2262 -0.7096 -0.1718
 5257TIP3   OH237261   2.097   0.071   2.503  0.3411 -0.1031  0.6011
 5257TIP3    H137262   2.106  -0.015   2.544 -0.3105 -0.4529  0.0356
 5257TIP3    H237263   2.004   0.092   2.510  0.4771  0.5061  0.6378
 5258TIP3   OH237264   0.455   2.744  10.458 -0.7975  0.3429  0.6196
 5258TIP3    H137265   0.543   2.717  10.431 -1.0516  0.0191  0.0946
 5258TIP3    H237266   0.456   2.737  10.553 -1.5776 -3.9587  0.5074
 5259TIP3   OH237267   6.088   2.553   4.587  0.5183  0.0473  0.2315
 5259TIP3    H137268   6.164   2.539   4.530  1.2745  2.0549  0.6955
 5259TIP3    H237269   6.072   2.647   4.583 -1.8716 -0.3099  0.2863
 5260TIP3   OH237270   5.078   4.722  14.472  0.5417  0.1727 -0.0895
 5260TIP3    H137271   5.073   4.626  14.476  1.1488  0.1758  1.9369
 5260TIP3    H237272   4.991   4.749  14.446  0.1797 -0.9268 -0.1014
 5261TIP3   OH237273   5.031   0.838   5.136 -0.2987 -0.3603  0.5102
 5261TIP3    H137274   5.090   0.795   5.074  0.9387 -1.1215  2.1271
 5261TIP3    H237275   4.943   0.822   5.101  0.3888  0.4299 -1.7383
 5262TIP3   OH237276   3.797   3.279  14.451 -0.0972  0.0426 -0.3192
 5262TIP3    H137277   3.817   3.342  14.519  1.4821  0.3151 -1.0002
 5262TIP3    H237278   3.845   3.200  14.476 -1.1166 -0.5314 -0.0915
 5263TIP3   OH237279   5.172   1.251  12.622 -0.3700  0.0947  0.5673
 5263TIP3    H137280   5.235   1.180  12.634  1.5397  1.6449  0.3466
 5263TIP3    H237281   5.119   1.224  12.547  2.2759  0.1126 -1.4809
 5264TIP3   OH237282   1.291   2.810  15.996  0.0790 -0.4190  0.8666
 5264TIP3    H137283   1.350   2.820  15.921 -0.0631  1.4284  0.9582
 5264TIP3    H237284   1.238   2.733  15.975  1.9763 -1.6795  0.4332
 5265TIP3   OH237285   0.561   2.537  13.665 -0.2567  0.3762  0.6321
 5265TIP3    H137286   0.547   2.539  13.760  1.2838  1.6089  0.8813
 5265TIP3    H237287   0.653   2.512  13.655 -0.2534  0.7833 -0.5217
 5266TIP3   OH237288   2.125   2.319  11.949 -0.0903  0.2138 -0.0147
 5266TIP3    H137289   2.064   2.283  11.885 -0.4806  0.1947  0.3582
 5266TIP3    H237290   2.113   2.414  11.943 -0.2598  0.2035  0.1571
 5267TIP3   OH237291   3.210   3.810  14.603 -0.0322 -0.5517  0.7721
 5267TIP3    H137292   3.216   3.906  14.605  0.8078 -0.5605 -0.3280
 5267TIP3    H237293   3.293   3.780  14.641 -0.4295 -0.8631  1.4200
 5268TIP3   OH237294   3.988   2.200   3.994 -0.3644 -0.5441 -0.0815
 5268TIP3    H137295   3.925   2.270   3.976  0.0002 -0.4255 -0.9858
 5268TIP3    H237296   4.035   2.229   4.072 -1.7031 -0.8413  0.8628
 5269TIP3   OH237297   3.093   3.559   1.052  1.1716 -0.3656 -0.0344
 5269TIP3    H137298   3.109   3.653   1.059  0.5219 -0.3428  1.4125
 5269TIP3    H237299   3.005   3.552   1.015  0.1528 -0.3228  2.2117
 5270TIP3   OH237300   6.181   4.042   5.848 -0.3160 -0.0997  0.5709
 5270TIP3    H137301   6.179   3.946   5.850  2.6496 -0.2848 -0.8388
 5270TIP3    H237302   6.193   4.068   5.939  1.3831 -1.2516  0.7198
 5271TIP3   OH237303   6.075   6.279   0.973 -0.0846 -0.1739  0.6237
 5271TIP3    H137304   6.108   6.337   1.042  0.2925 -0.1803  0.4514
 5271TIP3    H237305   6.037   6.339   0.908  2.2862  0.1040 -0.6530
 5272TIP3   OH237306   0.509   6.265   2.633 -0.2580  0.6357 -0.0659
 5272TIP3    H137307   0.511   6.325   2.559  1.0382 -0.3312 -0.8627
 5272TIP3    H237308   0.526   6.179   2.594 -0.5037 -0.0341  1.2384
 5273TIP3   OH237309   4.003   1.886   5.713  0.1897 -0.1903  0.0033
 5273TIP3    H137310   3.956   1.962   5.678  0.1727  0.1074  0.6595
 5273TIP3    H237311   3.933   1.828   5.744  0.2050 -0.4472 -0.4396
 5274TIP3   OH237312   1.918   0.610  16.571 -0.2737  0.3019 -0.0163
 5274TIP3    H137313   1.992   0.566  16.529 -1.9001 -1.5010 -1.1824
 5274TIP3    H237314   1.958   0.666  16.637  2.1006 -0.9364 -0.2767
 5275TIP3   OH237315   3.656   6.049   3.312 -0.5775 -0.3381  0.0791
 5275TIP3    H137316   3.642   6.143   3.308 -3.2056 -0.6283  0.3832
 5275TIP3    H237317   3.749   6.039   3.333  0.0005  2.1302 -0.9815
 5276TIP3   OH237318   3.405   0.203   5.139 -0.1460  0.4077 -0.2457
 5276TIP3    H137319   3.376   0.160   5.059  0.3048 -0.3639  0.0067
 5276TIP3    H237320   3.388   0.139   5.208  2.8412 -0.4102 -0.1562
 5277TIP3   OH237321   3.653   6.791   5.107  0.2989 -0.1265 -0.0529
 5277TIP3    H137322   3.647   6.859   5.039  1.6082 -0.6262 -0.7010
 5277TIP3    H237323   3.672   6.839   5.188  1.0918  0.3038 -0.4830
 5278TIP3   OH237324   5.305   5.358   2.812  0.0736 -0.1838 -0.2500
 5278TIP3    H137325   5.341   5.432   2.861  0.2483 -0.6660  0.3628
 5278TIP3    H237326   5.348   5.281   2.850  0.4591 -0.5504 -1.3880
 5279TIP3   OH237327   1.750   3.620   2.421 -0.1479 -0.3534 -0.6258
 5279TIP3    H137328   1.670   3.670   2.408  0.7954  0.9989 -1.5250
 5279TIP3    H237329   1.764   3.621   2.516 -0.7591  0.0969 -0.5352
 5280TIP3   OH237330   1.428   5.399  16.133  0.7102  0.0240 -0.0855
 5280TIP3    H137331   1.516   5.427  16.108  1.0051 -0.8199 -0.0212
 5280TIP3    H237332   1.434   5.304  16.141 -0.2913 -0.0845 -0.4039
 5281TIP3   OH237333   1.545   1.067  16.391 -0.1890  0.2777  0.1336
 5281TIP3    H137334   1.564   1.008  16.317 -1.0339  1.0005 -0.6766
 5281TIP3    H237335   1.473   1.024  16.438 -0.5746  0.4912 -0.2585
 5282TIP3   OH237336   2.499   4.248  13.927  0.2742  0.0292 -0.0869
 5282TIP3    H137337   2.492   4.153  13.926 -0.5603  0.0864 -0.1707
 5282TIP3    H237338   2.418   4.278  13.967  0.4774  0.7152 -0.1752
 5283TIP3   OH237339   2.761   5.461   2.592 -0.2208 -0.3045 -0.2914
 5283TIP3    H137340   2.845   5.498   2.617  0.3620 -0.9217 -1.2585
 5283TIP3    H237341   2.763   5.460   2.496 -0.5147 -2.0776 -0.3232
 5284TIP3   OH237342   4.586   2.587  15.192 -0.1005  0.6867 -0.1241
 5284TIP3    H137343   4.592   2.646  15.117 -1.6403  0.0810 -0.7884
 5284TIP3    H237344   4.492   2.581  15.210  0.0843 -0.7984  0.5297
 5285TIP3   OH237345   5.063   6.004   4.101  0.4051 -0.3157  0.1312
 5285TIP3    H137346   4.974   5.981   4.074  0.7652 -1.0516 -0.4745
 5285TIP3    H237347   5.118   5.933   4.067  1.7483  1.9105 -2.7644
 5286TIP3   OH237348   0.088   6.330  11.902 -0.2407 -0.5939 -0.6565
 5286TIP3    H137349   0.050   6.417  11.901 -1.8565 -1.2179  0.9844
 5286TIP3    H237350   0.165   6.336  11.846 -1.7387  1.2084 -2.6453
 5287TIP3   OH237351   4.378   2.718  12.261  0.6270 -0.2009 -0.2553
 5287TIP3    H137352   4.404   2.799  12.306 -1.8133 -0.9811  3.0252
 5287TIP3    H237353   4.282   2.718  12.266  0.4156 -2.1267 -2.4965
 5288TIP3   OH237354   4.996   1.349   2.527  0.5440  0.1056  0.3211
 5288TIP3    H137355   5.032   1.428   2.568  0.9725  0.2036 -0.2301
 5288TIP3    H237356   4.909   1.340   2.565  0.4052  0.9724  0.2342
 5289TIP3   OH237357   0.347   4.752   1.232  0.2703 -0.6438 -0.6442
 5289TIP3    H137358   0.310   4.675   1.191 -0.5554 -1.0757  0.8377
 5289TIP3    H237359   0.441   4.733   1.240  0.4749 -0.4761 -2.4063
 5290TIP3   OH237360   3.969   2.927   1.834  0.1013 -0.4490 -0.1397
 5290TIP3    H137361   4.050   2.974   1.849 -1.4342  1.5657  2.9566
 5290TIP3    H237362   3.954   2.878   1.915 -2.6986  0.9356  0.3164
 5291TIP3   OH237363   0.758   3.353   0.963  0.1857 -0.0775 -0.7798
 5291TIP3    H137364   0.676   3.364   0.914  0.1309  0.0879 -0.6516
 5291TIP3    H237365   0.826   3.347   0.896  0.0072 -0.7525 -0.9112
 5292TIP3   OH237366   1.163   1.215   4.591 -0.1811  0.1258 -0.4854
 5292TIP3    H137367   1.162   1.310   4.593  0.0372  0.1566  2.2866
 5292TIP3    H237368   1.159   1.192   4.498  1.5502  2.8234 -1.3132
 5293TIP3   OH237369   5.036   5.869  16.925 -0.0297 -0.5605 -0.6146
 5293TIP3    H137370   5.123   5.832  16.943  0.3429  0.2441 -0.7181
 5293TIP3    H237371   4.996   5.807  16.864 -0.1869 -1.8183  0.7225
 5294TIP3   OH237372   0.712   2.345  14.624 -0.6234  0.1559  0.2656
 5294TIP3    H137373   0.770   2.304  14.560  0.7073  0.0319  1.5000
 5294TIP3    H237374   0.763   2.418  14.659 -2.0904  1.4741 -0.2293
 5295TIP3   OH237375   0.064   3.390  12.299 -0.0874 -0.2150  0.2899
 5295TIP3    H137376   0.044   3.434  12.216  1.4060  2.2128  1.0896
 5295TIP3    H237377   0.156   3.364  12.290 -0.3085 -1.1852  0.7045
 5296TIP3   OH237378   1.845   0.167   3.042 -0.1948 -0.7448 -0.0851
 5296TIP3    H137379   1.854   0.075   3.018 -0.2997 -1.9992  4.0109
 5296TIP3    H237380   1.899   0.177   3.120  0.4993  2.9701 -0.8350
 5297TIP3   OH237381   6.732   0.193   3.988 -0.3650 -0.1609  0.6701
 5297TIP3    H137382   6.802   0.217   4.049  1.3692 -2.4388 -0.2859
 5297TIP3    H237383   6.681   0.273   3.977  2.3655  1.7655  1.0369
 5298TIP3   OH237384   6.323   3.151   1.942 -0.3673  0.2682 -0.0359
 5298TIP3    H137385   6.286   3.170   1.856 -0.0403  1.2048  0.0191
 5298TIP3    H237386   6.407   3.110   1.923 -0.4129  0.2292 -0.1578
 5299TIP3   OH237387   2.974   3.662   4.124  0.1574 -0.2834  0.4031
 5299TIP3    H137388   2.980   3.692   4.215 -0.6453  1.2992 -0.0238
 5299TIP3    H237389   2.920   3.583   4.129  0.0912 -0.1970  1.2937
 5300TIP3   OH237390   0.269   4.772  10.461 -0.1147  0.0804 -0.3317
 5300TIP3    H137391   0.260   4.780  10.366  0.7612 -0.2837 -0.4559
 5300TIP3    H237392   0.310   4.687  10.474 -1.0546 -0.2706  0.4362
 5301TIP3   OH237393   3.143   0.089  13.892  0.1518 -0.3412 -0.0645
 5301TIP3    H137394   3.195   0.011  13.912 -0.7264 -0.9274 -0.0170
 5301TIP3    H237395   3.095   0.107  13.973  1.9890  1.5940  0.6947
 5302TIP3   OH237396   3.798   4.901  12.385  0.0713  0.5784  0.3105
 5302TIP3    H137397   3.820   4.961  12.456 -0.2572  1.3567 -0.2360
 5302TIP3    H237398   3.805   4.814  12.425 -0.1360  1.0014  1.3022
 5303TIP3   OH237399   2.930   5.492  15.073  0.6396  0.0202  0.1504
 5303TIP3    H137400   2.888   5.522  14.993  0.0512 -2.5949 -0.6392
 5303TIP3    H237401   3.021   5.478  15.049  0.5669 -0.2972  0.0461
 5304TIP3   OH237402   2.728   2.482  14.561  0.2291  0.6420  0.4169
 5304TIP3    H137403   2.766   2.516  14.642  0.9738  1.8954 -0.4146
 5304TIP3    H237404   2.679   2.556  14.525 -2.2770 -0.6423  0.9647
 5305TIP3   OH237405   5.551   1.384  16.576 -0.1573  0.5434 -0.0041
 5305TIP3    H137406   5.519   1.381  16.666  1.6802 -0.9661  0.6698
 5305TIP3    H237407   5.631   1.436  16.581  1.8575 -2.3477 -0.0235
 5306TIP3   OH237408   0.847   2.674  14.881  0.1499 -0.1761  0.4726
 5306TIP3    H137409   0.807   2.760  14.874  2.2853  0.8102 -0.4508
 5306TIP3    H237410   0.934   2.690  14.917  0.1255 -2.1213  1.5803
 5307TIP3   OH237411   2.404   0.664  11.800 -0.4200  0.0037  0.3166
 5307TIP3    H137412   2.426   0.751  11.832  2.5561  0.1397 -1.7916
 5307TIP3    H237413   2.394   0.611  11.880 -0.1200  1.7673  1.5732
 5308TIP3   OH237414   2.675   4.054  14.155  0.3667  0.3167 -0.0251
 5308TIP3    H137415   2.601   4.114  14.151  0.1150  0.0058 -0.1408
 5308TIP3    H237416   2.638   3.969  14.132  0.3869 -0.1804  1.6908
 5309TIP3   OH237417   1.600   5.275  16.681  0.0279 -0.0859 -0.0747
 5309TIP3    H137418   1.667   5.275  16.749 -1.0496  1.6693  1.0618
 5309TIP3    H237419   1.517   5.268  16.730 -0.7535  0.9138 -1.2103
 5310TIP3   OH237420   1.092   6.526  17.033 -0.0492 -0.5504 -0.2641
 5310TIP3    H137421   1.003   6.553  17.058 -0.7202 -1.7902 -1.2251
 5310TIP3    H237422   1.119   6.465  17.102 -0.1118 -0.5280 -0.2196
 5311TIP3   OH237423   5.740   5.463   3.281  0.0748 -0.7921  0.2767
 5311TIP3    H137424   5.667   5.456   3.342 -0.1104 -3.6635 -0.1555
 5311TIP3    H237425   5.817   5.438   3.333  0.5438  0.4960  0.2600
 5312TIP3   OH237426   0.519   6.611  14.667 -0.0807 -0.6688  0.3399
 5312TIP3    H137427   0.604   6.655  14.666 -0.4792  0.1274  0.2428
 5312TIP3    H237428   0.469   6.658  14.734 -0.7783 -0.4678 -0.3060
 5313TIP3   OH237429   6.079   5.634   5.268  0.0091  0.0250  0.0836
 5313TIP3    H137430   5.989   5.610   5.290  0.0572 -0.1426  0.1015
 5313TIP3    H237431   6.081   5.729   5.277 -0.4150  0.1316 -0.8495
 5314TIP3   OH237432   1.334   1.692  12.920  0.0367  0.5245  0.0099
 5314TIP3    H137433   1.310   1.753  12.990  0.7979  0.4574  0.3406
 5314TIP3    H237434   1.352   1.748  12.844  0.9032  0.7428  0.3594
 5315TIP3   OH237435   1.162   6.550   4.586  0.8692 -0.3661  0.7333
 5315TIP3    H137436   1.164   6.478   4.524  0.5761 -0.1151  0.4264
 5315TIP3    H237437   1.131   6.511   4.667 -2.4706 -0.0257 -0.2408
 5316TIP3   OH237438   0.245   4.909   5.078 -1.0143 -0.2386  0.6334
 5316TIP3    H137439   0.190   4.847   5.125  0.3147 -1.4744  0.6368
 5316TIP3    H237440   0.320   4.857   5.048  0.5370  1.4921  1.2692
 5317TIP3   OH237441   5.553   4.801   0.597 -0.0826 -0.5467 -0.0836
 5317TIP3    H137442   5.630   4.779   0.649  0.8294  0.3050 -1.0340
 5317TIP3    H237443   5.482   4.749   0.636  1.0654 -1.7431  0.4790
 5318TIP3   OH237444   1.606   6.183  11.019 -0.4356  0.3158 -0.1694
 5318TIP3    H137445   1.680   6.157  10.964  1.5112  0.4149  2.2215
 5318TIP3    H237446   1.537   6.207  10.957  0.8380 -1.6240 -2.5191
 5319TIP3   OH237447   0.277   5.464  14.604  0.6359 -0.0245 -0.3930
 5319TIP3    H137448   0.335   5.418  14.666 -0.6742 -1.1731  0.0231
 5319TIP3    H237449   0.260   5.548  14.645  0.0346 -0.6562  0.6873
 5320TIP3   OH237450   0.593   2.269  16.008  0.4714 -0.2812  0.0445
 5320TIP3    H137451   0.652   2.316  16.067 -1.0031 -0.3470  1.6482
 5320TIP3    H237452   0.534   2.221  16.067 -1.3427 -0.0142 -1.4754
 5321TIP3   OH237453   1.631   2.555  15.667  0.5287 -0.0103 -0.1059
 5321TIP3    H137454   1.546   2.513  15.656  0.2055  0.3437  0.9048
 5321TIP3    H237455   1.693   2.494  15.626  0.0160 -1.2329  0.8558
 5322TIP3   OH237456   4.702   4.922  13.111  0.6297  0.3786  0.3500
 5322TIP3    H137457   4.774   4.917  13.049  0.5049 -1.9708  0.3285
 5322TIP3    H237458   4.715   4.848  13.170 -2.4735 -0.9831 -0.4726
 5323TIP3   OH237459   2.192   4.761   1.665  0.0500  0.0972 -0.1571
 5323TIP3    H137460   2.212   4.711   1.586 -1.3239 -0.4058 -0.2168
 5323TIP3    H237461   2.218   4.851   1.644 -1.2840  0.1940 -1.6179
 5324TIP3   OH237462   0.192   5.713  14.396  0.0527  0.0569 -0.0758
 5324TIP3    H137463   0.177   5.671  14.311  0.5877 -0.3533  0.0274
 5324TIP3    H237464   0.106   5.716  14.437  0.0877 -1.4580  0.1505
 5325TIP3   OH237465   6.760   2.034  15.503  0.3396  0.1376 -0.3225
 5325TIP3    H137466   6.752   2.126  15.479 -0.6084  0.3064  0.5933
 5325TIP3    H237467   6.834   2.032  15.564  0.7097  0.2040 -0.7664
 5326TIP3   OH237468   3.732   4.954   1.211 -0.0973 -0.1441 -0.3419
 5326TIP3    H137469   3.754   5.047   1.221  2.3169 -0.6408 -0.3775
 5326TIP3    H237470   3.806   4.908   1.250 -1.3265 -2.0744 -0.1805
 5327TIP3   OH237471   3.116   1.515   6.004  0.0816 -0.1021 -0.2166
 5327TIP3    H137472   3.047   1.461   5.964 -1.2212  0.3499  1.3375
 5327TIP3    H237473   3.157   1.457   6.067 -0.9217  0.4825  1.0233
 5328TIP3   OH237474   2.068   2.863   2.794 -0.0205 -0.5028  0.0655
 5328TIP3    H137475   2.084   2.935   2.734  1.2298 -1.1541 -0.4207
 5328TIP3    H237476   1.978   2.835   2.774  0.1185 -0.2399 -0.9904
 5329TIP3   OH237477   3.216   6.578   2.271  0.5933 -0.3876  0.5553
 5329TIP3    H137478   3.167   6.587   2.189  0.8699  1.1192  0.5275
 5329TIP3    H237479   3.171   6.636   2.332  1.4039 -0.1744  0.9671
 5330TIP3   OH237480   3.687   0.512  15.634  0.2703  0.2395 -0.1082
 5330TIP3    H137481   3.619   0.445  15.632  0.4708  0.0531 -1.5076
 5330TIP3    H237482   3.665   0.565  15.711  0.7160 -2.0253  1.7059
 5331TIP3   OH237483   6.783   0.571   4.892 -0.4050  0.0659  0.1543
 5331TIP3    H137484   6.786   0.526   4.976 -0.2565  0.7127  0.5055
 5331TIP3    H237485   6.844   0.645   4.902  3.3597 -2.3639 -2.0165
 5332TIP3   OH237486   1.834   4.245  16.298 -0.1144 -0.0384  0.1399
 5332TIP3    H137487   1.825   4.294  16.217 -1.7586 -1.5053 -0.6408
 5332TIP3    H237488   1.870   4.161  16.272  1.2427  0.1691  1.2426
 5333TIP3   OH237489   1.957   6.388   3.014  0.5429  0.2239 -0.9897
 5333TIP3    H137490   1.896   6.403   3.087  1.3231  1.0639 -0.4912
 5333TIP3    H237491   1.935   6.301   2.982 -0.2741  0.1199 -0.1897
 5334TIP3   OH237492   4.284   6.532  15.173 -0.1936  0.5113 -0.0826
 5334TIP3    H137493   4.355   6.489  15.222  0.5263  0.8321 -0.8321
 5334TIP3    H237494   4.208   6.475  15.188  0.1213  0.3409  1.0107
 5335TIP3   OH237495   3.012   4.890  12.410 -0.7141  0.2516 -0.3606
 5335TIP3    H137496   3.082   4.825  12.416 -0.4889  0.4882 -0.4216
 5335TIP3    H237497   2.977   4.896  12.498 -0.5344  0.2697 -0.2914
 5336TIP3   OH237498   2.281   6.399  10.852  0.3835  0.1863  0.3737
 5336TIP3    H137499   2.324   6.484  10.842  0.9999 -0.0414  1.0108
 5336TIP3    H237500   2.216   6.413  10.921  1.1325 -0.0898  1.1486
 5337TIP3   OH237501   4.080   6.632   1.272  0.3006  0.3920 -0.7344
 5337TIP3    H137502   4.076   6.723   1.241  1.0913 -0.1714 -2.6269
 5337TIP3    H237503   4.170   6.605   1.255  0.2945 -0.5361  0.5407
 5338TIP3   OH237504   5.456   0.543   4.171  0.1356  0.1390  0.0387
 5338TIP3    H137505   5.438   0.452   4.191 -0.1297  0.6009  2.0559
 5338TIP3    H237506   5.439   0.590   4.252 -1.7882  2.3056 -1.4972
 5339TIP3   OH237507   6.655   0.374  15.100 -0.1287 -0.3300  0.4417
 5339TIP3    H137508   6.612   0.295  15.068 -0.2746 -0.9523  2.0744
 5339TIP3    H237509   6.719   0.395  15.032 -1.6799 -0.4753 -1.1372
 5340TIP3   OH237510   1.702   1.582   0.413  0.7252  0.3320 -0.1191
 5340TIP3    H137511   1.620   1.586   0.364  0.7135  1.9328 -0.0409
 5340TIP3    H237512   1.674   1.567   0.504  0.7193 -2.0728 -0.4568
 5341TIP3   OH237513   0.743   3.281  12.884 -0.0316  0.5682  0.7034
 5341TIP3    H137514   0.681   3.332  12.937  0.5776  0.6773  1.3239
 5341TIP3    H237515   0.829   3.309  12.915  0.4109  1.7901 -1.3883
 5342TIP3   OH237516   4.021   6.357   6.378  0.2817 -0.0089  0.1558
 5342TIP3    H137517   3.934   6.348   6.338 -0.2586  1.6939  0.8378
 5342TIP3    H237518   4.076   6.392   6.307  0.5477 -1.4390 -0.3834
 5343TIP3   OH237519   6.326   4.343  16.084 -0.0035 -0.4532  0.4286
 5343TIP3    H137520   6.383   4.351  16.008  0.5961 -2.9228  0.5200
 5343TIP3    H237521   6.371   4.281  16.142 -0.6664  0.9817  2.6089
 5344TIP3   OH237522   4.052   3.726   1.752  0.1683 -0.5748 -0.9262
 5344TIP3    H137523   4.096   3.667   1.690 -0.8611 -2.6649  0.2244
 5344TIP3    H237524   4.063   3.684   1.837 -0.1473  1.2214  0.0373
 5345TIP3   OH237525   1.289   6.181   1.935 -0.4326  0.1185  0.2767
 5345TIP3    H137526   1.282   6.108   1.873  1.1279 -0.1272  0.3393
 5345TIP3    H237527   1.210   6.233   1.920 -1.0426 -1.0007 -0.5331
 5346TIP3   OH237528   2.537   1.389  16.876  0.7021 -0.2407 -0.2975
 5346TIP3    H137529   2.606   1.433  16.825  2.1561 -1.7411  0.2697
 5346TIP3    H237530   2.484   1.344  16.811  0.3061  0.8094 -0.7323
 5347TIP3   OH237531   6.546   5.364  13.949  0.3341 -0.2372  0.2217
 5347TIP3    H137532   6.561   5.288  13.893  0.1413 -1.7700  2.1759
 5347TIP3    H237533   6.452   5.379  13.945  0.3385 -0.2535  0.0451
 5348TIP3   OH237534   1.844   6.005   3.228 -0.1551 -1.2560 -0.5627
 5348TIP3    H137535   1.829   5.977   3.318 -1.6955  0.7394 -0.1133
 5348TIP3    H237536   1.920   6.064   3.233 -1.5149  0.5658 -0.0984
 5349TIP3   OH237537   3.628   5.938   0.730 -0.4547 -0.4397 -0.1642
 5349TIP3    H137538   3.578   5.940   0.812 -0.2307  1.0293 -0.0400
 5349TIP3    H237539   3.652   6.029   0.714  2.8716 -1.1180  0.2051
 5350TIP3   OH237540   0.573   5.119   5.714  0.0505  0.1206 -0.1680
 5350TIP3    H137541   0.595   5.212   5.724  3.2947 -0.6470  0.6932
 5350TIP3    H237542   0.589   5.101   5.621 -1.5886  0.5619 -0.5858
 5351TIP3   OH237543   4.827   1.231   2.949  0.1593 -0.3225  0.0698
 5351TIP3    H137544   4.770   1.239   3.025 -0.8288 -1.1189 -0.5505
 5351TIP3    H237545   4.818   1.139   2.922  2.0950 -0.5913  0.2101
 5352TIP3   OH237546   2.005   6.179  16.622 -0.0016 -0.0520 -0.1575
 5352TIP3    H137547   2.066   6.116  16.660 -0.1261  0.1776  0.4326
 5352TIP3    H237548   1.991   6.244  16.691 -3.7196 -1.9551  1.1738
 5353TIP3   OH237549   5.529   3.296   4.324 -0.3498 -0.2385  0.3583
 5353TIP3    H137550   5.478   3.268   4.249 -0.8293  2.7555 -0.5713
 5353TIP3    H237551   5.487   3.378   4.353  2.2375  0.8881  1.2877
 5354TIP3   OH237552   2.999   4.778   0.958  0.2864  0.2687  0.2404
 5354TIP3    H137553   3.090   4.781   0.928  0.0992 -0.6673 -0.4654
 5354TIP3    H237554   3.004   4.741   1.046  0.4801 -1.5334 -0.4742
 5355TIP3   OH237555   0.047   5.282   5.823 -1.1811  0.0115  0.9564
 5355TIP3    H137556   0.051   5.225   5.900 -0.5204 -0.4545  0.5931
 5355TIP3    H237557   0.126   5.260   5.774  1.3304  4.0393  2.7077
 5356TIP3   OH237558   3.978   2.324  14.534  0.1236  0.2852 -0.0272
 5356TIP3    H137559   3.936   2.259  14.477  0.2270 -0.0320  0.2589
 5356TIP3    H237560   4.046   2.363  14.479  1.7980 -1.6542  0.5736
 5357TIP3   OH237561   2.031   2.085   3.764 -0.0994  0.1899  0.1789
 5357TIP3    H137562   2.051   2.162   3.816 -1.8028  1.0361 -0.3553
 5357TIP3    H237563   1.991   2.023   3.826  0.7827 -0.0726  0.4975
 5358TIP3   OH237564   3.186   2.319  11.431  0.4747 -0.7002  0.0136
 5358TIP3    H137565   3.206   2.381  11.361  0.6512 -0.3453  0.3724
 5358TIP3    H237566   3.141   2.372  11.498 -1.7392 -1.4571 -0.7646
 5359TIP3   OH237567   1.977   2.903   1.465  0.1906  0.5368 -0.2018
 5359TIP3    H137568   1.938   2.982   1.426  0.2140  0.9602  0.6172
 5359TIP3    H237569   2.018   2.858   1.391  0.0298  1.2083 -0.7120
 5360TIP3   OH237570   6.828   0.435  11.881  0.3207 -0.4808  0.0490
 5360TIP3    H137571   6.841   0.498  11.952 -1.4155 -1.4412  1.2995
 5360TIP3    H237572   6.796   0.489  11.808 -1.1381  0.1562  1.0975
 5361TIP3   OH237573   1.595   4.039  13.488 -0.2835 -0.0643  0.2920
 5361TIP3    H137574   1.651   4.022  13.564  2.5680  2.0471 -1.1407
 5361TIP3    H237575   1.584   3.953  13.447  2.6680 -0.5239  0.2484
 5362TIP3   OH237576   6.674   4.475   0.281  0.7194 -0.3368 -0.5591
 5362TIP3    H137577   6.609   4.479   0.352 -1.2398  0.3967 -2.2751
 5362TIP3    H237578   6.736   4.408   0.309  0.0552 -0.0519  1.8447
 5363TIP3   OH237579   4.593   5.088   5.817  0.0638 -0.5582  0.4890
 5363TIP3    H137580   4.651   5.050   5.883  0.4036  0.6476  0.9092
 5363TIP3    H237581   4.533   5.143   5.867 -0.9640 -1.1807 -0.0263
 5364TIP3   OH237582   1.522   1.825  14.413  0.0985 -0.4532  0.1321
 5364TIP3    H137583   1.475   1.894  14.366  0.7233  0.9829  1.5166
 5364TIP3    H237584   1.614   1.839  14.390  0.4993  0.6771  2.1423
 5365TIP3   OH237585   6.549   1.922   4.057  0.0657 -0.5957  0.4422
 5365TIP3    H137586   6.524   1.878   3.976  1.1158  0.9928 -0.8209
 5365TIP3    H237587   6.643   1.935   4.049  0.1548 -0.1938  1.8249
 5366TIP3   OH237588   0.717   5.812   5.771 -0.3565  0.4541 -0.4020
 5366TIP3    H137589   0.638   5.775   5.730  0.0422 -0.9442  0.0138
 5366TIP3    H237590   0.754   5.869   5.704 -0.3364 -0.8974 -1.6077
 5367TIP3   OH237591   0.317   5.456   3.353 -0.0622  0.4166 -0.0094
 5367TIP3    H137592   0.335   5.549   3.335  0.6738  0.5620  1.3959
 5367TIP3    H237593   0.403   5.414   3.352  0.0369  0.3848  2.6902
 5368TIP3   OH237594   6.493   3.355  12.251 -0.0228  0.1549 -0.0756
 5368TIP3    H137595   6.527   3.426  12.196  0.0908 -0.1161 -0.3605
 5368TIP3    H237596   6.417   3.393  12.295 -0.1331  0.3698 -0.4440
 5369TIP3   OH237597   2.156   1.048  11.429  0.0546  0.0760 -0.4105
 5369TIP3    H137598   2.096   0.981  11.395 -1.2788  0.7201  0.5733
 5369TIP3    H237599   2.133   1.127  11.380 -1.3187  0.8117  1.3349
 5370TIP3   OH237600   3.380   3.523   3.304 -0.6733  0.2997 -0.3195
 5370TIP3    H137601   3.444   3.557   3.367  1.6812 -0.1626 -2.2975
 5370TIP3    H237602   3.296   3.560   3.332  0.6256  1.9115  1.7182
 5371TIP3   OH237603   3.659   3.160   4.478  0.4747  0.0116  0.0004
 5371TIP3    H137604   3.678   3.126   4.390  1.2092  0.4439 -0.0106
 5371TIP3    H237605   3.569   3.193   4.471  0.7422  0.6094 -0.7682
 5372TIP3   OH237606   3.375   6.323   4.203  0.7923  0.1654  0.0475
 5372TIP3    H137607   3.408   6.235   4.189 -3.6019 -1.6384 -0.6400
 5372TIP3    H237608   3.348   6.324   4.295  3.0935  1.8513  0.8197
 5373TIP3   OH237609   2.760   3.382  14.535 -0.2053 -0.2127  0.7398
 5373TIP3    H137610   2.854   3.375  14.554 -0.0683  0.7938  0.4823
 5373TIP3    H237611   2.720   3.392  14.622  0.1262  1.2909  0.7489
 5374TIP3   OH237612   4.102   6.370  16.901  0.0770 -0.2129 -0.1595
 5374TIP3    H137613   4.092   6.396  16.809  2.3846  0.3394 -0.3074
 5374TIP3    H237614   4.119   6.276  16.898 -0.1650 -0.2552 -0.2552
 5375TIP3   OH237615   1.219   4.252   0.516 -0.3564  0.4247 -0.0064
 5375TIP3    H137616   1.138   4.298   0.496  0.1026  1.4685  0.4363
 5375TIP3    H237617   1.193   4.161   0.529 -1.6922  0.9807  1.6132
 5376TIP3   OH237618   2.914   1.898  12.433 -0.3348  0.1338 -0.6448
 5376TIP3    H137619   2.891   1.863  12.519 -1.0193  0.0835 -0.8382
 5376TIP3    H237620   2.878   1.835  12.371  0.3637  0.0507 -0.9665
 5377TIP3   OH237621   3.364   6.535   2.003  0.2374 -0.3299 -0.0915
 5377TIP3    H137622   3.427   6.607   2.002 -1.4396  1.2467  0.8834
 5377TIP3    H237623   3.279   6.577   1.985 -0.4439 -2.5340 -2.5742
 5378TIP3   OH237624   3.677   5.666   3.289  0.1066 -0.0195  0.4769
 5378TIP3    H137625   3.632   5.724   3.350 -0.9465 -0.7065  0.3637
 5378TIP3    H237626   3.609   5.609   3.254  0.1935  1.7344 -3.0230
 5379TIP3   OH237627   5.776   4.943   0.391  0.2644 -0.1057  0.0669
 5379TIP3    H137628   5.732   5.010   0.445  2.8645  0.7619  1.2914
 5379TIP3    H237629   5.786   4.868   0.449  1.9019  0.3597  0.4565
 5380TIP3   OH237630   1.124   3.891  13.445 -0.0795 -0.3018  0.2891
 5380TIP3    H137631   1.173   3.942  13.380  0.0441  0.9584  1.3296
 5380TIP3    H237632   1.150   3.928  13.529 -2.8762  0.5332  0.8928
 5381TIP3   OH237633   5.530   3.583   2.806  0.4971  0.0832 -0.1615
 5381TIP3    H137634   5.483   3.500   2.799  0.2464  0.0878  1.0830
 5381TIP3    H237635   5.476   3.646   2.759 -1.3216  0.2854  2.0147
 5382TIP3   OH237636   6.537   2.988  14.705 -0.5972  0.5424  0.1925
 5382TIP3    H137637   6.532   2.924  14.776  0.3181 -0.2295 -0.4240
 5382TIP3    H237638   6.449   3.026  14.701 -1.2297 -0.8388  0.4238
 5383TIP3   OH237639   0.281   5.348  12.160 -0.4087  0.4556  0.1959
 5383TIP3    H137640   0.333   5.420  12.195  0.2347  0.0158  0.1677
 5383TIP3    H237641   0.280   5.363  12.065  0.7679 -0.2314  0.0581
 5384TIP3   OH237642   1.394   5.998  13.699 -0.8094 -0.2409 -0.0855
 5384TIP3    H137643   1.353   6.060  13.639 -0.9833  0.0424  0.3189
 5384TIP3    H237644   1.393   5.915  13.652 -1.6003 -0.1770 -0.1899
 5385TIP3   OH237645   2.369   1.862  12.040  0.0800  0.0068 -0.2535
 5385TIP3    H137646   2.382   1.767  12.028 -1.2253 -0.0327 -1.7237
 5385TIP3    H237647   2.455   1.895  12.064  0.8130 -1.4145 -0.7929
 5386TIP3   OH237648   6.501   5.404   1.500  0.0687  0.0507  0.0740
 5386TIP3    H137649   6.572   5.355   1.541 -2.0602 -3.9026 -0.4554
 5386TIP3    H237650   6.501   5.375   1.408 -4.1891 -3.1519  0.7516
 5387TIP3   OH237651   1.664   3.190   2.842 -0.0753 -0.3122  0.3079
 5387TIP3    H137652   1.584   3.200   2.893  0.0488 -0.7139  0.5953
 5387TIP3    H237653   1.730   3.237   2.892 -0.5587  1.9512 -1.0601
 5388TIP3   OH237654   2.184   2.912  15.976  0.1091 -0.2948 -0.1846
 5388TIP3    H137655   2.230   2.968  15.913  0.8878 -0.1999  0.4499
 5388TIP3    H237656   2.209   2.823  15.951  0.0913 -0.2791 -0.2595
 5389TIP3   OH237657   2.161   0.059  11.387 -0.0140  0.0087 -0.0572
 5389TIP3    H137658   2.086   0.031  11.335  0.0451  1.4136 -0.9477
 5389TIP3    H237659   2.233   0.063  11.324  0.2241  1.0433  0.2782
 5390TIP3   OH237660   2.391   2.567   1.563  0.3319  0.4500  0.0713
 5390TIP3    H137661   2.320   2.513   1.598 -0.6704  1.2255 -0.6932
 5390TIP3    H237662   2.458   2.566   1.631 -0.0407 -1.0011  0.4558
 5391TIP3   OH237663   2.496   5.381   1.474  0.4440 -0.5404 -0.2236
 5391TIP3    H137664   2.476   5.468   1.439  1.9783  0.4980  1.3102
 5391TIP3    H237665   2.584   5.389   1.510  1.2397 -3.1901 -1.3484
 5392TIP3   OH237666   5.315   3.471   1.163  0.6446 -0.3202  0.0009
 5392TIP3    H137667   5.270   3.411   1.103 -1.7955 -0.2574  1.6158
 5392TIP3    H237668   5.361   3.414   1.225  1.3127 -0.4141 -0.5642
 5393TIP3   OH237669   2.097   2.628  12.404  0.0096 -0.2509  0.3483
 5393TIP3    H137670   2.146   2.705  12.375 -1.4237  0.0115 -1.5972
 5393TIP3    H237671   2.036   2.661  12.470  0.2607  0.0490  0.4310
 5394TIP3   OH237672   6.316   6.147  14.514  0.5688  0.1596 -0.0801
 5394TIP3    H137673   6.348   6.236  14.499  0.8616 -0.1306 -1.2251
 5394TIP3    H237674   6.258   6.129  14.441  0.6433 -0.6574  0.0498
 5395TIP3   OH237675   0.477   3.554  11.776  0.6759 -0.0854 -0.1535
 5395TIP3    H137676   0.433   3.543  11.692 -1.1571  0.9780  0.6139
 5395TIP3    H237677   0.447   3.479  11.828 -0.1966  0.5839  0.3366
 5396TIP3   OH237678   3.193   1.648  16.246 -0.2956  0.2368  0.0995
 5396TIP3    H137679   3.162   1.686  16.164 -2.4848 -0.5939  0.4807
 5396TIP3    H237680   3.269   1.596  16.221  1.0922  2.5437 -0.8353
 5397TIP3   OH237681   0.006   6.577   5.634  0.5869  0.7115 -0.2262
 5397TIP3    H137682   0.058   6.498   5.652  0.3424  0.3738 -0.9928
 5397TIP3    H237683  -0.057   6.581   5.706  2.7339  2.0781  1.7271
 5398TIP3   OH237684   1.443   1.402   5.880 -0.5364  0.1671 -0.2988
 5398TIP3    H137685   1.468   1.487   5.844  1.0893  0.4704  1.4192
 5398TIP3    H237686   1.388   1.424   5.955  1.2610 -0.1707  1.1806
 5399TIP3   OH237687   3.733   5.351  15.862  0.4454 -0.5347  0.2166
 5399TIP3    H137688   3.808   5.409  15.846 -0.2142  0.1577 -0.4409
 5399TIP3    H237689   3.666   5.408  15.898 -0.0644 -0.9802 -0.0130
 5400TIP3   OH237690   6.323   0.658  10.728 -0.6058  0.3009  0.2103
 5400TIP3    H137691   6.240   0.704  10.718 -0.9604 -0.3532  0.0905
 5400TIP3    H237692   6.302   0.581  10.780 -0.4579 -0.8600 -1.3705
 5401TIP3   OH237693   3.517   5.994   0.420  0.0882 -0.4633 -0.0369
 5401TIP3    H137694   3.545   5.941   0.496  0.0688 -0.4946 -0.0513
 5401TIP3    H237695   3.572   6.072   0.424  0.1371 -0.4975 -0.0311
 5402TIP3   OH237696   6.246   1.736  11.904  0.1002  0.1467 -0.0471
 5402TIP3    H137697   6.191   1.814  11.912  1.1935  0.9087  0.3038
 5402TIP3    H237698   6.325   1.758  11.953 -0.0787 -1.6894  1.1684
 5403TIP3   OH237699   4.380   6.606  11.988 -0.4076  0.2444  0.2471
 5403TIP3    H137700   4.436   6.529  11.975 -0.1012  0.4920  0.1039
 5403TIP3    H237701   4.362   6.637  11.899 -0.4413  0.4032  0.3092
 5404TIP3   OH237702   0.616   0.478   1.205  0.3036 -0.1662  0.5734
 5404TIP3    H137703   0.575   0.430   1.278  0.7894 -0.7847  0.4505
 5404TIP3    H237704   0.584   0.567   1.215 -0.4333 -0.4590  0.9569
 5405TIP3   OH237705   0.964   5.821  14.824  0.0993 -0.2737 -0.2049
 5405TIP3    H137706   1.024   5.884  14.786  0.1964  1.1796  2.1455
 5405TIP3    H237707   1.021   5.759  14.870 -0.0719 -1.2685 -1.2785
 5406TIP3   OH237708   2.817   3.076   5.362  0.0225 -0.6261  1.1272
 5406TIP3    H137709   2.780   3.122   5.287 -1.8343  0.1216  2.4347
 5406TIP3    H237710   2.743   3.027   5.398  1.5257 -3.2856  0.8501
 5407TIP3   OH237711   3.239   4.889  15.775  0.1120  0.1673 -0.2421
 5407TIP3    H137712   3.252   4.950  15.702  1.7162  1.8294  1.3161
 5407TIP3    H237713   3.327   4.872  15.807 -0.6057  0.5077  2.0668
 5408TIP3   OH237714   3.403   0.122   4.649  0.0624 -0.1152 -0.3215
 5408TIP3    H137715   3.366   0.186   4.588 -0.4419 -1.2870 -1.2901
 5408TIP3    H237716   3.452   0.175   4.713 -1.9937  1.4022  0.1193
 5409TIP3   OH237717   5.384   5.819  16.278  0.1424  0.0770  0.4000
 5409TIP3    H137718   5.440   5.887  16.314  1.1114 -0.4809  0.0004
 5409TIP3    H237719   5.413   5.810  16.187 -2.4124  1.6489 -0.6848
 5410TIP3   OH237720   5.807   5.484   1.598  0.3983  0.3463 -0.2417
 5410TIP3    H137721   5.852   5.477   1.514  0.0552 -0.2557 -0.3822
 5410TIP3    H237722   5.859   5.430   1.658 -0.5467 -1.0359 -0.5962
 5411TIP3   OH237723   2.255   2.309  15.962 -0.3752  0.0836 -0.1332
 5411TIP3    H137724   2.184   2.247  15.978 -0.2314 -0.0338  0.0555
 5411TIP3    H237725   2.241   2.339  15.872 -0.2634 -0.4648 -0.3361
 5412TIP3   OH237726   6.717   4.586  13.975  0.2402  0.7457 -0.7576
 5412TIP3    H137727   6.672   4.604  14.058 -0.5170  1.1696 -1.2516
 5412TIP3    H237728   6.794   4.535  14.000  1.8459  3.5801  0.6160
 5413TIP3   OH237729   3.345   3.095   0.601 -0.2058 -0.0380 -0.2120
 5413TIP3    H137730   3.353   3.165   0.537 -0.0210 -1.5448 -1.9291
 5413TIP3    H237731   3.298   3.134   0.675  0.3793  2.0078 -0.8643
 5414TIP3   OH237732   3.295   3.461  11.913  0.4182 -0.2563  0.1259
 5414TIP3    H137733   3.361   3.432  11.976 -0.0726  1.6389  1.5989
 5414TIP3    H237734   3.345   3.499  11.841  0.9610 -0.8057  0.2123
 5415TIP3   OH237735   1.655   4.496   2.563  0.5779 -0.0715 -0.3316
 5415TIP3    H137736   1.676   4.495   2.470  1.8058  0.5366 -0.0798
 5415TIP3    H237737   1.585   4.560   2.571  1.3713  0.8520 -0.6687
 5416TIP3   OH237738   2.340   3.404  12.683  0.5339  0.5700 -0.5535
 5416TIP3    H137739   2.421   3.366  12.718  0.7135  0.0955 -1.4642
 5416TIP3    H237740   2.313   3.467  12.750  0.2782 -1.0726  0.9497
 5417TIP3   OH237741   5.129   2.750  16.368 -0.1622  0.2539  0.1906
 5417TIP3    H137742   5.039   2.783  16.367 -0.4539 -0.4844  0.8420
 5417TIP3    H237743   5.179   2.816  16.415 -0.6692 -0.0519  1.1891
 5418TIP3   OH237744   0.698   4.048  14.315 -0.1665  0.7370  0.6387
 5418TIP3    H137745   0.757   4.049  14.239 -0.5758 -1.6538  0.2314
 5418TIP3    H237746   0.744   4.101  14.381  1.2336  1.0296 -0.5028
 5419TIP3   OH237747   1.986   1.342  15.044  0.2917  0.2714 -0.3394
 5419TIP3    H137748   1.999   1.307  14.956  0.9402 -2.0392  0.6042
 5419TIP3    H237749   2.043   1.419  15.048  0.7252  0.0533 -1.7003
 5420TIP3   OH237750   4.840   1.694  12.503 -0.2348  0.7227 -0.1330
 5420TIP3    H137751   4.771   1.692  12.569 -0.9603  3.1422 -0.7240
 5420TIP3    H237752   4.913   1.645  12.542 -1.7897 -0.7567  1.0348
 5421TIP3   OH237753   2.415   1.777  13.137  0.2004 -0.3209 -0.2828
 5421TIP3    H137754   2.484   1.808  13.078  1.3291  0.3036  1.2909
 5421TIP3    H237755   2.349   1.739  13.079  2.2076 -1.6640 -1.8275
 5422TIP3   OH237756   2.168   0.824   1.531  0.1616 -0.2806 -0.1986
 5422TIP3    H137757   2.198   0.836   1.621  0.0027 -0.7813 -0.0775
 5422TIP3    H237758   2.246   0.795   1.483  0.0866 -0.7105 -0.0688
 5423TIP3   OH237759   3.607   5.495  11.291  0.0539 -0.1069  0.5819
 5423TIP3    H137760   3.602   5.565  11.355  1.7476 -0.0480  0.7146
 5423TIP3    H237761   3.531   5.440  11.308  0.1886  0.2003  2.3101
 5424TIP3   OH237762   6.614   3.905  10.552 -0.4101  0.2461  0.3087
 5424TIP3    H137763   6.605   3.868  10.464  1.9065 -0.5250  0.3328
 5424TIP3    H237764   6.708   3.900  10.571 -0.7716  0.9490  2.6022
 5425TIP3   OH237765   0.531   0.215   4.181 -0.0440  0.0815  0.1184
 5425TIP3    H137766   0.503   0.227   4.090  1.0516 -0.0119 -0.2395
 5425TIP3    H237767   0.483   0.137   4.210 -1.6719  1.0654  0.1709
 5426TIP3   OH237768   1.115   2.306  14.990 -0.3732 -0.2990 -0.3160
 5426TIP3    H137769   1.094   2.306  15.083 -0.2692 -0.0741 -0.2914
 5426TIP3    H237770   1.035   2.275  14.947  0.0928 -2.0050 -0.0435
 5427TIP3   OH237771   5.853   4.829   6.225  0.1854  0.3370 -0.1980
 5427TIP3    H137772   5.947   4.816   6.241  0.5759  1.8954 -1.0366
 5427TIP3    H237773   5.842   4.924   6.223 -1.8432  0.2709  2.2408
 5428TIP3   OH237774   4.238   1.171   3.048  0.1091 -0.3544 -0.4518
 5428TIP3    H137775   4.241   1.118   2.967  2.3085 -1.9145  0.5361
 5428TIP3    H237776   4.146   1.172   3.072 -0.6063  0.0269 -2.8605
 5429TIP3   OH237777   1.587   3.118  11.650 -0.4123  0.1683  0.3644
 5429TIP3    H137778   1.681   3.133  11.651 -0.2764 -0.6123  1.7869
 5429TIP3    H237779   1.578   3.023  11.640 -1.0903  0.3819 -1.2395
 5430TIP3   OH237780   5.265   1.804   0.850 -0.2357 -0.5141  0.6903
 5430TIP3    H137781   5.250   1.850   0.767 -2.6587  0.4628  1.6030
 5430TIP3    H237782   5.292   1.716   0.823  2.5626  0.7282 -1.0898
 5431TIP3   OH237783   3.696   5.847  15.219  0.2006  0.3760 -0.0992
 5431TIP3    H137784   3.628   5.872  15.156 -0.2865 -1.6741 -0.4572
 5431TIP3    H237785   3.750   5.926  15.228 -1.3435  1.5931 -0.9353
 5432TIP3   OH237786   1.132   0.225  16.197  0.5808 -0.1106 -0.5268
 5432TIP3    H137787   1.159   0.173  16.273  0.0365 -0.2236 -0.4074
 5432TIP3    H237788   1.110   0.160  16.130 -1.3559 -0.0909  0.0468
 5433TIP3   OH237789   3.617   5.877  14.932  0.0195 -0.4529 -0.0818
 5433TIP3    H137790   3.672   5.826  14.873  2.1123  1.7197 -0.1376
 5433TIP3    H237791   3.602   5.960  14.886 -1.1044  0.0159  1.0603
 5434TIP3   OH237792   1.022   0.543  16.612  0.4103 -0.4556 -0.3859
 5434TIP3    H137793   1.071   0.484  16.554  1.4093 -0.7381  0.7115
 5434TIP3    H237794   1.088   0.578  16.671 -0.5486  0.0305  0.4192
 5435TIP3   OH237795   4.966   4.436   4.456 -0.0201  0.2232  0.4182
 5435TIP3    H137796   5.011   4.430   4.540  3.0690  0.6473 -1.0885
 5435TIP3    H237797   4.987   4.523   4.423  2.0506 -1.1940 -2.3951
 5436TIP3   OH237798   4.047   1.004   0.362  0.2732  0.2648  0.0611
 5436TIP3    H137799   4.012   0.917   0.380  1.1267  0.1143  1.1390
 5436TIP3    H237800   3.975   1.050   0.319 -0.6310 -0.5777  0.6094
 5437TIP3   OH237801   5.459   1.957   5.006  0.2180 -0.0458 -0.0145
 5437TIP3    H137802   5.387   1.929   4.949 -1.3009  0.8400  1.3885
 5437TIP3    H237803   5.524   1.994   4.946 -0.5486 -0.7251 -1.3075
 5438TIP3   OH237804   0.557   1.292  10.957  0.0825  0.5149 -0.3004
 5438TIP3    H137805   0.471   1.313  10.922  0.6761  0.2687 -1.9699
 5438TIP3    H237806   0.544   1.213  11.009 -0.2749 -1.0674 -2.6761
 5439TIP3   OH237807   5.840   2.065   5.404  0.0040  0.3312  0.2198
 5439TIP3    H137808   5.855   2.151   5.365 -1.5241  0.8890  0.8068
 5439TIP3    H237809   5.833   2.082   5.498  0.6903 -0.5916  0.4525
 5440TIP3   OH237810   5.051   2.718   0.735  0.4991 -0.1667 -0.2809
 5440TIP3    H137811   5.028   2.809   0.714  1.7319  0.4325  0.7790
 5440TIP3    H237812   4.972   2.668   0.717  0.0720  0.9743 -1.7929
 5441TIP3   OH237813   0.003   6.202  12.384 -0.2320 -0.3155 -0.4988
 5441TIP3    H137814   0.062   6.182  12.311  1.0136 -0.6519  0.5645
 5441TIP3    H237815  -0.074   6.241  12.343 -0.1289 -1.7193 -2.1039
 5442TIP3   OH237816   3.770   6.379   2.036 -0.2323  0.3644  0.7437
 5442TIP3    H137817   3.732   6.377   1.948 -0.1187 -4.3418  0.5780
 5442TIP3    H237818   3.695   6.387   2.094 -0.4050  2.2967  0.3144
 5443TIP3   OH237819   5.993   2.746  13.481  0.6767  0.7123 -0.3791
 5443TIP3    H137820   5.910   2.790  13.462 -0.2990 -0.9716 -0.1956
 5443TIP3    H237821   6.041   2.747  13.398 -0.9860 -1.2798 -1.4139
 5444TIP3   OH237822   4.899   2.890  16.126  0.3843 -0.1218  0.3460
 5444TIP3    H137823   4.894   2.800  16.159  0.7255 -0.1647  0.2792
 5444TIP3    H237824   4.899   2.881  16.031 -0.6214  0.0046  0.3278
 5445TIP3   OH237825   0.655   3.002  16.175 -0.4319 -0.1095 -0.3530
 5445TIP3    H137826   0.567   3.032  16.154  0.1781  0.3805 -2.4924
 5445TIP3    H237827   0.651   2.907  16.165 -0.3477  0.0451 -2.2423
 5446TIP3   OH237828   4.143   3.317  10.794 -0.3063 -0.0215  0.5821
 5446TIP3    H137829   4.133   3.410  10.771  1.1158  0.0877  0.2696
 5446TIP3    H237830   4.219   3.288  10.743  0.1000 -1.0015  1.6924
 5447TIP3   OH237831   4.045   6.043  15.893 -0.2164  0.0358 -0.4635
 5447TIP3    H137832   3.955   6.058  15.922 -0.6019  1.4074 -2.2382
 5447TIP3    H237833   4.073   5.965  15.942 -2.0797  0.0505  0.7063
 5448TIP3   OH237834   0.154   4.632  13.631 -0.2856 -0.2620 -0.4068
 5448TIP3    H137835   0.191   4.666  13.550  1.3626 -2.1981 -0.5420
 5448TIP3    H237836   0.143   4.709  13.687  1.0499  0.7649 -1.5100
 5449TIP3   OH237837   6.570   5.422   1.218  0.1857  0.6347 -0.1186
 5449TIP3    H137838   6.582   5.328   1.206  0.4132  0.3597  1.9096
 5449TIP3    H237839   6.527   5.451   1.137 -2.1354 -1.6247  0.1809
 5450TIP3   OH237840   5.308   2.500   6.491  0.4058 -0.5061  0.5346
 5450TIP3    H137841   5.278   2.411   6.511  1.5219 -1.4079 -1.4759
 5450TIP3    H237842   5.228   2.553   6.493 -0.2652 -1.5152  1.8476
 5451TIP3   OH237843   2.263   1.865   1.889  0.0346 -0.2880 -0.0898
 5451TIP3    H137844   2.215   1.833   1.813  1.7630 -0.3478 -1.2140
 5451TIP3    H237845   2.336   1.805   1.898  1.2969  1.1912  0.0050
 5452TIP3   OH237846   3.910   6.161   5.894 -0.1806  0.0344  0.2521
 5452TIP3    H137847   3.971   6.234   5.886  0.2791 -0.3071  0.5775
 5452TIP3    H237848   3.826   6.202   5.912  0.0335  0.4932  0.2221
 5453TIP3   OH237849   2.264   5.283   2.192  0.1525  0.5245 -0.4298
 5453TIP3    H137850   2.259   5.339   2.114 -2.1324  1.3145  0.1784
 5453TIP3    H237851   2.174   5.253   2.205  0.7962 -0.9544  0.9683
 5454TIP3   OH237852   2.400   1.607  17.033 -0.2780  0.6064 -0.0392
 5454TIP3    H137853   2.455   1.555  16.975  1.0127  3.4434 -1.5640
 5454TIP3    H237854   2.322   1.553  17.047  0.9650 -1.7079 -1.4076
 5455TIP3   OH237855   2.155   0.679   3.569  0.2675  0.2602 -0.0160
 5455TIP3    H137856   2.073   0.678   3.618  0.7647  2.5658  0.9918
 5455TIP3    H237857   2.173   0.772   3.554  2.0538 -0.2431 -1.3481
 5456TIP3   OH237858   5.744   3.124  11.424  0.0278  0.0360 -0.3128
 5456TIP3    H137859   5.671   3.062  11.434 -0.0483  0.2426  0.4938
 5456TIP3    H237860   5.702   3.208  11.407  0.0397  0.2481  0.6191
 5457TIP3   OH237861   1.644   2.785   1.246  0.4499  0.0938  0.2353
 5457TIP3    H137862   1.735   2.758   1.248 -0.0026 -1.7951 -0.9288
 5457TIP3    H237863   1.644   2.869   1.200  1.7906  1.4147  2.5053
 5458TIP3   OH237864   2.854   1.432  12.413  0.6203 -0.5744 -0.5872
 5458TIP3    H137865   2.830   1.459  12.502 -2.0182 -1.0540 -1.0790
 5458TIP3    H237866   2.938   1.475  12.397  1.1137 -0.3608  2.0671
 5459TIP3   OH237867   1.882   2.789   4.344  0.0978 -0.6261  0.0441
 5459TIP3    H137868   1.808   2.845   4.365  0.3530 -0.6555  1.0774
 5459TIP3    H237869   1.848   2.728   4.279 -0.7260 -0.4948  0.3381
 5460TIP3   OH237870   1.255   3.135   4.216 -0.4035 -0.0589  0.2739
 5460TIP3    H137871   1.221   3.206   4.162 -0.5299 -0.4100 -0.1113
 5460TIP3    H237872   1.177   3.086   4.244 -0.3021 -0.1791  0.3493
 5461TIP3   OH237873   6.809   5.809  16.254 -0.3296  0.2877  0.8452
 5461TIP3    H137874   6.720   5.775  16.267 -0.5567  0.9826  1.1551
 5461TIP3    H237875   6.850   5.747  16.193 -2.3974  2.2118 -2.8391
 5462TIP3   OH237876   0.489   0.068  14.872  0.4869  0.0033 -0.2972
 5462TIP3    H137877   0.440   0.003  14.921 -1.4714  1.6424  0.0658
 5462TIP3    H237878   0.522   0.129  14.939 -3.3840  3.0569 -0.8122
 5463TIP3   OH237879   0.885   2.466   1.082  0.2426 -0.0305  0.3163
 5463TIP3    H137880   0.907   2.447   1.173  2.6613  0.4511 -0.1023
 5463TIP3    H237881   0.922   2.553   1.066 -1.5899  0.6217 -0.6995
 5464TIP3   OH237882   2.387   3.774   3.943  0.6644  0.2253  0.1956
 5464TIP3    H137883   2.424   3.854   3.906  2.0856 -0.4763  0.0688
 5464TIP3    H237884   2.463   3.723   3.971 -0.1636 -1.6246 -0.8162
 5465TIP3   OH237885   5.219   0.745   4.949 -0.0093  0.4196  0.3807
 5465TIP3    H137886   5.313   0.735   4.930  0.1453  1.2222  0.6448
 5465TIP3    H237887   5.182   0.777   4.867 -0.1667 -0.4753  0.0957
 5466TIP3   OH237888   6.257   0.559  11.649  0.7864  0.3815  0.8538
 5466TIP3    H137889   6.331   0.601  11.604  0.5667  0.1940  0.3060
 5466TIP3    H237890   6.196   0.538  11.578  0.8623 -0.8006  1.1248
 5467TIP3   OH237891   2.399   1.314  14.783 -0.4281 -1.0001  0.0353
 5467TIP3    H137892   2.395   1.319  14.878 -0.9572  2.0786 -0.0425
 5467TIP3    H237893   2.475   1.259  14.765 -1.0369 -2.6809  2.1804
 5468TIP3   OH237894   4.936   6.434  12.442  0.5039  0.0182 -0.6674
 5468TIP3    H137895   4.956   6.519  12.481 -0.2282 -0.2759  0.3862
 5468TIP3    H237896   4.841   6.428  12.444  0.5880 -1.4428  0.6593
 5469TIP3   OH237897   3.347   3.207   1.855 -0.3237  0.3841 -0.0977
 5469TIP3    H137898   3.294   3.183   1.931 -0.9803 -1.8699 -1.1741
 5469TIP3    H237899   3.284   3.234   1.788  0.0555  0.1123 -0.5749
 5470TIP3   OH237900   6.788   6.582   5.025 -0.3342  0.4292 -0.5774
 5470TIP3    H137901   6.713   6.572   4.967  0.2149  0.2476 -1.2591
 5470TIP3    H237902   6.865   6.574   4.968  0.2358 -0.9046  0.3224
 5471TIP3   OH237903   2.396   0.899   4.148 -0.3018 -0.4388 -0.3294
 5471TIP3    H137904   2.442   0.841   4.209 -0.9211 -0.6910 -0.0968
 5471TIP3    H237905   2.424   0.868   4.061  0.7364  0.0477 -0.1866
 5472TIP3   OH237906   0.087   2.128   4.552 -0.0485  0.3579  0.4659
 5472TIP3    H137907   0.013   2.189   4.544 -0.6765 -0.5202 -0.6107
 5472TIP3    H237908   0.049   2.041   4.541  1.1332 -0.1169 -0.0709
 5473TIP3   OH237909   2.441   0.136  16.414 -0.0892 -0.6108  1.2233
 5473TIP3    H137910   2.375   0.070  16.437 -0.1299 -0.5218  1.3553
 5473TIP3    H237911   2.437   0.140  16.318 -1.2454  0.3878  1.2940
 5474TIP3   OH237912   3.214   2.721  13.487 -0.4209  0.2778  0.0671
 5474TIP3    H137913   3.248   2.694  13.573 -1.8528  0.6675  0.7863
 5474TIP3    H237914   3.243   2.652  13.427 -1.3070 -1.2094  1.2856
 5475TIP3   OH237915   6.385   5.097   2.048  0.2116 -0.2006 -0.1428
 5475TIP3    H137916   6.378   5.192   2.054 -2.5111 -0.3240 -0.2140
 5475TIP3    H237917   6.468   5.082   2.002  1.8446  2.0089  1.7723
 5476TIP3   OH237918   5.543   0.682   6.563  0.0386 -0.2713  0.0171
 5476TIP3    H137919   5.538   0.647   6.474  0.2256 -4.2238  1.3380
 5476TIP3    H237920   5.452   0.688   6.592  0.0478 -0.9470  0.1969
 5477TIP3   OH237921   2.211   0.731   3.263  0.2815 -0.0930  0.4323
 5477TIP3    H137922   2.249   0.690   3.341 -0.4693  0.1864  0.9595
 5477TIP3    H237923   2.120   0.702   3.262 -0.2702  1.5228  0.8196
 5478TIP3   OH237924   0.165   1.048  13.926  0.4143 -0.0592  0.8420
 5478TIP3    H137925   0.075   1.065  13.954  0.3577  0.3984  0.3994
 5478TIP3    H237926   0.194   1.131  13.888  0.4620 -0.6678 -0.4938
 5479TIP3   OH237927   0.225   5.832  11.491  0.7129  0.7150 -0.1630
 5479TIP3    H137928   0.276   5.766  11.445  0.7886  1.7585 -1.6515
 5479TIP3    H237929   0.290   5.894  11.523  0.7197 -0.3018  1.9684
 5480TIP3   OH237930   1.331   4.404   6.157 -0.6769  0.0251 -0.0252
 5480TIP3    H137931   1.357   4.495   6.173 -0.5070 -0.2761  1.5529
 5480TIP3    H237932   1.414   4.356   6.156 -0.9063 -0.4881  1.9426
 5481TIP3   OH237933   4.653   3.731   4.623  0.3160 -0.4583  0.0184
 5481TIP3    H137934   4.727   3.714   4.682  0.6002  0.0138 -0.1978
 5481TIP3    H237935   4.662   3.664   4.555  1.6195  0.6897 -1.0055
 5482TIP3   OH237936   5.130   4.408   3.644  0.6857 -0.6992  0.0925
 5482TIP3    H137937   5.124   4.351   3.568  2.9817 -0.2751 -0.4851
 5482TIP3    H237938   5.106   4.353   3.718  0.7938 -1.7940 -0.6721
 5483TIP3   OH237939   2.963   2.348   1.533  0.1379 -0.7801  0.2066
 5483TIP3    H137940   2.921   2.411   1.592 -0.4325 -1.3834  0.4520
 5483TIP3    H237941   3.053   2.381   1.524 -0.1659  0.1073  0.2689
 5484TIP3   OH237942   2.832   5.435  13.481  0.0988 -0.4094  0.0968
 5484TIP3    H137943   2.782   5.515  13.494 -0.4740 -0.5726 -0.9781
 5484TIP3    H237944   2.779   5.383  13.420  1.5020 -0.6462 -0.9730
 5485TIP3   OH237945   3.613   6.804  11.623  0.8775 -0.0031  0.5290
 5485TIP3    H137946   3.660   6.790  11.705 -1.0294 -1.4441  1.4622
 5485TIP3    H237947   3.532   6.755  11.634 -0.2252  1.2396 -1.5434
 5486TIP3   OH237948   5.997   0.612  16.847 -0.9485  0.0917 -0.4617
 5486TIP3    H137949   6.005   0.706  16.865  0.8785 -0.1157  0.0623
 5486TIP3    H237950   6.005   0.570  16.933  1.4714 -0.6332 -0.9388
 5487TIP3   OH237951   5.477   1.409   0.517 -0.4648  0.0373  0.5076
 5487TIP3    H137952   5.519   1.334   0.474  0.8746  0.5642  0.8290
 5487TIP3    H237953   5.510   1.485   0.469 -1.0851  0.4774  0.7671
 5488TIP3   OH237954   6.613   3.154  14.425 -0.4992 -0.4382  0.1529
 5488TIP3    H137955   6.606   3.178  14.333 -2.6733  1.4635  0.7308
 5488TIP3    H237956   6.628   3.238  14.470  3.3224 -1.5713  1.3979
 5489TIP3   OH237957   3.187   2.248  16.514 -0.8427 -0.2335  0.8296
 5489TIP3    H137958   3.183   2.243  16.610  0.5104  0.9717  0.9870
 5489TIP3    H237959   3.181   2.341  16.495  1.0632 -0.2669 -0.1039
 5490TIP3   OH237960   4.357   2.207  11.409  0.0520 -0.9304  0.1386
 5490TIP3    H137961   4.284   2.240  11.463  0.7407 -0.0656  0.5639
 5490TIP3    H237962   4.318   2.193  11.323 -0.2095  1.4605 -0.2040
 5491TIP3   OH237963   0.184   6.517  15.145  0.2760 -0.1083  0.2804
 5491TIP3    H137964   0.108   6.572  15.162  0.8394  0.5976  0.5586
 5491TIP3    H237965   0.258   6.578  15.143  0.5646 -0.4244 -2.4291
 5492TIP3   OH237966   6.193   2.163   5.364  0.4992  0.1774 -0.0977
 5492TIP3    H137967   6.219   2.073   5.380  0.8757  0.2560 -0.2354
 5492TIP3    H237968   6.240   2.214   5.431  1.4778  0.4244 -0.9444
 5493TIP3   OH237969   3.031   5.821  15.826 -0.0068  0.3023 -0.2788
 5493TIP3    H137970   3.091   5.867  15.884  1.0121 -0.0597 -1.0283
 5493TIP3    H237971   2.946   5.824  15.871  0.0856  2.6549 -0.1803
 5494TIP3   OH237972   0.280   5.861  11.852 -0.6683  0.3023 -0.4566
 5494TIP3    H137973   0.227   5.781  11.853  1.2084 -1.0013 -0.0795
 5494TIP3    H237974   0.309   5.868  11.761 -1.3529  0.9491 -0.6359
 5495TIP3   OH237975   5.766   3.490  13.650 -0.4083 -0.1191 -0.1745
 5495TIP3    H137976   5.818   3.459  13.576  0.1990  1.0876 -0.2872
 5495TIP3    H237977   5.788   3.583  13.657  0.1175 -0.3500  1.9814
 5496TIP3   OH237978   6.312   1.236  17.083  0.2422  0.0652  0.1728
 5496TIP3    H137979   6.330   1.253  16.991 -0.7127 -0.0674 -0.0545
 5496TIP3    H237980   6.239   1.173  17.082 -0.5660  0.9447  1.0045
 5497TIP3   OH237981   4.949   4.912   2.155 -0.2863 -0.1267 -0.3925
 5497TIP3    H137982   4.964   4.895   2.062 -0.1502 -0.7290 -0.2588
 5497TIP3    H237983   4.986   5.000   2.169 -1.9356  0.7628 -1.3039
 5498TIP3   OH237984   3.934   2.294  13.324  0.3030 -0.1115 -0.6734
 5498TIP3    H137985   3.909   2.246  13.403 -0.2232  2.1982  0.6302
 5498TIP3    H237986   3.855   2.297  13.271 -0.1681  0.8604  0.0744
 5499TIP3   OH237987   0.693   2.514   5.244  0.4673 -0.4780  0.3379
 5499TIP3    H137988   0.664   2.513   5.336 -0.4221  0.3297  0.0911
 5499TIP3    H237989   0.742   2.596   5.236  0.9272 -0.7632  0.1945
 5500TIP3   OH237990   4.938   0.076  16.778  0.5916  0.3172  0.3699
 5500TIP3    H137991   4.922   0.112  16.691 -0.5074 -1.4096 -0.2056
 5500TIP3    H237992   5.015   0.021  16.768  0.3616 -0.0210  0.4242
 5501TIP3   OH237993   2.401   1.630   0.924 -0.5501  0.3450 -0.3233
 5501TIP3    H137994   2.435   1.566   0.862  2.9035  1.4438  0.2059
 5501TIP3    H237995   2.399   1.713   0.875  2.0040  1.1785  0.7577
 5502TIP3   OH237996   1.437   5.205  13.717 -0.8747  0.1773 -0.2344
 5502TIP3    H137997   1.427   5.236  13.627 -0.3848 -0.6796 -0.6027
 5502TIP3    H237998   1.531   5.187  13.726 -1.2338 -2.2193 -0.4347
 5503TIP3   OH237999   3.131   4.485   4.403 -0.4725 -0.0553  0.4148
 5503TIP3    H138000   3.062   4.425   4.375 -1.7013  0.5031  2.0889
 5503TIP3    H238001   3.206   4.429   4.424  0.4964 -0.5482 -3.4702
 5504TIP3   OH238002   4.785   2.416   3.778  0.0471  0.0448  0.0713
 5504TIP3    H138003   4.696   2.392   3.803  0.5938 -0.9183  1.1679
 5504TIP3    H238004   4.835   2.413   3.860  0.9196  1.4019 -0.3747
 5505TIP3   OH238005   0.137   5.394  14.003  0.1898 -0.0241  0.2371
 5505TIP3    H138006   0.084   5.324  14.043  1.4256 -2.0907 -1.4886
 5505TIP3    H238007   0.101   5.403  13.915  1.4163 -0.0589 -0.2895
 5506TIP3   OH238008   6.734   4.093   3.348 -0.2306 -0.0326  0.3675
 5506TIP3    H138009   6.732   4.143   3.266 -0.5638 -0.5187  0.0707
 5506TIP3    H238010   6.826   4.072   3.361 -0.2752 -0.7254 -0.3680
 5507TIP3   OH238011   3.930   0.351   3.218 -0.4255 -0.1894  0.1549
 5507TIP3    H138012   3.956   0.335   3.308  0.8690  1.2435  0.0644
 5507TIP3    H238013   3.848   0.401   3.225 -0.9400 -1.0569  0.4941
 5508TIP3   OH238014   0.415   6.389   0.122  0.2075  0.5536 -0.0114
 5508TIP3    H138015   0.323   6.364   0.125  0.5289 -0.6408  0.4181
 5508TIP3    H238016   0.461   6.320   0.169  1.2087  1.7270  0.8198
 5509TIP3   OH238017   6.498   1.984  13.100  0.1299  0.4712  0.2770
 5509TIP3    H138018   6.543   1.989  13.016 -1.0651 -0.4181 -0.4393
 5509TIP3    H238019   6.482   1.891  13.113  1.6779  0.3964  2.2698
 5510TIP3   OH238020   6.387   2.422  13.604  0.5520 -0.1387  0.4523
 5510TIP3    H138021   6.370   2.448  13.513 -0.6700 -0.1215  0.6677
 5510TIP3    H238022   6.395   2.504  13.651 -1.3538 -0.0879  0.7831
 5511TIP3   OH238023   2.254   4.342  14.089 -0.5462  0.4762 -0.2978
 5511TIP3    H138024   2.224   4.292  14.165 -0.9189  0.5130 -0.4212
 5511TIP3    H238025   2.321   4.402  14.125 -0.0934 -0.1054 -0.1533
 5512TIP3   OH238026   3.467   6.555   1.020 -0.2045  0.7980  0.5832
 5512TIP3    H138027   3.512   6.560   0.935  0.9967 -0.1158  1.1308
 5512TIP3    H238028   3.477   6.643   1.057 -1.7396  1.5433 -0.6803
 5513TIP3   OH238029   2.101   4.635   2.270 -0.2172  0.1180 -0.4956
 5513TIP3    H138030   2.070   4.589   2.347 -2.1376  1.2428 -0.5341
 5513TIP3    H238031   2.173   4.581   2.237  0.3501 -0.6212  1.7850
 5514TIP3   OH238032   1.229   0.918   3.680  0.5081 -0.5449  0.2450
 5514TIP3    H138033   1.245   0.920   3.585 -0.8761 -1.5906 -0.0314
 5514TIP3    H238034   1.274   0.840   3.710  0.6886 -0.3802  0.4031
 5515TIP3   OH238035   2.186   0.870  15.426  0.1404 -0.1538 -0.2054
 5515TIP3    H138036   2.197   0.788  15.474  1.2381  0.6744  1.0179
 5515TIP3    H238037   2.195   0.938  15.493  0.6607  1.0132 -1.4298
 5516TIP3   OH238038   6.667   0.699   6.717 -0.9727  0.4324 -0.1450
 5516TIP3    H138039   6.660   0.788   6.682 -0.8221  0.9912  1.1736
 5516TIP3    H238040   6.762   0.683   6.721 -1.0018  0.1674 -0.4597
 5517TIP3   OH238041   1.696   3.654   0.951 -0.2713  0.5132  0.2756
 5517TIP3    H138042   1.704   3.598   1.028 -1.0834  1.1326  0.8245
 5517TIP3    H238043   1.627   3.716   0.973 -0.7718  0.4808 -1.0894
 5518TIP3   OH238044   4.562   2.754  11.686 -0.5377 -0.3367  0.5186
 5518TIP3    H138045   4.478   2.788  11.716  0.5192  2.0815  1.0374
 5518TIP3    H238046   4.559   2.660  11.704 -2.9751 -0.2580  0.7959
 5519TIP3   OH238047   2.076   1.662   2.171  0.5559 -0.1283 -0.3244
 5519TIP3    H138048   2.087   1.756   2.158  1.5109 -0.1680  0.1265
 5519TIP3    H238049   2.165   1.627   2.174  0.2167 -1.0439 -0.4215
 5520TIP3   OH238050   5.028   2.941   2.068 -0.4565 -0.1073  0.6976
 5520TIP3    H138051   5.024   2.910   1.978  0.3832  0.7490  0.3371
 5520TIP3    H238052   4.995   2.869   2.120 -1.2138 -0.5213 -0.3175
 5521TIP3   OH238053   6.176   4.794  11.536  0.2967 -0.0316  0.4436
 5521TIP3    H138054   6.241   4.726  11.551 -0.3351 -0.7180  0.1131
 5521TIP3    H238055   6.095   4.760  11.574 -0.2990  0.0414 -0.7083
 5522TIP3   OH238056   3.432   4.210  16.612  0.2534 -0.0159  0.1965
 5522TIP3    H138057   3.408   4.279  16.675  4.7612  1.5912  0.5407
 5522TIP3    H238058   3.417   4.249  16.526 -2.5377 -0.8777  0.2098
 5523TIP3   OH238059   2.935   0.802  13.741  0.4101  0.1620  0.0824
 5523TIP3    H138060   2.880   0.847  13.805 -0.4364  0.0590 -0.5523
 5523TIP3    H238061   2.873   0.758  13.683  1.1725 -0.1447 -0.5191
 5524TIP3   OH238062   3.672   6.428   1.786 -0.0226  0.1456  0.0109
 5524TIP3    H138063   3.632   6.436   1.700  0.0664 -0.4775 -0.0933
 5524TIP3    H238064   3.712   6.513   1.802 -1.9947  1.0432  0.4269
 5525TIP3   OH238065   2.380   2.999  11.776  0.4580  0.5932 -0.4301
 5525TIP3    H138066   2.467   2.990  11.737  0.2255  3.3191 -1.8301
 5525TIP3    H238067   2.395   3.044  11.859  0.4019  0.7633 -0.5123
 5526TIP3   OH238068   2.075   0.066  13.316  0.1138 -0.5601 -0.5262
 5526TIP3    H138069   2.021   0.139  13.344  1.1776 -0.2745  0.8420
 5526TIP3    H238070   2.115   0.032  13.396  0.1414 -2.2485 -1.2021
 5527TIP3   OH238071   6.411   5.173   4.430  0.2237  0.4487 -0.1957
 5527TIP3    H138072   6.405   5.128   4.345 -1.0995 -1.6731  0.9279
 5527TIP3    H238073   6.475   5.121   4.479 -1.1264 -0.0769  1.0503
 5528TIP3   OH238074   5.099   4.457  14.483 -0.4285 -0.0082  0.7942
 5528TIP3    H138075   5.140   4.391  14.427 -2.5624  1.0145 -2.2114
 5528TIP3    H238076   5.025   4.413  14.523 -0.9756  0.1078 -0.0500
 5529TIP3   OH238077   4.093   6.070   4.276 -0.6296  0.3502  0.2501
 5529TIP3    H138078   4.148   5.992   4.285 -0.8793  0.1684  0.2396
 5529TIP3    H238079   4.124   6.113   4.197 -0.8814 -0.0621 -0.0758
 5530TIP3   OH238080   5.584   6.289  15.787  0.0575 -0.2467  0.2146
 5530TIP3    H138081   5.635   6.263  15.710  2.5548 -0.7454  1.9218
 5530TIP3    H238082   5.507   6.232  15.785  1.0812 -1.6635 -0.8521
 5531TIP3   OH238083   1.507   2.867   4.454 -0.5472 -0.0978 -0.6880
 5531TIP3    H138084   1.425   2.870   4.504 -1.0412  1.5368 -1.5487
 5531TIP3    H238085   1.483   2.898   4.367  1.3607  2.3739 -0.4160
 5532TIP3   OH238086   2.120   0.457   6.143 -0.0791  0.2651 -0.2287
 5532TIP3    H138087   2.070   0.433   6.221  0.4951  2.4824  0.8902
 5532TIP3    H238088   2.209   0.471   6.174  0.7649 -1.2522 -1.7723
 5533TIP3   OH238089   6.179   0.605   6.031  0.3181 -0.3276 -0.4561
 5533TIP3    H138090   6.142   0.557   5.957  2.1429 -2.1368 -0.2968
 5533TIP3    H238091   6.166   0.546   6.106  0.4488  0.5077  0.2356
 5534TIP3   OH238092   6.238   3.221   1.692 -0.4849  0.5043 -0.4694
 5534TIP3    H138093   6.169   3.164   1.658  0.3036  0.4001 -2.0252
 5534TIP3    H238094   6.315   3.199   1.638  0.7618  0.6230  1.1928
 5535TIP3   OH238095   4.459   4.197  13.364 -0.1514 -0.0693 -0.0530
 5535TIP3    H138096   4.427   4.287  13.356  0.1136  0.1687  1.2549
 5535TIP3    H238097   4.383   4.142  13.347 -0.2717  0.3911 -1.0448
 5536TIP3   OH238098   2.276   5.492   1.987 -0.0503  0.2701 -0.0306
 5536TIP3    H138099   2.334   5.493   1.911 -0.3056 -0.8635 -0.2569
 5536TIP3    H238100   2.204   5.435   1.961  0.6794 -1.5346  1.6279
 5537TIP3   OH238101   1.985   1.224  12.615  0.2027  0.1009  0.6236
 5537TIP3    H138102   1.913   1.287  12.619 -0.3018 -0.4185  0.0265
 5537TIP3    H238103   1.951   1.147  12.660  0.6396  0.0921  0.9361
 5538TIP3   OH238104   1.214   1.120   0.006 -0.2199 -0.2279 -0.2560
 5538TIP3    H138105   1.192   1.056   0.074 -1.2758 -1.0630 -1.3244
 5538TIP3    H238106   1.247   1.196   0.053  1.8197 -1.8069  1.0443
 5539TIP3   OH238107   2.492   4.715   1.528  0.0030  0.5505  0.0074
 5539TIP3    H138108   2.417   4.681   1.480 -0.4728 -1.8830  2.2397
 5539TIP3    H238109   2.565   4.658   1.503 -0.1250 -0.3831  1.6274
 5540TIP3   OH238110   0.764   1.373   0.228 -0.2571  0.2999  0.0408
 5540TIP3    H138111   0.702   1.429   0.274  0.7957  1.1511  0.4841
 5540TIP3    H238112   0.825   1.435   0.186  1.5307 -0.4744  1.3685
 5541TIP3   OH238113   3.188   2.342  13.622  0.2983  0.4596  0.0637
 5541TIP3    H138114   3.100   2.303  13.627 -1.1721  3.3484 -1.0125
 5541TIP3    H238115   3.237   2.297  13.691 -2.6798  0.2588  2.3135
 5542TIP3   OH238116   0.800   3.513   3.749 -0.1550 -0.2551  0.2256
 5542TIP3    H138117   0.826   3.497   3.658 -2.9803  0.2299 -0.7689
 5542TIP3    H238118   0.749   3.436   3.773 -0.4901  0.1876  0.9672
 5543TIP3   OH238119   1.060   5.020   1.311 -0.5321 -0.7707  0.3329
 5543TIP3    H138120   1.107   5.020   1.228 -0.2326 -2.3799  0.4761
 5543TIP3    H238121   1.120   5.062   1.373  0.8042 -2.8555  0.5283
 5544TIP3   OH238122   4.610   2.780   4.150  0.3256  0.2999 -0.4953
 5544TIP3    H138123   4.535   2.739   4.194  0.8182  0.6602  0.7234
 5544TIP3    H238124   4.686   2.756   4.205  0.7754  1.9292 -0.3501
 5545TIP3   OH238125   5.610   1.905   0.097 -0.3467  0.8051 -0.1886
 5545TIP3    H138126   5.678   1.843   0.125 -0.3395  0.9541  0.1284
 5545TIP3    H238127   5.637   1.988   0.136 -1.1485  0.6964  0.6181
 5546TIP3   OH238128   2.536   3.154   3.618  0.5679 -1.1935  0.9015
 5546TIP3    H138129   2.568   3.206   3.691 -0.2011 -0.6812  0.8763
 5546TIP3    H238130   2.508   3.218   3.553  0.4424 -1.6429  0.5047
 5547TIP3   OH238131   5.785   1.565  16.033 -0.3305 -0.3646 -0.2987
 5547TIP3    H138132   5.741   1.501  15.977  1.2976 -1.6867 -0.1416
 5547TIP3    H238133   5.714   1.609  16.079 -1.5146 -2.5093  0.0446
 5548TIP3   OH238134   4.033   6.687  16.637  0.0444  0.0225  0.4642
 5548TIP3    H138135   4.037   6.757  16.573 -0.9673 -0.3819 -0.0573
 5548TIP3    H238136   4.096   6.622  16.605 -0.1835 -0.0104  0.0692
 5549TIP3   OH238137   4.081   6.169  15.394  0.5219  0.5509 -0.2058
 5549TIP3    H138138   4.062   6.148  15.485  1.1429 -2.0962 -0.6210
 5549TIP3    H238139   4.001   6.144  15.346  0.4897  1.1844 -0.4974
 5550TIP3   OH238140   5.950   1.637  14.682 -1.0007 -0.1147  0.3127
 5550TIP3    H138141   5.902   1.557  14.660 -2.5844  1.0476 -0.6621
 5550TIP3    H238142   5.906   1.670  14.760 -0.8173  0.2012  0.2808
 5551TIP3   OH238143   5.255   5.259  11.753  0.0722  0.0852 -0.0873
 5551TIP3    H138144   5.339   5.241  11.796  0.5783  0.5734 -0.8440
 5551TIP3    H238145   5.277   5.318  11.681 -0.8344 -0.2775 -0.6802
 5552TIP3   OH238146   2.098   4.939  12.229 -0.4973 -0.8429 -0.0768
 5552TIP3    H138147   2.022   4.963  12.281 -1.7199 -1.7630 -1.3818
 5552TIP3    H238148   2.156   4.894  12.290 -2.4146 -2.9783  0.2962
 5553TIP3   OH238149   2.088   1.000  16.460  0.3653 -0.2717  0.3858
 5553TIP3    H138150   2.107   1.008  16.366  0.2173  0.6962  0.4259
 5553TIP3    H238151   2.003   1.042  16.470  0.3022 -0.5299  0.9276
 5554TIP3   OH238152   1.786   2.774   2.528 -0.2604  0.2955 -0.0786
 5554TIP3    H138153   1.799   2.850   2.471 -1.2446 -0.1012 -0.8624
 5554TIP3    H238154   1.762   2.810   2.612  1.0518  0.8931  0.0632
 5555TIP3   OH238155   5.159   5.994  16.060  0.4778 -0.2469 -0.4131
 5555TIP3    H138156   5.174   6.019  16.152 -1.4524  1.7563 -0.5463
 5555TIP3    H238157   5.064   5.985  16.053  0.2683  2.3603 -2.7498
 5556TIP3   OH238158   3.480   4.638   0.474 -0.0144  0.5191  0.2534
 5556TIP3    H138159   3.414   4.618   0.541  1.5779 -2.7785  1.0268
 5556TIP3    H238160   3.446   4.599   0.394  0.0411  0.7371  0.1198
 5557TIP3   OH238161   4.721   1.511  12.231 -0.0649 -0.9068  0.2225
 5557TIP3    H138162   4.805   1.468  12.213 -0.1789 -1.6631  1.3561
 5557TIP3    H238163   4.740   1.605  12.225  0.5910 -1.0764 -0.6278
 5558TIP3   OH238164   5.722   1.126   3.166 -0.3241  0.3998  0.8777
 5558TIP3    H138165   5.693   1.150   3.254 -0.8992  1.4066  0.4178
 5558TIP3    H238166   5.665   1.175   3.107  1.3681  1.3337 -0.0515
 5559TIP3   OH238167   1.419   1.389   3.837 -0.0426  0.2534 -0.7421
 5559TIP3    H138168   1.409   1.438   3.919  0.9678 -0.9974  0.1723
 5559TIP3    H238169   1.390   1.301   3.858  1.6253 -0.4664 -1.2704
 5560TIP3   OH238170   1.978   2.890  15.144 -0.3465  0.7021  0.3760
 5560TIP3    H138171   2.029   2.949  15.090  1.2624 -0.0068  1.0654
 5560TIP3    H238172   1.919   2.947  15.194 -3.2258  1.3354 -3.2493
 5561TIP3   OH238173   0.114   1.093   1.385  0.1552  0.1193 -0.5334
 5561TIP3    H138174   0.183   1.056   1.330  2.3858  0.6751  1.6692
 5561TIP3    H238175   0.117   1.187   1.368  0.4842  0.2282  0.0631
 5562TIP3   OH238176   4.094   2.795  14.565 -0.4220 -0.0912  0.6332
 5562TIP3    H138177   4.014   2.834  14.600 -0.8340 -1.7586  1.6694
 5562TIP3    H238178   4.163   2.822  14.625 -0.4311  0.2736  0.4822
 5563TIP3   OH238179   3.551   3.293  16.401 -0.1144 -0.5210  0.1545
 5563TIP3    H138180   3.620   3.248  16.449 -0.4459 -0.9784  0.2208
 5563TIP3    H238181   3.590   3.375  16.373  0.6408 -1.0151 -0.2946
 5564TIP3   OH238182   3.161   4.265  15.671 -0.0402  0.3190  0.2437
 5564TIP3    H138183   3.179   4.358  15.682 -1.5905  0.9312 -1.8627
 5564TIP3    H238184   3.073   4.253  15.706 -0.4876  0.0016 -0.9438
 5565TIP3   OH238185   0.481   1.485   0.637 -0.5380  0.0272 -0.2640
 5565TIP3    H138186   0.546   1.550   0.663 -0.4701  1.1411 -2.8569
 5565TIP3    H238187   0.442   1.455   0.719  1.6785  0.9520  1.2226
 5566TIP3   OH238188   4.879   2.627  14.952  0.3428 -0.0492  0.4173
 5566TIP3    H138189   4.810   2.683  14.986  1.5924  1.1867  1.0141
 5566TIP3    H238190   4.840   2.539  14.949 -1.6589  0.8234 -0.5546
 5567TIP3   OH238191   4.269   1.505   3.831 -0.0700  0.4574  0.1256
 5567TIP3    H138192   4.230   1.433   3.881 -2.4770  1.2647 -0.4304
 5567TIP3    H238193   4.285   1.468   3.744 -2.6881  0.8685 -0.6163
 5568TIP3   OH238194   5.822   3.178   0.493 -0.4073  0.0431 -0.0659
 5568TIP3    H138195   5.745   3.180   0.436 -0.4197  0.6625 -0.0355
 5568TIP3    H238196   5.878   3.247   0.459  0.1013 -0.3480 -0.0341
 5569TIP3   OH238197   2.544   5.829  12.308 -0.1041 -0.3322 -0.0230
 5569TIP3    H138198   2.524   5.914  12.347  0.5870  0.3186 -1.0562
 5569TIP3    H238199   2.458   5.793  12.283 -0.2598  1.2563 -2.0139
 5570TIP3   OH238200   3.399   1.656   6.081  0.1260  0.1310  0.4264
 5570TIP3    H138201   3.308   1.633   6.059 -0.2716 -0.1899  2.1937
 5570TIP3    H238202   3.437   1.573   6.110  0.5826  0.5015  0.9045
 5571TIP3   OH238203   1.131   1.237  16.158  0.1155 -0.4491 -0.4665
 5571TIP3    H138204   1.076   1.299  16.206 -0.8509 -2.1019  0.6253
 5571TIP3    H238205   1.092   1.234  16.070 -1.0737 -1.0172  0.0666
 5572TIP3   OH238206   4.515   1.518   3.230 -0.4118  0.1524 -0.2123
 5572TIP3    H138207   4.528   1.512   3.325  1.6082 -1.0964 -0.5063
 5572TIP3    H238208   4.482   1.432   3.205  0.3039  0.0515 -0.8145
 5573TIP3   OH238209   1.675   5.364  11.260  0.0036  0.8867 -0.1154
 5573TIP3    H138210   1.665   5.445  11.310 -0.3637  1.3224 -0.8632
 5573TIP3    H238211   1.716   5.303  11.321 -1.4593  1.0394  1.0884
 5574TIP3   OH238212   2.542   3.548   1.630  0.0414  0.0673  0.4271
 5574TIP3    H138213   2.512   3.482   1.567  2.2251  0.5855 -1.2732
 5574TIP3    H238214   2.564   3.624   1.576  0.8384  0.9752  1.9773
 5575TIP3   OH238215   3.926   1.779  13.924 -0.2799  0.0438  0.0932
 5575TIP3    H138216   4.004   1.820  13.888 -2.3596  2.4900 -2.0286
 5575TIP3    H238217   3.899   1.835  13.996 -0.3515 -0.5499  0.5424
 5576TIP3   OH238218   6.137   5.547   4.954 -0.9362  0.2214 -0.4910
 5576TIP3    H138219   6.208   5.483   4.961 -0.6316  0.2939 -2.3936
 5576TIP3    H238220   6.158   5.613   5.020  0.2202 -0.2565 -0.3595
 5577TIP3   OH238221   1.187   6.444   2.181 -0.1931 -0.5032 -0.0814
 5577TIP3    H138222   1.192   6.526   2.132 -0.4401 -0.5330 -0.1581
 5577TIP3    H238223   1.230   6.380   2.125  1.4323 -0.1244  0.6524
 5578TIP3   OH238224   1.704   5.505   4.386  0.2119 -0.3776  0.0266
 5578TIP3    H138225   1.676   5.469   4.470  0.9667  0.1004  0.4981
 5578TIP3    H238226   1.654   5.457   4.321 -0.3748 -0.7638  0.7535
 5579TIP3   OH238227   4.724   5.912   2.687 -0.1989 -0.0295  0.0884
 5579TIP3    H138228   4.789   5.867   2.741  0.5279  2.4573  1.4400
 5579TIP3    H238229   4.663   5.843   2.661  2.4453 -2.3381 -0.5354
 5580TIP3   OH238230   3.162   3.018   2.552 -0.0330 -0.6034 -0.3371
 5580TIP3    H138231   3.183   3.067   2.473  0.5879  0.3014  0.3710
 5580TIP3    H238232   3.072   2.987   2.538  0.3273 -1.1190 -1.7116
 5581TIP3   OH238233   1.941   1.560   1.610 -0.4103  0.1600  0.3787
 5581TIP3    H138234   2.009   1.573   1.677  0.7616  1.4948 -0.9811
 5581TIP3    H238235   1.885   1.638   1.618 -1.4393 -0.6333  1.0798
 5582TIP3   OH238236   4.323   0.864  16.708 -0.0481  0.2242 -0.2076
 5582TIP3    H138237   4.296   0.799  16.644  0.7529  0.7076 -1.0610
 5582TIP3    H238238   4.243   0.915  16.726 -0.5360 -0.6071  0.0369
 5583TIP3   OH238239   4.373   4.159   0.312  0.3639  0.4921  0.0080
 5583TIP3    H138240   4.387   4.066   0.332  0.7476  0.5740  0.1265
 5583TIP3    H238241   4.370   4.202   0.398 -0.1285  0.5476 -0.0334
 5584TIP3   OH238242   5.311   2.365   3.411  0.3958  0.3927 -0.3589
 5584TIP3    H138243   5.360   2.283   3.409  0.1057  0.1946  0.6099
 5584TIP3    H238244   5.228   2.343   3.453  0.4059  1.2341  0.1131
 5585TIP3   OH238245   1.444   6.050  17.050  0.0393 -0.6240 -0.4134
 5585TIP3    H138246   1.507   6.101  16.999  0.3397 -1.7935 -1.2559
 5585TIP3    H238247   1.493   5.975  17.083 -0.9693 -1.8027 -1.4636
 5586TIP3   OH238248   6.429   1.994  15.676 -0.6340  0.1161  0.0181
 5586TIP3    H138249   6.423   2.063  15.610 -1.0724 -0.1345 -0.2088
 5586TIP3    H238250   6.438   2.040  15.759 -1.1187  0.4497 -0.1140
 5587TIP3   OH238251   1.484   1.358   5.380  0.4485 -0.1790 -0.0185
 5587TIP3    H138252   1.531   1.312   5.310 -0.4447 -1.1067 -0.0227
 5587TIP3    H238253   1.535   1.339   5.459 -0.5159 -2.1719  0.1772
 5588TIP3   OH238254   4.784   4.110  13.987 -0.0752  0.1274 -0.1369
 5588TIP3    H138255   4.797   4.198  14.022  1.3495  0.1220 -0.6167
 5588TIP3    H238256   4.693   4.089  14.009  0.0840  1.0228  1.5126
 5589TIP3   OH238257   5.229   4.097   2.567  0.4774 -0.0858 -0.1176
 5589TIP3    H138258   5.201   4.048   2.644  1.4403  1.2485  1.1222
 5589TIP3    H238259   5.315   4.133   2.591  0.4265  1.0382 -1.4992
 5590TIP3   OH238260   6.238   0.067   5.292 -0.3738 -0.9417 -0.2421
 5590TIP3    H138261   6.204   0.031   5.373 -0.6808  1.4584  0.7762
 5590TIP3    H238262   6.318   0.112   5.317 -0.9835  0.6748 -1.0575
 5591TIP3   OH238263   1.316   2.476   4.635 -0.3716 -0.7172 -0.4458
 5591TIP3    H138264   1.327   2.383   4.616  2.3632 -0.5001 -0.2186
 5591TIP3    H238265   1.405   2.511   4.637 -1.3359  1.9272 -0.5509
 5592TIP3   OH238266   1.426   4.218  16.515 -0.2685 -0.5520  0.5749
 5592TIP3    H138267   1.400   4.307  16.534 -2.1616 -0.3019 -2.5612
 5592TIP3    H238268   1.492   4.197  16.581 -1.9509  2.0449  3.2562
 5593TIP3   OH238269   4.983   0.924  13.944  0.2722 -0.1284  0.5514
 5593TIP3    H138270   4.954   1.002  13.897  0.7774  0.3005  0.9422
 5593TIP3    H238271   5.072   0.908  13.911  0.4418 -0.1151  0.9925
 5594TIP3   OH238272   1.383   0.474  16.562 -0.2544 -0.4658  0.4169
 5594TIP3    H138273   1.386   0.407  16.630  0.9978 -0.5369  0.3149
 5594TIP3    H238274   1.317   0.442  16.500  0.1545 -1.4947  0.4935
 5595TIP3   OH238275   6.106   3.873  12.876  0.0686 -0.5350 -0.3478
 5595TIP3    H138276   6.190   3.919  12.881  1.7582 -3.5000  0.8443
 5595TIP3    H238277   6.115   3.814  12.801 -1.0094 -0.7658 -0.3113
 5596TIP3   OH238278   1.309   3.515   0.568  0.0178 -0.5118 -0.2581
 5596TIP3    H138279   1.269   3.476   0.646  0.3284 -0.5958 -0.1388
 5596TIP3    H238280   1.354   3.593   0.601  1.7820 -1.5749 -0.0171
 5597TIP3   OH238281   1.956   2.542  12.690  0.1279 -0.2653  0.3060
 5597TIP3    H138282   1.949   2.527  12.784 -0.0281 -1.0152  0.1877
 5597TIP3    H238283   1.933   2.457  12.651 -0.5970  0.2530 -0.4352
 5598TIP3   OH238284   3.565   1.769   5.000 -0.2958 -0.1888 -0.7974
 5598TIP3    H138285   3.512   1.793   5.076 -0.6758 -2.3421 -0.3187
 5598TIP3    H238286   3.593   1.853   4.963 -1.1429  0.9399  0.9691
 5599TIP3   OH238287   2.890   4.342   5.715  0.5281 -0.4387  0.2000
 5599TIP3    H138288   2.819   4.405   5.724  1.6484  1.1816 -1.4662
 5599TIP3    H238289   2.970   4.395   5.719  1.6619 -2.1277  1.4594
 5600TIP3   OH238290   2.506   2.529   6.164  0.3160 -0.1908  0.2039
 5600TIP3    H138291   2.442   2.480   6.216 -0.0445 -0.5635 -0.5880
 5600TIP3    H238292   2.550   2.584   6.228 -0.4613 -0.2855  0.8407
 5601TIP3   OH238293   3.742   3.104  11.645  0.2279  0.7001  0.0409
 5601TIP3    H138294   3.743   3.028  11.703  0.0657  0.1532 -0.6639
 5601TIP3    H238295   3.831   3.138  11.649  0.5395 -0.0499 -0.3099
 5602TIP3   OH238296   1.504   1.826  13.300  1.0075  0.4196 -0.4272
 5602TIP3    H138297   1.562   1.896  13.331  0.8338  0.2783  0.2456
 5602TIP3    H238298   1.550   1.745  13.323  0.3151  0.2978  0.6101
 5603TIP3   OH238299   2.560   1.849  16.295  0.4698 -0.0227  0.2303
 5603TIP3    H138300   2.475   1.805  16.290  0.6761 -0.3520 -0.6404
 5603TIP3    H238301   2.619   1.784  16.333 -0.1420  0.9990  3.1700
 5604TIP3   OH238302   6.215   2.317   0.392  0.3195 -0.1802  0.4802
 5604TIP3    H138303   6.210   2.401   0.346  0.3081 -0.3271  0.2072
 5604TIP3    H238304   6.222   2.340   0.485 -1.9199  0.1108  0.6210
 5605TIP3   OH238305   0.713   6.549  15.428 -0.4239  0.0915  0.0073
 5605TIP3    H138306   0.771   6.478  15.459  0.9343 -0.9384 -4.2265
 5605TIP3    H238307   0.629   6.506  15.413  0.5162 -0.9012 -2.9693
 5606TIP3   OH238308   3.546   1.280   5.021  0.0153  0.3242  0.0190
 5606TIP3    H138309   3.504   1.273   5.106 -3.3589  1.7310 -1.3531
 5606TIP3    H238310   3.590   1.365   5.022  0.5681  0.0402  0.5467
 5607TIP3   OH238311   3.958   4.991  13.722 -0.5261  0.0444  0.5179
 5607TIP3    H138312   4.041   5.033  13.703 -0.2021 -1.1711 -0.9254
 5607TIP3    H238313   3.940   5.013  13.813  1.3303  0.4001  0.8268
 5608TIP3   OH238314   6.328   1.950  12.763  0.3102 -0.2868  0.6735
 5608TIP3    H138315   6.313   1.879  12.826  2.8882  0.2495  2.0644
 5608TIP3    H238316   6.414   1.985  12.788 -0.7929  3.2678 -0.0239
 5609TIP3   OH238317   6.403   4.075  11.641  0.1039  0.2077 -0.0676
 5609TIP3    H138318   6.363   4.162  11.643 -0.7156 -0.1593 -0.1734
 5609TIP3    H238319   6.359   4.029  11.569  1.3664  0.0844 -0.7941
 5610TIP3   OH238320   4.091   2.491  11.456 -0.5362 -0.0476 -0.2102
 5610TIP3    H138321   4.162   2.467  11.396  0.4364  0.8890  0.5363
 5610TIP3    H238322   4.077   2.584  11.441 -0.9397 -0.0078  0.3624
 5611TIP3   OH238323   1.781   2.357  15.513  0.4134  0.2885  0.5764
 5611TIP3    H138324   1.741   2.323  15.433  0.4191  1.0263  0.2557
 5611TIP3    H238325   1.810   2.279  15.561  4.8936 -0.1893 -2.3669
 5612TIP3   OH238326   1.511   3.351   2.505  0.0435  0.0545  0.1861
 5612TIP3    H138327   1.590   3.367   2.556 -0.6270  0.1097  1.2446
 5612TIP3    H238328   1.537   3.287   2.438  0.9319 -0.0617  0.6361
 5613TIP3   OH238329   2.940   2.777  15.853 -0.2831  0.3984 -0.0353
 5613TIP3    H138330   2.989   2.831  15.915 -1.2883  0.5152  0.6776
 5613TIP3    H238331   2.852   2.815  15.851 -1.1228 -1.3699  0.7292
 5614TIP3   OH238332   6.541   5.561  15.392  0.0477  0.1947 -0.0280
 5614TIP3    H138333   6.477   5.615  15.440 -0.9611 -0.7904 -0.2312
 5614TIP3    H238334   6.494   5.534  15.313  1.4676  1.2335 -1.2722
 5615TIP3   OH238335   3.512   1.114  16.003  0.7420  0.1056  0.0988
 5615TIP3    H138336   3.418   1.123  16.023  0.9945  0.0822  1.3781
 5615TIP3    H238337   3.528   1.178  15.934  0.2507  1.8260  1.5148
 5616TIP3   OH238338   1.406   3.306   2.176  0.0577  0.1103 -0.8833
 5616TIP3    H138339   1.449   3.261   2.103  0.4404  0.8610 -1.1291
 5616TIP3    H238340   1.351   3.372   2.134  0.8352  1.0354 -0.4702
 5617TIP3   OH238341   6.651   6.156  12.681 -0.1896  0.0095  0.4512
 5617TIP3    H138342   6.657   6.251  12.691 -0.5711 -0.0253  1.0592
 5617TIP3    H238343   6.738   6.130  12.650 -0.1074  0.5642  0.2099
 5618TIP3   OH238344   0.493   0.641   3.078  0.0291 -0.1397 -0.0737
 5618TIP3    H138345   0.449   0.719   3.044  0.3292  1.3572  2.6903
 5618TIP3    H238346   0.585   0.667   3.085  0.4299 -1.3315 -0.6338
 5619TIP3   OH238347   1.602   6.477   0.488  0.0384  0.2568 -0.1983
 5619TIP3    H138348   1.630   6.428   0.411  1.3649  0.1427  0.3392
 5619TIP3    H238349   1.640   6.430   0.562 -3.2631 -1.1472  0.8153
 5620TIP3   OH238350   0.637   3.808  14.489  0.4591 -0.1136 -0.2961
 5620TIP3    H138351   0.669   3.855  14.413  1.1751 -2.2469 -1.3871
 5620TIP3    H238352   0.629   3.717  14.460 -0.8589 -0.7118  1.6999
 5621TIP3   OH238353   1.102   3.208  11.974  0.3835 -0.4918 -0.0641
 5621TIP3    H138354   1.178   3.220  11.916  0.9608 -0.8647  0.5983
 5621TIP3    H238355   1.106   3.115  11.999 -0.3350 -0.5293 -0.0822
 5622TIP3   OH238356   2.873   2.541   0.438  0.3343 -0.2479 -0.0013
 5622TIP3    H138357   2.880   2.460   0.388 -1.9087 -1.1358  0.9589
 5622TIP3    H238358   2.787   2.535   0.480  1.9801  0.4263  3.9053
 5623TIP3   OH238359   2.397   5.217   1.730 -0.6260 -0.2953 -0.1453
 5623TIP3    H138360   2.443   5.259   1.657  1.8070 -1.2379  0.7461
 5623TIP3    H238361   2.357   5.290   1.778  3.1638  1.2119  1.1572
 5624TIP3   OH238362   6.435   5.046  13.859  0.3403  0.0059 -0.4820
 5624TIP3    H138363   6.439   5.054  13.764  0.3325  1.6905 -0.3738
 5624TIP3    H238364   6.342   5.053  13.880  0.2520 -1.2242 -0.3874
 5625TIP3   OH238365   4.469   3.110   2.850  0.0575 -0.0596 -0.1611
 5625TIP3    H138366   4.410   3.096   2.923 -1.5671  1.2397 -1.1411
 5625TIP3    H238367   4.500   3.022   2.826 -3.3347 -1.1690 -1.0461
 5626TIP3   OH238368   2.186   1.052  11.924  0.3518  0.1465  0.0808
 5626TIP3    H138369   2.112   1.110  11.943 -0.5358 -0.5794 -1.0506
 5626TIP3    H238370   2.209   1.072  11.834  0.9530 -0.2830  0.1391
 5627TIP3   OH238371   5.252   0.490   2.378  0.3656 -0.3698 -0.2955
 5627TIP3    H138372   5.276   0.425   2.445  1.5403 -0.4682 -0.7790
 5627TIP3    H238373   5.330   0.496   2.323 -0.5214 -0.1701 -1.5639
 5628TIP3   OH238374   6.105   2.779  13.236  0.1088  0.1924 -0.3253
 5628TIP3    H138375   6.130   2.741  13.152 -0.4670  1.3868 -1.0722
 5628TIP3    H238376   6.061   2.861  13.212 -0.6278  0.2394  1.1201
 5629TIP3   OH238377   1.487   5.481   1.237 -0.0921  0.7198 -0.0846
 5629TIP3    H138378   1.478   5.399   1.285  1.5347 -0.0536 -1.0201
 5629TIP3    H238379   1.537   5.538   1.296 -1.7062  1.3049  0.8012
 5630TIP3   OH238380   3.272   1.224  16.653 -0.4518  0.7752  0.4735
 5630TIP3    H138381   3.301   1.133  16.661 -2.3461  0.1918  1.1987
 5630TIP3    H238382   3.246   1.249  16.741  0.3909  2.1755  0.3545
 5631TIP3   OH238383   5.960   2.876   0.509 -0.2508  0.1136  0.0469
 5631TIP3    H138384   5.966   2.944   0.576  1.1493  0.6120 -0.5446
 5631TIP3    H238385   5.943   2.796   0.558  0.2173  0.5522  0.9673
 5632TIP3   OH238386   3.946   4.321   1.173 -0.1219  0.6875 -0.2232
 5632TIP3    H138387   3.992   4.270   1.240 -0.6934  0.4589 -0.0020
 5632TIP3    H238388   3.854   4.301   1.187 -0.2810  1.0459 -0.7485
 5633TIP3   OH238389   3.624   2.419   6.760  0.2537 -0.6277  0.5274
 5633TIP3    H138390   3.625   2.512   6.738  0.9239 -0.3962  1.4673
 5633TIP3    H238391   3.543   2.406   6.809  1.0216 -0.1227  1.9923
 5634TIP3   OH238392   0.633   6.744  15.725 -0.0566 -0.3318 -0.3311
 5634TIP3    H138393   0.699   6.729  15.657  0.1069 -0.3136 -0.1775
 5634TIP3    H238394   0.583   6.820  15.694  0.7232  0.3666  0.0928
 5635TIP3   OH238395   1.893   0.023   6.009  0.0832 -0.6776  0.2976
 5635TIP3    H138396   1.953   0.035   5.936  2.3244 -0.4387  2.0741
 5635TIP3    H238397   1.853   0.109   6.022  1.1846 -0.2010  0.5959
 5636TIP3   OH238398   2.778   4.584  15.361 -0.5814 -0.1123 -0.1207
 5636TIP3    H138399   2.839   4.553  15.429 -1.7612 -1.1884  0.4923
 5636TIP3    H238400   2.728   4.506  15.337 -1.6514  0.7226 -0.6722
 5637TIP3   OH238401   4.964   2.056   2.419 -0.1925 -0.0342  0.4831
 5637TIP3    H138402   4.879   2.014   2.411 -1.0118  1.7099 -0.6478
 5637TIP3    H238403   4.982   2.091   2.332  0.8341  1.1551  1.1322
 5638TIP3   OH238404   2.750   2.313   1.839  0.6028  0.4593  0.3736
 5638TIP3    H138405   2.759   2.239   1.779 -1.7397  1.0158 -0.8058
 5638TIP3    H238406   2.741   2.274   1.925  1.3567 -0.5039  0.0373
 5639TIP3   OH238407   3.357   0.757   1.503 -0.1133  0.7119  0.1418
 5639TIP3    H138408   3.367   0.849   1.529 -0.6576  0.3701  1.6947
 5639TIP3    H238409   3.379   0.708   1.583 -1.5227 -0.4437 -0.1486
 5640TIP3   OH238410   3.416   1.997  12.621  0.2025  0.2418  0.0170
 5640TIP3    H138411   3.485   1.985  12.555 -0.7475  0.8925 -1.1187
 5640TIP3    H238412   3.462   1.985  12.704  1.7629  0.9258 -0.6867
 5641TIP3   OH238413   2.885   1.258   0.748 -0.2608  0.1991  0.2592
 5641TIP3    H138414   2.856   1.285   0.835  2.0304  1.3508  0.7282
 5641TIP3    H238415   2.979   1.248   0.756 -0.1023 -0.5267 -1.8947
 5642TIP3   OH238416   3.527   1.208   0.926  0.0573  0.3712 -0.2314
 5642TIP3    H138417   3.590   1.215   0.854 -0.4165 -0.3313 -0.7299
 5642TIP3    H238418   3.553   1.277   0.987  0.2914  1.1816 -1.2070
 5643TIP3   OH238419   1.053   4.002  14.126 -0.1687  0.6580  0.6023
 5643TIP3    H138420   1.143   3.983  14.150 -0.3742 -0.8485  0.2647
 5643TIP3    H238421   1.058   4.031  14.035 -0.2156 -1.6029 -0.1742
 5644TIP3   OH238422   3.179   3.294  14.810  0.2614 -0.4831  0.3376
 5644TIP3    H138423   3.266   3.290  14.851  0.4325  0.0001  0.0254
 5644TIP3    H238424   3.164   3.205  14.778 -0.0723 -0.9881  1.8370
 5645TIP3   OH238425   0.613   5.381   3.431  0.0579 -0.3078  0.9417
 5645TIP3    H138426   0.675   5.309   3.415  0.4816  0.2796 -0.1753
 5645TIP3    H238427   0.648   5.454   3.380 -0.7535  0.4881  1.4966
 5646TIP3   OH238428   3.930   3.040  14.944  0.1477 -0.4870  0.1742
 5646TIP3    H138429   3.879   2.983  14.886  1.3551  0.3497 -1.7875
 5646TIP3    H238430   4.012   2.993  14.958  0.7247  0.2758 -0.5909
 5647TIP3   OH238431   4.631   0.951  15.738 -0.1571  0.1734  0.1296
 5647TIP3    H138432   4.612   1.038  15.703 -1.6825  0.6707  2.0095
 5647TIP3    H238433   4.603   0.891  15.669 -0.9402  1.1460 -0.4280
 5648TIP3   OH238434   1.567   0.472   3.418 -0.7879 -0.4341 -0.6269
 5648TIP3    H138435   1.524   0.482   3.332 -3.5382 -1.0103  0.5669
 5648TIP3    H238436   1.494   0.461   3.479  1.0743  0.6583  1.9137
 5649TIP3   OH238437   0.425   1.439   1.967  0.7368 -1.1261 -0.1519
 5649TIP3    H138438   0.417   1.527   1.932 -0.1787 -0.9028  0.5718
 5649TIP3    H238439   0.467   1.389   1.897  1.2671 -0.1270 -0.5694
 5650TIP3   OH238440   3.888   3.421  15.680 -0.0624  0.4141 -0.5216
 5650TIP3    H138441   3.860   3.508  15.707  0.0035  0.5080 -0.7482
 5650TIP3    H238442   3.968   3.436  15.629 -1.8313  0.5628 -3.4413
 5651TIP3   OH238443   1.815   6.078   2.102 -0.2145 -0.4882  0.5672
 5651TIP3    H138444   1.863   6.161   2.107  0.5529 -0.8683 -0.1419
 5651TIP3    H238445   1.730   6.096   2.142  0.0627  0.5471  0.7095
 5652TIP3   OH238446   0.036   2.778  13.153  0.2176 -0.1223  0.3969
 5652TIP3    H138447   0.131   2.778  13.162  0.6876 -1.7442 -3.0580
 5652TIP3    H238448   0.017   2.855  13.099 -0.7891  1.4074  2.7598
 5653TIP3   OH238449   2.773   2.427  15.782 -0.7404 -1.1713  0.2209
 5653TIP3    H138450   2.697   2.465  15.825  0.7055 -0.8052  2.6204
 5653TIP3    H238451   2.805   2.496  15.724 -1.8579 -1.1348 -0.3858
 5654TIP3   OH238452   3.455   1.294   2.436  0.3330 -0.6405  0.5169
 5654TIP3    H138453   3.503   1.290   2.353  0.6422  2.2525  0.4865
 5654TIP3    H238454   3.364   1.275   2.411  0.2339  1.2420 -0.7123
 5655TIP3   OH238455   1.195   3.611   5.890  0.3174  0.2647 -0.6503
 5655TIP3    H138456   1.251   3.654   5.954 -0.3486  1.2770 -0.7324
 5655TIP3    H238457   1.239   3.623   5.806  0.4829  0.1654 -0.5784
 5656TIP3   OH238458   4.443   3.937   4.564  0.1047  0.2059 -0.0315
 5656TIP3    H138459   4.525   3.889   4.566 -0.1449 -0.2674 -0.7290
 5656TIP3    H238460   4.401   3.916   4.648  0.3633 -0.1325  0.0160
 5657TIP3   OH238461   4.258   0.107   2.998 -0.3686 -0.2106 -0.3607
 5657TIP3    H138462   4.309   0.075   3.072 -1.1668 -1.5291 -0.3633
 5657TIP3    H238463   4.310   0.085   2.921 -1.2386 -2.2820 -0.4196
 5658TIP3   OH238464   4.771   3.818  13.700 -0.0622  0.1396 -0.6485
 5658TIP3    H138465   4.787   3.757  13.627 -3.0687 -0.2625 -1.1210
 5658TIP3    H238466   4.829   3.892  13.682  1.0933 -1.0281 -2.0543
 5659TIP3   OH238467   1.814   5.902  13.419  1.0078  0.8190 -0.0617
 5659TIP3    H138468   1.755   5.872  13.349  0.4095  1.6543  0.0756
 5659TIP3    H238469   1.770   5.978  13.457  0.6970 -0.3230  2.0615
 5660TIP3   OH238470   4.366   2.915   2.386 -0.3581  0.2926  0.1042
 5660TIP3    H138471   4.450   2.961   2.389  0.4132 -1.0333 -0.1332
 5660TIP3    H238472   4.334   2.918   2.476  0.6643 -0.4001  0.5185
 5661TIP3   OH238473   5.149   2.797   2.578  0.6172  0.3626  0.7216
 5661TIP3    H138474   5.156   2.826   2.669  0.3465  0.9842  0.5475
 5661TIP3    H238475   5.076   2.847   2.543  1.0958  0.5685 -0.0024
 5662TIP3   OH238476   2.521   5.699  11.621 -0.3727  0.4817  0.4167
 5662TIP3    H138477   2.447   5.674  11.676  1.2849 -0.5773  2.2921
 5662TIP3    H238478   2.525   5.794  11.627 -0.7579  0.4425  1.4468
 5663TIP3   OH238479   6.537   0.306  11.279  0.2668 -0.4859 -0.0121
 5663TIP3    H138480   6.534   0.302  11.184 -0.7033 -1.0590  0.0290
 5663TIP3    H238481   6.448   0.332  11.304  0.0824 -1.8381  0.7985
 5664TIP3   OH238482   1.021   6.350  11.373  0.4661  0.1344 -0.5974
 5664TIP3    H138483   0.933   6.383  11.391  0.1466  1.4415 -3.9414
 5664TIP3    H238484   1.080   6.414  11.415  0.0171 -1.5318  2.9620
 5665TIP3   OH238485   0.687   2.051   3.782  0.1213 -0.7401 -0.4354
 5665TIP3    H138486   0.642   1.970   3.757  0.6396 -0.8513 -1.0330
 5665TIP3    H238487   0.747   2.025   3.852  0.8830 -1.0442 -1.1911
 5666TIP3   OH238488   6.660   6.515   5.265 -0.0596 -0.6105 -0.4335
 5666TIP3    H138489   6.728   6.468   5.313  1.4671  2.5146  0.7460
 5666TIP3    H238490   6.708   6.565   5.199 -1.3948  0.3227 -0.7427
 5667TIP3   OH238491   0.951   5.557   3.421 -0.0291 -0.3407  0.0531
 5667TIP3    H138492   0.992   5.606   3.349 -0.4826  1.0155  0.6738
 5667TIP3    H238493   0.920   5.476   3.381  1.4847 -0.5130 -0.8497
 5668TIP3   OH238494   2.557   4.395  12.981  0.5664 -0.2818 -0.2064
 5668TIP3    H138495   2.650   4.379  12.964  0.8972  1.7920 -0.6087
 5668TIP3    H238496   2.512   4.354  12.907  1.5789  3.0968 -2.9528
 5669TIP3   OH238497   4.786   0.019  11.237 -0.4298  0.2904  1.0085
 5669TIP3    H138498   4.694  -0.006  11.229 -0.5647  0.7816  0.9695
 5669TIP3    H238499   4.833  -0.041  11.180 -0.9213  1.1581 -0.3695
 5670TIP3   OH238500   6.160   0.074   2.767 -0.5808 -0.1991 -0.1665
 5670TIP3    H138501   6.214   0.053   2.843 -1.2295 -0.0748  0.3372
 5670TIP3    H238502   6.221   0.112   2.704 -0.1785  0.4463  0.5954
 5671TIP3   OH238503   0.622   5.792   2.978  0.5883  0.4444  0.0999
 5671TIP3    H138504   0.533   5.814   3.006  0.5638 -0.2694  0.6293
 5671TIP3    H238505   0.645   5.858   2.914 -0.7034  0.0522 -0.7953
 5672TIP3   OH238506   1.687   0.587  13.218  0.5650  0.3532  0.6063
 5672TIP3    H138507   1.606   0.548  13.253  0.5316 -1.6872 -1.5086
 5672TIP3    H238508   1.657   0.643  13.147  0.9039  1.4055  1.2670
 5673TIP3   OH238509   5.163   1.506   1.333 -0.2793  0.5628 -0.4630
 5673TIP3    H138510   5.248   1.496   1.291 -0.3707 -1.3711 -0.3132
 5673TIP3    H238511   5.103   1.524   1.261  0.1461  1.2092 -0.6619
 5674TIP3   OH238512   3.774   2.979   0.088  0.0357  0.6897 -0.1988
 5674TIP3    H138513   3.785   2.886   0.069 -0.1633  0.4030  1.0175
 5674TIP3    H238514   3.763   3.020   0.002  0.3175 -0.3809 -0.7580
 5675TIP3   OH238515   3.808   2.065  14.674 -0.0162 -0.0963  0.6126
 5675TIP3    H138516   3.777   1.977  14.696  1.2289 -1.1611 -1.5236
 5675TIP3    H238517   3.861   2.091  14.750  1.3570 -2.1334  0.4398
 5676TIP3   OH238518   4.153   1.603  16.130  0.1438  0.4646  0.2968
 5676TIP3    H138519   4.174   1.574  16.218  1.7556  1.8197  0.3983
 5676TIP3    H238520   4.197   1.540  16.073  0.4493  0.5173  0.4742
 5677TIP3   OH238521   0.244   2.910   4.864 -0.4598 -0.5002 -0.0355
 5677TIP3    H138522   0.239   2.974   4.935 -1.3834 -0.7132  0.1064
 5677TIP3    H238523   0.323   2.934   4.815  1.0733 -1.2584  1.9249
 5678TIP3   OH238524   0.782   3.102   4.470  0.2351  0.5246  0.4396
 5678TIP3    H138525   0.827   3.055   4.540  0.4273  0.5564  0.3374
 5678TIP3    H238526   0.724   3.163   4.516 -0.8874 -0.6014  0.5839
 5679TIP3   OH238527   1.536   4.316   3.555  0.5467 -0.0121 -0.6892
 5679TIP3    H138528   1.536   4.268   3.638 -0.1112  1.2290  0.0707
 5679TIP3    H238529   1.531   4.408   3.582  0.9434  0.4419 -2.1039
 5680TIP3   OH238530   6.456   5.766   3.445  0.3533 -0.4248  0.2955
 5680TIP3    H138531   6.452   5.731   3.356 -0.3768  0.1785  0.0813
 5680TIP3    H238532   6.549   5.758   3.470  0.5153 -0.8337 -0.4144
 5681TIP3   OH238533   5.300   1.538  17.050  0.1389  0.5984  0.1963
 5681TIP3    H138534   5.291   1.603  17.119  0.5392  0.8084  0.0538
 5681TIP3    H238535   5.210   1.517  17.025 -0.0032  1.6358 -0.2491
 5682TIP3   OH238536   5.755   5.862   4.575 -0.0415 -0.4987 -0.0043
 5682TIP3    H138537   5.758   5.922   4.650 -3.1061 -0.4558  0.1962
 5682TIP3    H238538   5.767   5.775   4.613 -1.5617 -0.4757  0.6092
 5683TIP3   OH238539   0.765   4.376   5.111 -0.6024 -0.1054  0.2121
 5683TIP3    H138540   0.801   4.462   5.088  0.2258 -0.5656 -0.2628
 5683TIP3    H238541   0.782   4.368   5.205 -0.8807  0.3341  0.3049
 5684TIP3   OH238542   0.341   5.871  12.905 -0.0043 -0.3238  0.1874
 5684TIP3    H138543   0.361   5.865  12.811  1.8962 -0.3959  0.5594
 5684TIP3    H238544   0.422   5.845  12.948 -0.8885 -0.3988  1.8711
 5685TIP3   OH238545   0.971   0.136   3.158  0.1937 -0.2375  0.5119
 5685TIP3    H138546   0.902   0.093   3.108  0.6078 -0.8301  0.4422
 5685TIP3    H238547   1.043   0.145   3.095  0.5611 -0.5909  0.8824
 5686TIP3   OH238548   3.459   0.892  13.079 -0.1759 -0.2576 -0.0701
 5686TIP3    H138549   3.516   0.823  13.046 -1.5272 -1.1680 -0.5814
 5686TIP3    H238550   3.437   0.866  13.168  2.5029  1.5985  1.2870
 5687TIP3   OH238551   0.244   0.428   4.853  0.1269 -0.6706 -0.0659
 5687TIP3    H138552   0.269   0.516   4.824 -1.1495  0.0299  0.8686
 5687TIP3    H238553   0.312   0.403   4.916 -0.7845  0.7015  1.5301
 5688TIP3   OH238554   2.587   5.574   2.759  0.7400  0.2234 -0.7265
 5688TIP3    H138555   2.647   5.518   2.710  1.5078  0.0158  0.4280
 5688TIP3    H238556   2.609   5.559   2.851 -0.4056  0.9079 -0.3220
 5689TIP3   OH238557   0.626   6.473  13.388  0.2199 -0.4098  0.1304
 5689TIP3    H138558   0.679   6.453  13.311 -0.4871 -1.9191 -0.0016
 5689TIP3    H238559   0.687   6.465  13.461  0.6164 -0.1910 -0.1704
 5690TIP3   OH238560   6.380   1.051  16.552  0.7213 -0.0211 -0.3354
 5690TIP3    H138561   6.368   1.046  16.457 -1.6473 -0.7927 -0.0625
 5690TIP3    H238562   6.430   0.973  16.575  0.3926 -0.3804 -0.8321
 5691TIP3   OH238563   1.562   3.989  15.649  0.5155 -0.1777  0.7106
 5691TIP3    H138564   1.502   3.958  15.581 -0.0893 -0.1862  1.2444
 5691TIP3    H238565   1.604   4.066  15.611  0.7321 -0.6149  0.0455
 5692TIP3   OH238566   0.846   4.413  15.888  0.2485  0.0785 -0.6535
 5692TIP3    H138567   0.776   4.436  15.950 -0.4758  0.9113 -1.7363
 5692TIP3    H238568   0.922   4.463  15.918  0.0946 -0.0190 -0.0781
 5693TIP3   OH238569   5.869   1.970  12.381  0.3292  0.1450 -0.7232
 5693TIP3    H138570   5.799   1.976  12.446 -0.0600  3.0964 -1.2561
 5693TIP3    H238571   5.933   2.037  12.408  1.5804 -0.5681 -1.7819
 5694TIP3   OH238572   1.603   2.710  13.187 -0.2985 -0.2330  0.2387
 5694TIP3    H138573   1.677   2.666  13.145  0.0450  0.4215  0.1383
 5694TIP3    H238574   1.623   2.706  13.281 -0.6765 -1.0052  0.2900
 5695TIP3   OH238575   0.278   6.266  15.708 -0.0788 -0.0247 -0.4461
 5695TIP3    H138576   0.187   6.250  15.686 -0.6676 -0.5705  2.0014
 5695TIP3    H238577   0.278   6.352  15.751  0.7647  0.4780 -1.4124
 5696TIP3   OH238578   5.652   0.099  14.200 -0.3866 -0.0087  0.4723
 5696TIP3    H138579   5.700   0.035  14.252 -0.0173  1.7061  2.4109
 5696TIP3    H238580   5.651   0.178  14.255 -3.9093  0.5777 -0.2119
 5697TIP3   OH238581   2.051   4.299  13.584 -0.1898 -0.1924  0.3154
 5697TIP3    H138582   2.116   4.347  13.534 -1.9569  1.8383 -0.1904
 5697TIP3    H238583   2.057   4.209  13.552  0.6498  0.4801 -1.5334
 5698TIP3   OH238584   5.795   0.528  16.685 -0.3953  0.7811 -0.3917
 5698TIP3    H138585   5.831   0.441  16.670 -0.2749  0.9054 -0.8414
 5698TIP3    H238586   5.859   0.572  16.741 -1.5538 -0.1896  1.8094
 5699TIP3   OH238587   0.545   5.088  12.720  0.0884 -0.3109  0.3685
 5699TIP3    H138588   0.594   5.160  12.761 -1.9275  0.0648  2.2958
 5699TIP3    H238589   0.490   5.131  12.655 -0.2918 -0.2504  0.7275
 5700TIP3   OH238590   1.059   1.125  16.544  0.0508  0.5712 -0.3382
 5700TIP3    H138591   1.039   1.215  16.518  1.3611  0.7485 -0.7917
 5700TIP3    H238592   1.126   1.134  16.612 -0.5141 -0.0457  0.3239
 5701TIP3   OH238593   0.257   5.344  16.299  0.5457 -0.1091 -0.0834
 5701TIP3    H138594   0.294   5.292  16.370  1.3193 -0.5043 -0.7596
 5701TIP3    H238595   0.212   5.415  16.343 -0.5691 -1.3591  0.8659
 5702TIP3   OH238596   4.366   2.461   5.743 -0.2992 -0.2087 -0.2178
 5702TIP3    H138597   4.334   2.416   5.822  0.7217  0.4339  0.5917
 5702TIP3    H238598   4.424   2.397   5.701  0.0736 -0.1409  0.1895
 5703TIP3   OH238599   0.035   5.996   4.690 -0.3872  0.5554 -0.1780
 5703TIP3    H138600   0.025   5.928   4.756  0.1885  1.4839  0.9152
 5703TIP3    H238601   0.096   5.959   4.626 -0.4720 -0.1384  0.1400
 5704TIP3   OH238602   2.582   4.906   0.701  0.5757 -0.2066 -0.3753
 5704TIP3    H138603   2.550   4.821   0.670  0.1018 -0.3097  0.3660
 5704TIP3    H238604   2.677   4.898   0.701  0.5205 -1.2386  1.0175
 5705TIP3   OH238605   1.894   2.812  14.044 -0.1061 -0.3510 -0.2442
 5705TIP3    H138606   1.890   2.820  13.949 -0.7926  3.0730 -0.0568
 5705TIP3    H238607   1.851   2.891  14.077  0.3012 -1.3001  2.9262
 5706TIP3   OH238608   0.467   5.270   3.111  0.4023 -0.0385  0.3925
 5706TIP3    H138609   0.373   5.253   3.115  0.5857 -1.2451  0.0088
 5706TIP3    H238610   0.474   5.358   3.073 -0.5622  0.2276  0.7916
 5707TIP3   OH238611   3.062   4.711   2.505  0.0792  0.0384  0.0686
 5707TIP3    H138612   3.001   4.785   2.503 -2.4446 -1.8585 -2.8157
 5707TIP3    H238613   3.120   4.726   2.430 -0.1113 -0.6124 -0.2140
 5708TIP3   OH238614   1.755   4.459  12.317  0.1229 -0.2207 -0.0032
 5708TIP3    H138615   1.716   4.474  12.403 -1.3582  0.7092 -0.7879
 5708TIP3    H238616   1.688   4.410  12.269  0.7183 -0.2666 -0.8034
 5709TIP3   OH238617   2.220   5.846   0.551  0.1346  0.0652 -0.1165
 5709TIP3    H138618   2.246   5.929   0.512 -0.8286  1.0795  1.3154
 5709TIP3    H238619   2.269   5.841   0.633  0.3950 -0.9293 -0.3086
 5710TIP3   OH238620   0.954   0.943   1.615 -0.8229 -0.1232  0.1883
 5710TIP3    H138621   0.875   0.889   1.605  0.1852 -1.4227 -1.1862
 5710TIP3    H238622   0.989   0.918   1.700 -0.9926 -0.8090  0.0635
 5711TIP3   OH238623   5.619   0.473  12.027  0.0385  0.5244 -0.3132
 5711TIP3    H138624   5.566   0.414  11.974 -0.2817  1.2452 -0.8189
 5711TIP3    H238625   5.557   0.536  12.063  0.2721  0.1349  0.8166
 5712TIP3   OH238626   6.781   3.070  11.116  0.7683  0.0317 -0.2912
 5712TIP3    H138627   6.833   2.992  11.136  0.7164  0.0974  0.1025
 5712TIP3    H238628   6.724   3.042  11.044 -0.5644 -0.8763  1.0637
 5713TIP3   OH238629   1.240   4.469  12.612  0.3678  0.0120 -0.3842
 5713TIP3    H138630   1.282   4.391  12.646  2.0401  1.4668  1.1003
 5713TIP3    H238631   1.282   4.541  12.659 -0.6786  1.8452 -2.1063
 5714TIP3   OH238632   6.374   4.273   1.863 -0.2312  0.5659  0.0369
 5714TIP3    H138633   6.354   4.208   1.795  0.6993 -0.1155  0.3872
 5714TIP3    H238634   6.308   4.341   1.851 -1.6602 -0.7458  0.0615
 5715TIP3   OH238635   0.989   2.726   4.575 -0.1599  0.5153 -0.1603
 5715TIP3    H138636   1.048   2.701   4.504  2.2545 -0.7110  2.0854
 5715TIP3    H238637   0.923   2.657   4.577 -0.5003  0.7860 -1.4377
 5716TIP3   OH238638   6.790   4.688  11.708  0.4201 -0.2811  0.1987
 5716TIP3    H138639   6.835   4.614  11.749 -0.3476 -0.4595  0.7464
 5716TIP3    H238640   6.725   4.716  11.773  0.3998  0.5957 -0.1782
 5717TIP3   OH238641   1.390   0.769   0.023 -0.3133  0.1365 -0.0842
 5717TIP3    H138642   1.380   0.708   0.096  1.2808  0.3044  0.3089
 5717TIP3    H238643   1.307   0.764  -0.025 -1.7306  0.6240  2.1712
 5718TIP3   OH238644   0.522   1.703   0.907  0.2060 -0.2630  0.9525
 5718TIP3    H138645   0.596   1.643   0.914  0.6098 -0.0823 -1.1356
 5718TIP3    H238646   0.560   1.785   0.874 -0.5141  0.7895  2.6093
 5719TIP3   OH238647   5.279   0.837  16.990  0.3919  0.1523  0.3092
 5719TIP3    H138648   5.201   0.877  16.952 -0.8409 -1.7259  0.7460
 5719TIP3    H238649   5.346   0.906  16.985 -0.9987  1.4875 -0.9656
 5720TIP3   OH238650   0.996   1.550   0.202 -0.1984 -0.4591 -0.7579
 5720TIP3    H138651   1.039   1.632   0.178 -0.7416 -0.4939 -1.9159
 5720TIP3    H238652   1.043   1.483   0.153  0.1370 -0.8325  0.0557
 5721TIP3   OH238653   6.320   3.382   3.528  0.1494 -0.7669 -0.1789
 5721TIP3    H138654   6.397   3.325   3.522 -0.5551 -1.7103 -0.3949
 5721TIP3    H238655   6.313   3.401   3.622  0.8741 -0.3441 -0.2003
 5722TIP3   OH238656   4.814   2.854   0.372 -0.4239  0.5700 -0.2818
 5722TIP3    H138657   4.861   2.905   0.306  0.3560  0.5737  0.2698
 5722TIP3    H238658   4.859   2.873   0.454  1.4103 -2.7208 -0.3433
 5723TIP3   OH238659   4.059   0.899   3.766  0.1642 -0.1464 -0.7112
 5723TIP3    H138660   4.044   0.816   3.813  1.3754 -0.4230 -0.7876
 5723TIP3    H238661   3.978   0.948   3.778 -0.4790 -1.2431 -0.4509
 5724TIP3   OH238662   2.528   0.233  12.906  0.3263 -0.6184  0.4981
 5724TIP3    H138663   2.452   0.187  12.870 -0.3878 -1.2629  2.6571
 5724TIP3    H238664   2.492   0.287  12.977  1.6232  0.6970  0.2109
 5725TIP3   OH238665   6.177   0.271   5.828 -0.7380 -0.0972  0.2652
 5725TIP3    H138666   6.269   0.254   5.809 -0.1438  1.7217  1.3129
 5725TIP3    H238667   6.165   0.240   5.917 -1.7413 -2.2626 -0.5491
 5726TIP3   OH238668   0.163   0.791   4.529 -0.7255  0.5936  0.0544
 5726TIP3    H138669   0.123   0.751   4.452 -1.8722  1.2143  0.3108
 5726TIP3    H238670   0.239   0.838   4.495  0.2472 -1.1881 -0.3474
 5727TIP3   OH238671   4.104   1.948  14.619 -0.1561 -0.0053 -0.1519
 5727TIP3    H138672   4.037   1.879  14.621  0.4634 -0.6064  0.5230
 5727TIP3    H238673   4.059   2.027  14.649 -1.0909  0.1059 -1.7194
 5728TIP3   OH238674   2.950   2.631   3.976 -0.0942 -0.3886  0.0379
 5728TIP3    H138675   2.942   2.568   3.904  2.1634  0.3981 -1.0101
 5728TIP3    H238676   2.870   2.684   3.970  0.0617 -0.2948 -1.9667
 5729TIP3   OH238677   1.628   5.986  15.853  0.0586  0.5056  0.2436
 5729TIP3    H138678   1.624   5.908  15.798 -2.9920 -0.2439  1.3607
 5729TIP3    H238679   1.681   5.960  15.928  2.9838  1.0773 -1.4586
 5730TIP3   OH238680   2.469   0.441   3.322  0.0480 -0.3231 -0.2835
 5730TIP3    H138681   2.537   0.385   3.359 -0.2872 -0.9093 -0.5442
 5730TIP3    H238682   2.387   0.393   3.336 -0.0078 -0.9297 -2.4513
 5731TIP3   OH238683   3.938   1.814   2.435 -0.4692  0.6362 -0.2135
 5731TIP3    H138684   3.881   1.860   2.496 -0.9662 -0.6477  0.3095
 5731TIP3    H238685   3.935   1.723   2.462  0.2052  0.2152 -1.4572
 5732TIP3   OH238686   4.664   4.545   3.917 -0.4819  0.2587  0.0191
 5732TIP3    H138687   4.684   4.592   3.998  1.0804 -0.8208  0.2920
 5732TIP3    H238688   4.727   4.578   3.853 -1.5937  0.9782 -0.7444
 5733TIP3   OH238689   2.399   1.018   3.159  0.3433  0.5006  0.4242
 5733TIP3    H138690   2.492   1.005   3.179  0.1996 -1.5025 -0.0240
 5733TIP3    H238691   2.355   1.002   3.243  0.2403 -1.2265  0.0767
 5734TIP3   OH238692   1.166   2.034   4.408  0.4779 -0.3235 -0.0290
 5734TIP3    H138693   1.138   1.965   4.348 -2.3773  0.7865 -0.1530
 5734TIP3    H238694   1.196   1.988   4.486  0.0296 -1.7365 -0.6664
 5735TIP3   OH238695   3.737   0.153   4.901  0.2641  0.2788 -0.6934
 5735TIP3    H138696   3.814   0.206   4.918 -0.6368  1.2677  0.4704
 5735TIP3    H238697   3.682   0.207   4.845  1.2788 -1.2505 -3.3266
 5736TIP3   OH238698   6.302   1.902  14.636 -1.1955  0.0506  0.3337
 5736TIP3    H138699   6.292   1.920  14.729 -2.4915  1.4022 -0.0356
 5736TIP3    H238700   6.392   1.871  14.627  0.1162  3.1129  1.5904
 5737TIP3   OH238701   3.602   3.497  16.928 -0.2328  0.1908 -0.0036
 5737TIP3    H138702   3.565   3.522  17.012  0.7070 -0.8060  0.7338
 5737TIP3    H238703   3.552   3.547  16.864  0.5517  2.7797  1.2672
 5738TIP3   OH238704   5.560   1.868  11.355  0.0326 -0.3161 -1.0838
 5738TIP3    H138705   5.601   1.792  11.312 -0.8303  0.0021 -2.5166
 5738TIP3    H238706   5.484   1.832  11.401 -0.5454 -0.2972 -2.0046
 5739TIP3   OH238707   5.130   4.775  16.276  0.4109 -0.0586  0.1346
 5739TIP3    H138708   5.080   4.828  16.214 -0.1497  0.5870  1.1090
 5739TIP3    H238709   5.132   4.687  16.237 -0.6527  0.1391 -0.3977
 5740TIP3   OH238710   2.143   3.900   6.046  0.1126 -1.1889  0.1413
 5740TIP3    H138711   2.130   3.809   6.069 -0.3276 -0.7892  1.5975
 5740TIP3    H238712   2.152   3.945   6.130 -0.0559  0.1630 -0.5297
 5741TIP3   OH238713   0.954   0.783  12.257  0.0705  0.1918 -0.3221
 5741TIP3    H138714   0.978   0.870  12.288  1.0124 -0.2636  0.2691
 5741TIP3    H238715   1.034   0.731  12.264 -0.9013 -1.2398  1.2017
 5742TIP3   OH238716   1.212   5.355  10.943 -0.2393  0.5969 -0.3404
 5742TIP3    H138717   1.161   5.417  10.996 -2.4093  0.2935 -1.9226
 5742TIP3    H238718   1.234   5.404  10.864 -0.7469 -0.1824 -0.9869
 5743TIP3   OH238719   0.801   2.403  12.191  0.1653  0.1961  0.1120
 5743TIP3    H138720   0.862   2.473  12.166  2.2024 -1.9038 -1.1544
 5743TIP3    H238721   0.846   2.357  12.262 -1.9635  1.1679  2.2114
 5744TIP3   OH238722   3.073   4.162  16.906 -0.1817 -0.4537  0.2355
 5744TIP3    H138723   3.071   4.214  16.825 -2.9018  1.1717  1.1976
 5744TIP3    H238724   3.079   4.072  16.876 -1.3841  0.0724 -1.8385
 5745TIP3   OH238725   4.090   5.993   3.782  0.1379  0.6872 -0.1344
 5745TIP3    H138726   4.011   6.035   3.748  0.1213  0.2165 -0.6978
 5745TIP3    H238727   4.159   6.016   3.720  0.1153 -0.1452 -0.4838
 5746TIP3   OH238728   0.842   1.783   0.412  0.3012  0.2834 -0.1193
 5746TIP3    H138729   0.927   1.781   0.369  0.6147  0.5615  0.4684
 5746TIP3    H238730   0.862   1.788   0.506 -0.3463  0.9458  0.0039
 5747TIP3   OH238731   6.157   5.648   3.946  0.1257 -0.2890 -0.5997
 5747TIP3    H138732   6.168   5.556   3.970  1.1601 -0.2575 -0.9224
 5747TIP3    H238733   6.222   5.663   3.877 -1.2903  0.1895 -1.9045
 5748TIP3   OH238734   4.512   6.765  11.195  0.8336 -0.1007  0.6824
 5748TIP3    H138735   4.434   6.801  11.154  1.2603  0.4343  0.3361
 5748TIP3    H238736   4.515   6.674  11.164  0.9595  0.1967 -0.1917
 5749TIP3   OH238737   5.471   3.738  14.758  0.0411 -0.0565 -0.5740
 5749TIP3    H138738   5.448   3.677  14.828  2.6162  0.3655  0.7339
 5749TIP3    H238739   5.395   3.797  14.753 -0.3240 -0.2153  1.7569
 5750TIP3   OH238740   0.916   0.098   1.448  0.9612  0.3414  0.2475
 5750TIP3    H138741   0.961   0.014   1.444  0.3765  0.0746 -1.4849
 5750TIP3    H238742   0.918   0.131   1.358 -1.9382  0.4646  0.1282
 5751TIP3   OH238743   4.538   2.114   0.613 -0.2095  0.3967 -0.1383
 5751TIP3    H138744   4.564   2.141   0.701 -1.4421 -0.6379  0.5781
 5751TIP3    H238745   4.444   2.101   0.619 -0.4177  0.9561 -1.8030
 5752TIP3   OH238746   1.896   1.002   0.511  0.1482  0.5943  0.2824
 5752TIP3    H138747   1.822   0.946   0.488  1.5982 -0.4448 -2.2144
 5752TIP3    H238748   1.858   1.090   0.516 -1.3356  0.0510 -0.6053
 5753TIP3   OH238749   4.153   5.424  15.652  1.0728 -0.0020  0.3081
 5753TIP3    H138750   4.116   5.424  15.741 -1.4224  0.8812 -0.6455
 5753TIP3    H238751   4.090   5.372  15.600  0.1575  2.8978 -1.7296
 5754TIP3   OH238752   5.826   3.837  16.627  0.6155  0.6464 -0.0365
 5754TIP3    H138753   5.838   3.917  16.678  0.4183  0.3329  0.5094
 5754TIP3    H238754   5.915   3.804  16.613  0.6084 -0.2046  1.6328
 5755TIP3   OH238755   4.443   5.126   5.035 -0.0495 -0.4285 -0.4195
 5755TIP3    H138756   4.419   5.201   4.981 -0.0576 -0.0903  0.0534
 5755TIP3    H238757   4.523   5.092   4.994 -0.8850 -1.1036 -1.5524
 5756TIP3   OH238758   3.713   1.881   5.307  0.2853  0.3956  0.3676
 5756TIP3    H138759   3.652   1.888   5.233  1.0809  2.0369 -0.1760
 5756TIP3    H238760   3.777   1.950   5.292  1.7051 -0.6175  1.4816
 5757TIP3   OH238761   4.513   0.327   0.879  0.0150  0.9674 -0.4097
 5757TIP3    H138762   4.527   0.335   0.973  0.9004  0.9102 -0.5222
 5757TIP3    H238763   4.422   0.351   0.866 -0.0434  1.2391  0.4308
 5758TIP3   OH238764   0.223   2.696   2.423  0.0868  0.1405  0.3400
 5758TIP3    H138765   0.257   2.735   2.503  0.6715 -0.8670  0.6015
 5758TIP3    H238766   0.285   2.723   2.355 -0.0393  0.4494  0.3490
 5759TIP3   OH238767   5.970   3.534   0.600  0.0240 -0.2763  0.7034
 5759TIP3    H138768   5.960   3.629   0.611  2.2915  0.0947  0.1156
 5759TIP3    H238769   6.056   3.515   0.638  0.2408 -1.8465 -0.5030
 5760TIP3   OH238770   0.300   0.881  16.064 -0.8869  0.2455  0.1268
 5760TIP3    H138771   0.348   0.963  16.050  1.3100 -0.5273  2.4122
 5760TIP3    H238772   0.207   0.907  16.059 -0.3169  2.2430 -2.1328
 5761TIP3   OH238773   5.522   0.222  13.968 -0.3257 -0.0796  0.5251
 5761TIP3    H138774   5.575   0.198  14.044  0.1672  1.0215  0.5474
 5761TIP3    H238775   5.571   0.294  13.927 -1.6366  0.7396  0.3501
 5762TIP3   OH238776   0.751   4.830  16.970 -0.6774 -0.4020 -0.6547
 5762TIP3    H138777   0.819   4.771  16.936 -0.9750 -0.3574 -1.3304
 5762TIP3    H238778   0.784   4.918  16.951 -0.8485 -0.3774 -0.8345
 5763TIP3   OH238779   0.066   3.239   0.771 -0.4865  0.1105 -0.1117
 5763TIP3    H138780  -0.002   3.237   0.704 -0.8712  0.1141  0.2757
 5763TIP3    H238781   0.046   3.316   0.823  0.5128  0.8032 -0.7062
 5764TIP3   OH238782   2.748   3.292   0.324  0.6709 -0.1221  0.2245
 5764TIP3    H138783   2.686   3.228   0.290 -0.6943  1.7476 -1.0164
 5764TIP3    H238784   2.694   3.351   0.378  1.0822  2.0741 -1.6120
 5765TIP3   OH238785   6.706   0.079  16.048 -0.2348  0.1398  0.0436
 5765TIP3    H138786   6.680   0.123  15.967 -0.4828  1.5489  0.8638
 5765TIP3    H238787   6.800   0.094  16.054  0.0441 -1.1871 -0.6849
 5766TIP3   OH238788   3.892   5.977  17.109 -0.6745 -0.2377 -0.0390
 5766TIP3    H138789   3.838   5.936  17.041  1.0680  2.3657 -3.2826
 5766TIP3    H238790   3.979   5.938  17.097 -0.0703  1.1125 -0.1950
 5767TIP3   OH238791   0.209   3.336  14.212  0.0795 -0.2440 -0.3626
 5767TIP3    H138792   0.152   3.260  14.211 -0.5543  0.1471  1.2976
 5767TIP3    H238793   0.163   3.400  14.267  2.0619  0.1130  1.0216
 5768TIP3   OH238794   5.535   2.174  12.285  0.3899 -0.5712 -0.4411
 5768TIP3    H138795   5.504   2.087  12.308 -0.6094 -0.5000 -1.4606
 5768TIP3    H238796   5.540   2.221  12.368  3.6456 -2.3724  0.5693
 5769TIP3   OH238797   0.114   0.980  17.182  0.2420 -0.0125  0.0224
 5769TIP3    H138798   0.042   0.918  17.170 -0.9167  1.1913  0.4489
 5769TIP3    H238799   0.161   0.947  17.258 -0.1247 -0.5690  0.0187
 5770TIP3   OH238800   2.166   1.933   1.607  0.1754 -0.0664 -0.0284
 5770TIP3    H138801   2.165   2.026   1.587 -3.4038  0.1626  0.5666
 5770TIP3    H238802   2.075   1.911   1.625  0.6070 -4.0327 -1.5842
 5771TIP3   OH238803   4.180   4.849   4.483  0.5022  0.4676  0.5368
 5771TIP3    H138804   4.266   4.843   4.441  0.5513 -0.0300  0.7011
 5771TIP3    H238805   4.193   4.909   4.556  0.6470  0.5997  0.4034
 5772TIP3   OH238806   0.723   3.941   0.830 -0.9332 -0.1796  0.3857
 5772TIP3    H138807   0.703   3.851   0.855 -2.3657 -0.0375 -0.1363
 5772TIP3    H238808   0.707   3.943   0.735 -0.0220  0.3989  0.2365
 5773TIP3   OH238809   4.705   4.176  11.082 -0.6808  0.1303 -0.7247
 5773TIP3    H138810   4.703   4.131  10.998 -0.5659 -1.9056  0.3072
 5773TIP3    H238811   4.710   4.106  11.147 -1.1065  1.6259  1.0063
 5774TIP3   OH238812   2.807   4.796   2.227 -0.1449  0.0740  0.5645
 5774TIP3    H138813   2.717   4.810   2.258 -0.1130 -0.4892  0.9171
 5774TIP3    H238814   2.861   4.851   2.284 -0.2463  0.2492  0.4904
 5775TIP3   OH238815   4.789   5.011  16.691  0.7349 -0.2690  0.4630
 5775TIP3    H138816   4.800   4.988  16.784  4.8630 -0.0100  0.2167
 5775TIP3    H238817   4.813   4.931  16.644 -0.9025 -0.2576 -0.4478
 5776TIP3   OH238818   6.768   3.242   6.268 -0.3351 -0.2779  0.8063
 5776TIP3    H138819   6.830   3.188   6.317 -0.3766 -0.8086  0.2823
 5776TIP3    H238820   6.691   3.247   6.325 -0.8134 -1.8201  0.3473
 5777TIP3   OH238821   2.028   3.414   2.599  0.0338  0.1309  0.3777
 5777TIP3    H138822   2.040   3.509   2.607  0.7369  0.0676  0.1136
 5777TIP3    H238823   2.116   3.377   2.610  0.0722 -0.3682 -1.2978
 5778TIP3   OH238824   2.617   4.269  15.960  0.5726  0.2227  0.8077
 5778TIP3    H138825   2.531   4.303  15.934 -0.2480 -3.1103 -1.4881
 5778TIP3    H238826   2.679   4.316  15.903 -0.1655  0.1403 -0.0985
 5779TIP3   OH238827   2.859   4.844  13.015  0.4565 -0.4538  0.4567
 5779TIP3    H138828   2.915   4.789  12.959  0.4325 -0.2656  0.2485
 5779TIP3    H238829   2.849   4.793  13.095  0.0983 -0.9421  0.1075
 5780TIP3   OH238830   5.689   1.685   4.314  0.7814  0.1990 -0.2687
 5780TIP3    H138831   5.681   1.709   4.222  3.1445  2.3460 -0.0174
 5780TIP3    H238832   5.622   1.737   4.358  1.1837  0.9719 -0.5474
 5781TIP3   OH238833   1.579   5.527   2.293  0.4193 -0.0392 -0.5941
 5781TIP3    H138834   1.648   5.501   2.231 -0.9493 -2.0422 -1.3954
 5781TIP3    H238835   1.552   5.614   2.265  1.7333  0.2445 -1.0451
 5782TIP3   OH238836   4.964   0.136   0.315  0.4745  0.2010 -0.1679
 5782TIP3    H138837   4.914   0.189   0.378 -0.0123 -2.2598  1.6598
 5782TIP3    H238838   4.947   0.045   0.341  2.7917 -0.8453 -1.9502
 5783TIP3   OH238839   3.649   0.115   0.317  0.1913  0.2467  0.0081
 5783TIP3    H138840   3.556   0.095   0.322  0.5038 -1.3242  0.1601
 5783TIP3    H238841   3.677   0.124   0.408  0.1987  0.6872 -0.0356
 5784TIP3   OH238842   1.345   4.127  15.698  0.1224 -0.3219  0.6522
 5784TIP3    H138843   1.400   4.057  15.733  0.1327 -0.1182  1.0575
 5784TIP3    H238844   1.407   4.193  15.665  0.1286 -1.3181 -1.4651
 5785TIP3   OH238845   2.236   6.476  12.233  0.5798  0.3443  0.2571
 5785TIP3    H138846   2.241   6.402  12.294 -1.1124 -1.1909 -1.3123
 5785TIP3    H238847   2.144   6.479  12.207  1.0203  1.6982 -1.3056
 5786TIP3   OH238848   4.182   2.437   1.025  0.2826  0.1056  0.3091
 5786TIP3    H138849   4.110   2.499   1.010 -0.6783 -0.4466  2.2766
 5786TIP3    H238850   4.260   2.482   0.992 -1.0473  0.2779 -2.9354
 5787TIP3   OH238851   4.867   3.481   2.648 -0.1631 -0.0285  0.1585
 5787TIP3    H138852   4.938   3.545   2.647  1.3635 -1.6477 -0.6005
 5787TIP3    H238853   4.824   3.496   2.732  1.6092  0.4648  1.0440
 5788TIP3   OH238854   2.112   0.419  16.512  0.6207 -0.7683 -0.1171
 5788TIP3    H138855   2.102   0.384  16.424  3.3380 -3.1168  0.3429
 5788TIP3    H238856   2.070   0.354  16.569  1.2594 -0.7165  0.4358
 5789TIP3   OH238857   3.572   1.932  12.343  0.4805 -0.0545 -0.2962
 5789TIP3    H138858   3.518   1.958  12.268 -0.5962  0.9467  0.7844
 5789TIP3    H238859   3.563   1.837  12.347  1.1358 -0.2093 -1.8401
 5790TIP3   OH238860   0.682   0.264  11.710 -0.3622 -0.2063 -0.3051
 5790TIP3    H138861   0.702   0.202  11.639 -4.6042 -2.8728  0.4657
 5790TIP3    H238862   0.620   0.325  11.671 -0.4690  0.1401  0.3994
 5791TIP3   OH238863   2.054   1.363   0.822  0.2731 -0.3597 -0.4284
 5791TIP3    H138864   2.143   1.351   0.790  1.1535 -0.9395  2.0381
 5791TIP3    H238865   2.054   1.325   0.910 -2.2926  0.0473 -0.1625
 5792TIP3   OH238866   0.205   2.800   6.434 -0.4694 -0.2830 -0.1629
 5792TIP3    H138867   0.186   2.794   6.340 -0.1343 -0.2594 -0.2330
 5792TIP3    H238868   0.271   2.732   6.450 -1.6626 -1.3618  0.3673
 5793TIP3   OH238869   5.657   2.007  13.907 -0.4118 -0.3606 -0.0251
 5793TIP3    H138870   5.731   2.036  13.960 -0.9050 -1.5460  1.3733
 5793TIP3    H238871   5.629   2.086  13.861  0.7838  0.4458  0.5625
 5794TIP3   OH238872   5.816   6.633   1.981 -0.1220  0.1474 -1.0273
 5794TIP3    H138873   5.768   6.706   2.020 -0.5415 -1.5033  1.8656
 5794TIP3    H238874   5.903   6.639   2.020 -0.9019 -2.2499  1.3653
 5795TIP3   OH238875   0.959   2.849  13.771  0.6882  0.1739 -0.6009
 5795TIP3    H138876   1.054   2.855  13.768  0.7395 -0.1142  0.3483
 5795TIP3    H238877   0.941   2.755  13.780  0.3305  0.2784 -0.2084
 5796TIP3   OH238878   6.488   5.776   0.102 -0.1185  0.6330  1.0228
 5796TIP3    H138879   6.394   5.771   0.115 -0.0846  0.6998  1.2963
 5796TIP3    H238880   6.516   5.851   0.154  0.0853  0.6153  0.9430
 5797TIP3   OH238881   1.493   3.032   2.404  0.1315 -0.2289  0.1427
 5797TIP3    H138882   1.398   3.042   2.403  0.0680 -0.6433 -1.2588
 5797TIP3    H238883   1.519   3.049   2.313  1.0975 -2.4844 -0.0795
 5798TIP3   OH238884   3.069   2.283   0.481  0.3279 -0.3138 -0.8212
 5798TIP3    H138885   2.978   2.256   0.495 -0.2828  1.1473 -1.8319
 5798TIP3    H238886   3.120   2.221   0.534 -1.2710 -0.8160  0.2089
 5799TIP3   OH238887   6.172   6.565  16.953  0.4900 -0.1202 -0.3937
 5799TIP3    H138888   6.214   6.585  17.036  1.8992 -1.7687 -0.6333
 5799TIP3    H238889   6.086   6.531  16.977  1.3344 -1.7336  0.5313
 5800TIP3   OH238890   5.755   3.691   2.704  0.7936 -0.1394 -0.6012
 5800TIP3    H138891   5.691   3.654   2.764  1.9115  0.4442  1.0313
 5800TIP3    H238892   5.756   3.632   2.629  0.5072 -1.8247  0.6676
 5801TIP3   OH238893   2.912   2.519  12.640 -0.0268 -0.3543  0.0990
 5801TIP3    H138894   2.899   2.449  12.576 -0.3774 -0.5401  0.3690
 5801TIP3    H238895   2.930   2.474  12.722 -1.1263 -0.1555  0.4671
 5802TIP3   OH238896   4.421   3.809   3.831  0.2555  0.6045  0.0700
 5802TIP3    H138897   4.337   3.829   3.872 -0.2872  0.5779 -0.9926
 5802TIP3    H238898   4.420   3.713   3.820 -0.2114  0.7333 -1.2193
 5803TIP3   OH238899   0.378   5.301   1.518 -0.2993  0.5468 -0.4931
 5803TIP3    H138900   0.286   5.276   1.505  0.0582  0.0293 -2.1874
 5803TIP3    H238901   0.406   5.335   1.433  0.7066  1.9975  0.3812
 5804TIP3   OH238902   5.240   1.267   5.650  0.3532  0.0690 -0.7550
 5804TIP3    H138903   5.198   1.321   5.716  1.2759  0.1540 -0.2224
 5804TIP3    H238904   5.187   1.187   5.647 -0.4206  0.5726 -0.8263
 5805TIP3   OH238905   3.687   6.416   1.307 -0.3241  0.2800  0.0784
 5805TIP3    H138906   3.765   6.419   1.252  0.5553 -2.1864  1.0289
 5805TIP3    H238907   3.627   6.357   1.261  0.1579 -1.2739  1.3443
 5806TIP3   OH238908   3.615   6.734   1.967 -0.4394 -0.2226 -0.1825
 5806TIP3    H138909   3.557   6.810   1.974 -0.2348 -0.0358 -0.4752
 5806TIP3    H238910   3.699   6.765   2.003 -0.1153 -0.0441 -1.0566
 5807TIP3   OH238911   0.040   5.411   0.570  0.6186 -0.1323  0.0644
 5807TIP3    H138912   0.085   5.455   0.642 -1.0683  0.1814  0.9621
 5807TIP3    H238913   0.063   5.461   0.493 -0.4051  1.7393  0.9098
 5808TIP3   OH238914   3.789   5.725  15.698  0.3093 -0.5165  0.9132
 5808TIP3    H138915   3.734   5.776  15.638  0.6056 -0.5659  0.6009
 5808TIP3    H238916   3.863   5.783  15.718  1.1176 -1.1474 -0.1543
 5809TIP3   OH238917   4.996   3.643   3.956  0.3096 -0.3550  0.4042
 5809TIP3    H138918   4.903   3.665   3.952  0.4607  0.3280  0.4011
 5809TIP3    H238919   4.999   3.558   3.999 -0.4110 -1.1587 -1.0813
 5810TIP3   OH238920   2.010   3.900   1.358  0.4477  0.4046  0.4674
 5810TIP3    H138921   1.982   3.959   1.289 -1.1589  1.3309  1.8194
 5810TIP3    H238922   2.061   3.832   1.313 -3.9634 -1.4987 -2.3973
 5811TIP3   OH238923   0.752   2.168   1.196 -0.0877 -0.4474  0.0117
 5811TIP3    H138924   0.819   2.101   1.182  0.6420  0.7720 -3.3070
 5811TIP3    H238925   0.789   2.226   1.262  1.4121 -0.7357 -0.5351
 5812TIP3   OH238926   1.941   6.276  15.449  0.4704 -0.4771  0.4938
 5812TIP3    H138927   1.964   6.343  15.514 -1.6352 -0.9624  1.8242
 5812TIP3    H238928   1.903   6.326  15.377 -1.5998 -0.1910  1.7086
 5813TIP3   OH238929   1.983   3.805   0.940  0.2659 -0.1774 -0.1140
 5813TIP3    H138930   1.975   3.886   0.991 -0.8173 -0.1459 -0.3079
 5813TIP3    H238931   1.912   3.749   0.972  0.3696 -0.6553 -0.7008
 5814TIP3   OH238932   2.254   1.669   2.673 -0.0918  0.1103  0.3972
 5814TIP3    H138933   2.325   1.727   2.645 -0.1564  0.1573  0.3308
 5814TIP3    H238934   2.263   1.665   2.768 -0.5019  0.7727  0.4701
 5815TIP3   OH238935   5.391   4.616   0.711  0.1137  0.8479 -0.1604
 5815TIP3    H138936   5.310   4.565   0.722  0.3379  0.7368  1.0497
 5815TIP3    H238937   5.416   4.641   0.799  1.7511  0.3595 -0.4572
 5816TIP3   OH238938   0.583   2.803   6.471  0.9572 -0.3617  0.2754
 5816TIP3    H138939   0.566   2.878   6.414 -0.3405 -1.7123 -1.2063
 5816TIP3    H238940   0.507   2.798   6.528  1.0596 -0.5342  0.3977
 5817TIP3   OH238941   0.802   2.096  15.308  0.2170  0.0643 -0.0638
 5817TIP3    H138942   0.729   2.153  15.285  0.7576  0.9739  0.4001
 5817TIP3    H238943   0.819   2.046  15.228  0.5391  1.4659 -0.9258
 5818TIP3   OH238944   1.240   0.878  12.525 -0.0823 -0.6301 -0.1519
 5818TIP3    H138945   1.188   0.958  12.517  0.0719 -0.5835 -0.7274
 5818TIP3    H238946   1.253   0.868  12.619 -1.2949 -0.7428  0.0311
 5819TIP3   OH238947   2.582   6.540   1.655 -0.1798 -0.0888  0.2854
 5819TIP3    H138948   2.614   6.576   1.572  1.7459 -0.9399  0.5985
 5819TIP3    H238949   2.599   6.608   1.719  0.5734 -0.3519  0.3690
 5820TIP3   OH238950   4.372   2.422  13.009  0.0999 -0.7829 -0.2307
 5820TIP3    H138951   4.412   2.508  13.001  0.2744 -0.7409  0.9676
 5820TIP3    H238952   4.446   2.361  13.012 -0.0265 -1.0225 -1.3682
 5821TIP3   OH238953   6.088   2.189   4.281  0.2545 -0.1186  0.0260
 5821TIP3    H138954   6.028   2.262   4.267  1.0358  0.7656  1.1147
 5821TIP3    H238955   6.171   2.230   4.303  0.5042 -1.3253  1.5089
 5822TIP3   OH238956   4.433   5.066  11.278 -0.4847 -0.8293  0.7595
 5822TIP3    H138957   4.405   4.986  11.234 -2.6111 -0.1585  0.7431
 5822TIP3    H238958   4.458   5.125  11.207 -2.6187 -0.2143  0.4387
 5823TIP3   OH238959   5.907   3.278  14.289  0.3162 -0.1714  0.1023
 5823TIP3    H138960   5.853   3.210  14.328  0.3159  0.0645  0.5205
 5823TIP3    H238961   5.846   3.330  14.236  0.3222 -0.5081 -0.2405
 5824TIP3   OH238962   5.711   6.298   0.916 -0.6296  0.0171 -0.1312
 5824TIP3    H138963   5.793   6.334   0.881 -0.5239 -1.4222 -1.4836
 5824TIP3    H238964   5.648   6.310   0.845 -1.1273 -0.4838  0.2203
 5825TIP3   OH238965   3.129   2.266  17.036 -0.0422  0.6131  0.1882
 5825TIP3    H138966   3.094   2.339  17.087  0.4149  0.3491  0.8972
 5825TIP3    H238967   3.061   2.199  17.040  0.6842 -0.0649  1.9286
 5826TIP3   OH238968   4.100   3.686  12.140  0.1394  0.0202 -0.2089
 5826TIP3    H138969   4.127   3.772  12.107  1.4687 -0.2811  0.0560
 5826TIP3    H238970   4.101   3.629  12.063  0.0273  0.0639 -0.2426
 5827TIP3   OH238971   1.664   1.315  12.260 -0.3400  0.2157 -0.0323
 5827TIP3    H138972   1.665   1.390  12.320  1.0620 -1.0601  1.6450
 5827TIP3    H238973   1.725   1.340  12.190  0.0830  0.6742  0.4858
 5828TIP3   OH238974   0.521   5.196  11.171  0.1891  0.2403 -0.0690
 5828TIP3    H138975   0.427   5.175  11.171  0.7240 -2.6088  0.6687
 5828TIP3    H238976   0.550   5.170  11.084  0.4452  0.3482 -0.0143
 5829TIP3   OH238977   5.237   3.212  11.403  0.0680 -0.0537  0.1936
 5829TIP3    H138978   5.307   3.161  11.363 -0.4907 -1.9308  1.4855
 5829TIP3    H238979   5.244   3.192  11.496 -0.3088  2.1346  0.7314
 5830TIP3   OH238980   4.795   4.861   3.337  0.0275 -0.1416 -0.7339
 5830TIP3    H138981   4.778   4.933   3.277  0.0752 -0.9800 -1.7788
 5830TIP3    H238982   4.741   4.880   3.414 -0.6605  0.5342 -1.3749
 5831TIP3   OH238983   4.970   2.389   0.384  0.1672  0.0495  0.4564
 5831TIP3    H138984   5.029   2.424   0.451  3.0681 -1.8784 -0.8782
 5831TIP3    H238985   5.017   2.401   0.302 -2.2013  0.0960 -0.9742
 5832TIP3   OH238986   5.142   1.025   5.748  0.2606  0.2525  0.6225
 5832TIP3    H138987   5.094   0.946   5.775  0.7875 -0.5707 -0.7098
 5832TIP3    H238988   5.234   0.999   5.750  0.3682  0.3746 -1.1247
 5833TIP3   OH238989   0.631   3.982   2.277 -0.0291  0.3945  0.3143
 5833TIP3    H138990   0.561   4.043   2.299 -1.0287 -0.4153 -0.5277
 5833TIP3    H238991   0.711   4.024   2.309 -0.8919  1.3246  1.3165
 5834TIP3   OH238992   2.522   5.941   3.109 -0.7261  0.3758 -0.0080
 5834TIP3    H138993   2.617   5.955   3.105 -0.4983 -1.0630 -0.3436
 5834TIP3    H238994   2.508   5.899   3.193 -1.1120  0.8601  0.1704
 5835TIP3   OH238995   1.746   1.734   2.559  0.2275 -0.0239 -0.0026
 5835TIP3    H138996   1.773   1.766   2.473  1.0966 -0.9081 -0.0767
 5835TIP3    H238997   1.812   1.669   2.583 -1.2375 -1.4619  0.3248
 5836TIP3   OH238998   6.813   3.310   5.261 -0.0874 -0.3349 -0.5526
 5836TIP3    H138999   6.792   3.246   5.194  1.2826  0.5498 -1.9051
 5836TIP3    H239000   6.728   3.348   5.286 -0.8342 -2.1018 -0.2325
 5837TIP3   OH239001   1.078   5.821  16.479 -0.9381 -0.2972 -0.0131
 5837TIP3    H139002   1.142   5.836  16.549  0.1556  0.2560 -1.0920
 5837TIP3    H239003   1.132   5.809  16.400 -2.1733  0.0364 -0.9310
 5838TIP3   OH239004   2.615   5.074  16.291  0.0793 -0.9124  0.3178
 5838TIP3    H139005   2.562   5.143  16.329  2.8859  1.9277 -0.5030
 5838TIP3    H239006   2.586   5.068  16.200  0.1729 -0.3874  0.2493
 5839TIP3   OH239007   0.385   1.200   0.926 -0.3067 -0.4047 -0.2884
 5839TIP3    H139008   0.395   1.107   0.943  0.8488 -0.2623 -0.1384
 5839TIP3    H239009   0.301   1.223   0.968  0.5123 -0.8964  1.7444
 5840TIP3   OH239010   0.206   0.610   0.360 -0.0120  0.0437  0.1064
 5840TIP3    H139011   0.173   0.573   0.442  1.8885 -1.0321  0.4302
 5840TIP3    H239012   0.191   0.542   0.295  0.8467 -0.1499  0.1029
 5841TIP3   OH239013   0.150   1.062   1.654  0.3950  0.6044  0.3108
 5841TIP3    H139014   0.066   1.065   1.700  0.4584 -1.9280  0.7814
 5841TIP3    H239015   0.127   1.071   1.562 -1.0262 -3.6673  0.0221
 5842TIP3   OH239016   6.537   4.168   3.566  0.1270 -0.4419  0.1033
 5842TIP3    H139017   6.532   4.150   3.472  2.6094  1.3510 -0.4470
 5842TIP3    H239018   6.630   4.166   3.586 -0.3536 -0.8854  2.5907
 5843TIP3   OH239019   0.112   5.531  16.481 -0.9478  0.1583  0.1531
 5843TIP3    H139020   0.158   5.500  16.559  0.9982 -0.1467 -1.0497
 5843TIP3    H239021   0.085   5.620  16.503 -0.6823 -0.0164  1.2617
 5844TIP3   OH239022   0.850   2.050  16.117  0.2909  0.0712  0.1485
 5844TIP3    H139023   0.888   1.995  16.049 -0.2523 -0.9293  0.6286
 5844TIP3    H239024   0.759   2.060  16.092  0.9214  3.1535 -1.4480
 5845TIP3   OH239025   0.958   1.473  16.156  0.1168  0.0555 -0.0684
 5845TIP3    H139026   0.870   1.439  16.172  0.4689 -0.3340  1.2101
 5845TIP3    H239027   0.952   1.566  16.181 -0.1749  0.2783 -0.9515
 5846TIP3   OH239028   3.784   1.929   2.619  0.2761  0.2453 -0.1515
 5846TIP3    H139029   3.772   1.839   2.649  1.8234 -0.0059 -0.2336
 5846TIP3    H239030   3.695   1.966   2.619 -0.4550 -1.4149 -0.5777
 5847TIP3   OH239031   3.778   2.468  13.602  0.3507 -0.0640 -0.3566
 5847TIP3    H139032   3.837   2.517  13.545  0.3615  0.3034 -0.0318
 5847TIP3    H239033   3.814   2.480  13.690 -0.0717 -0.0429 -0.1840
 5848TIP3   OH239034   0.572   2.467  13.157 -0.1009 -0.0837 -0.3910
 5848TIP3    H139035   0.522   2.465  13.239 -0.0410 -0.2272 -0.3575
 5848TIP3    H239036   0.545   2.388  13.111 -1.4212  0.8598 -1.2835
 5849TIP3   OH239037   0.391   0.823  13.867 -0.6424 -0.6035  0.2893
 5849TIP3    H139038   0.354   0.825  13.955 -0.2384  0.0382  0.4554
 5849TIP3    H239039   0.439   0.906  13.859  0.6432 -1.3410  0.0255
 5850TIP3   OH239040   2.403   0.671  15.741  0.0906  0.8191  0.3441
 5850TIP3    H139041   2.489   0.703  15.715  0.4880 -1.1389 -0.9976
 5850TIP3    H239042   2.422   0.598  15.800 -0.5579 -0.5146 -1.0297
 5851TIP3   OH239043   4.158   2.841   4.223  0.6819 -0.0608  0.1886
 5851TIP3    H139044   4.144   2.876   4.135 -0.7196 -1.0204  0.0143
 5851TIP3    H239045   4.123   2.908   4.281 -0.2661 -0.3197 -0.0726
 5852TIP3   OH239046   6.033   2.620   4.271 -1.1334 -0.2895 -0.1171
 5852TIP3    H139047   6.012   2.529   4.292 -0.7117 -0.1072  1.2122
 5852TIP3    H239048   5.963   2.671   4.313 -0.0847  0.1104  1.2340
 5853TIP3   OH239049   3.113   6.667   1.986 -0.3024 -0.2849  0.1190
 5853TIP3    H139050   3.138   6.748   1.942  0.0154  0.8055  2.2026
 5853TIP3    H239051   3.022   6.653   1.960 -0.1779  0.4159 -0.7164
 5854TIP3   OH239052   3.476   1.064  16.363 -0.0423  0.3376 -0.4821
 5854TIP3    H139053   3.481   1.001  16.434  1.6245  0.2725 -0.6210
 5854TIP3    H239054   3.390   1.048  16.323 -0.1222 -1.0557  0.1756
 5855TIP3   OH239055   3.632   2.121   2.163  0.8732  0.0957  0.3138
 5855TIP3    H139056   3.627   2.166   2.079  0.8910 -0.5192 -0.0247
 5855TIP3    H239057   3.724   2.125   2.187  0.6787  1.3488  0.9149
 5856TIP3   OH239058   6.237   5.381  16.222 -0.1293  0.4829 -0.5279
 5856TIP3    H139059   6.313   5.350  16.272  0.4810  1.0619 -1.0724
 5856TIP3    H239060   6.250   5.475  16.216  0.2646  0.3416 -2.4906
 5857TIP3   OH239061   1.889   1.750   0.572 -0.0500  0.6729  0.2956
 5857TIP3    H139062   1.847   1.826   0.532 -2.3709 -1.1436 -1.0265
 5857TIP3    H239063   1.870   1.678   0.511 -0.7433 -1.5717  2.9869
 5858TIP3   OH239064   1.106   5.721  12.534  0.1997 -0.1933  0.3514
 5858TIP3    H139065   1.044   5.721  12.607 -0.7872 -1.4089 -0.4300
 5858TIP3    H239066   1.086   5.801  12.486  0.7907  0.5633  1.3486
 5859TIP3   OH239067   6.649   2.723  15.595  0.0591 -0.5063 -0.5469
 5859TIP3    H139068   6.559   2.720  15.627  0.6511 -0.2873  1.2489
 5859TIP3    H239069   6.643   2.766  15.509 -1.4604  0.1003 -0.1614
 5860TIP3   OH239070   3.188   2.525  11.249 -0.8926  0.4062 -0.6800
 5860TIP3    H139071   3.258   2.543  11.186  1.0984 -0.6093  1.0953
 5860TIP3    H239072   3.182   2.604  11.302 -2.3771  1.1547 -1.8745
 5861TIP3   OH239073   3.621   1.666   1.278 -0.0140 -0.4924 -0.3388
 5861TIP3    H139074   3.587   1.622   1.356  1.8189 -1.5015 -0.0529
 5861TIP3    H239075   3.595   1.758   1.289 -0.1484 -0.6920  1.2432
 5862TIP3   OH239076   5.961   2.915  14.329  0.0070  0.1693 -0.7279
 5862TIP3    H139077   6.047   2.936  14.365 -0.3377  0.5382 -0.0851
 5862TIP3    H239078   5.941   2.828  14.362 -0.3613  0.5560  0.1116
 5863TIP3   OH239079   2.270   1.498  11.548 -0.0549 -0.4285  0.2765
 5863TIP3    H139080   2.307   1.425  11.497 -0.3859 -0.1040 -0.4466
 5863TIP3    H239081   2.341   1.526  11.605  0.4953 -0.4811 -0.3635
 5864TIP3   OH239082   5.049   5.166   4.129 -0.8318 -0.0518 -0.2327
 5864TIP3    H139083   5.113   5.219   4.175 -0.8221  0.5252 -0.9046
 5864TIP3    H239084   4.965   5.189   4.168 -0.7943  0.2499 -0.3331
 5865TIP3   OH239085   0.794   2.441   1.987  0.3011  0.4233 -0.2885
 5865TIP3    H139086   0.771   2.349   2.000  0.9170  0.4538  1.1912
 5865TIP3    H239087   0.714   2.481   1.953 -0.5632 -0.2972  0.8265
 5866TIP3   OH239088   0.504   0.982  12.284 -0.1142  0.6588 -0.5021
 5866TIP3    H139089   0.444   0.994  12.211 -0.1449 -0.1885 -0.6263
 5866TIP3    H239090   0.591   0.984  12.244 -0.1520 -0.4058 -0.6606
 5867TIP3   OH239091   1.800   2.885   3.424 -0.0287 -0.5678  0.3985
 5867TIP3    H139092   1.820   2.799   3.460 -0.3542 -0.0250  1.9335
 5867TIP3    H239093   1.795   2.943   3.500  0.1313  0.8078 -0.5989
 5868TIP3   OH239094   3.466   0.448   4.581  0.1071 -0.4178  0.1725
 5868TIP3    H139095   3.416   0.445   4.499 -0.3487  1.7487  0.3187
 5868TIP3    H239096   3.447   0.535   4.618  2.1918 -0.4193  1.3868
 5869TIP3   OH239097   2.876   1.803  15.641  0.1013  0.1216 -0.0292
 5869TIP3    H139098   2.966   1.775  15.626 -0.0773 -0.3475 -0.2284
 5869TIP3    H239099   2.884   1.875  15.703  0.7114  0.9048 -0.9752
 5870TIP3   OH239100   4.186   1.284   5.176  0.3644 -0.0696 -0.1712
 5870TIP3    H139101   4.171   1.327   5.260  2.6838  0.9645 -0.2131
 5870TIP3    H239102   4.197   1.191   5.199  0.4271  0.1226  0.6014
 5871TIP3   OH239103   1.207   3.124  13.027  0.1787 -0.0439 -0.3897
 5871TIP3    H139104   1.215   3.030  13.038 -0.0840  0.0916  1.3003
 5871TIP3    H239105   1.113   3.139  13.019  0.2224  0.0800 -0.6958
 5872TIP3   OH239106   4.202   0.817   4.956 -0.0172  0.1537  0.0997
 5872TIP3    H139107   4.261   0.774   5.018 -0.5996 -0.9743 -0.1051
 5872TIP3    H239108   4.245   0.900   4.936 -0.3870  1.1263  2.9235
 5873TIP3   OH239109   6.785   3.469  16.907 -0.2320 -0.0214 -0.3464
 5873TIP3    H139110   6.852   3.404  16.928  1.6078  1.3032 -1.7861
 5873TIP3    H239111   6.823   3.552  16.934 -0.5647  0.9406 -2.6037
 5874TIP3   OH239112   2.393   3.247   1.819  0.1222  0.4077 -0.4781
 5874TIP3    H139113   2.393   3.342   1.803 -0.8418  0.6949  1.0541
 5874TIP3    H239114   2.480   3.218   1.790  0.9922  2.0184  0.3901
 5875TIP3   OH239115   2.839   5.704  12.900  0.7974 -0.3937 -0.2223
 5875TIP3    H139116   2.895   5.651  12.956 -0.7592 -1.9809 -0.0718
 5875TIP3    H239117   2.899   5.763  12.855  2.3548 -0.7210  1.3006
 5876TIP3   OH239118   3.830   4.387  17.068  0.4026  0.0191  0.6994
 5876TIP3    H139119   3.894   4.449  17.032  0.2629 -0.3588 -0.2228
 5876TIP3    H239120   3.773   4.367  16.994  0.0259 -0.6731  1.1759
 5877TIP3   OH239121   6.310   2.426  12.756 -0.3543 -0.8526 -0.1676
 5877TIP3    H139122   6.339   2.509  12.796 -1.8416 -0.0989 -0.5940
 5877TIP3    H239123   6.224   2.446  12.719 -1.8285 -3.1803  1.7200
 5878TIP3   OH239124   1.254   0.005   2.068 -0.2996 -0.6832  0.3484
 5878TIP3    H139125   1.192  -0.037   2.127 -3.9289 -0.1690 -2.6552
 5878TIP3    H239126   1.236   0.099   2.077  0.7949 -0.4429  0.1516
 5879TIP3   OH239127   5.849   0.921   5.713  0.2274 -0.0808 -0.5244
 5879TIP3    H139128   5.826   1.000   5.761  0.0234 -0.3904 -0.0993
 5879TIP3    H239129   5.835   0.943   5.621 -0.4254  0.1816 -0.3691
 5880TIP3   OH239130   5.429   4.077  14.556  0.8337 -0.2795 -0.1238
 5880TIP3    H139131   5.401   4.108  14.642 -0.7500 -1.1347 -0.2935
 5880TIP3    H239132   5.517   4.112  14.545  0.6946  0.6295  1.4385
 5881TIP3   OH239133   3.170   2.867  16.679  0.0381  0.0168 -0.1950
 5881TIP3    H139134   3.114   2.889  16.753 -1.3218  0.8181 -1.4165
 5881TIP3    H239135   3.256   2.904  16.703  0.0323 -1.0145  1.5854
 5882TIP3   OH239136   1.618   2.551  12.008 -0.2901 -0.2826 -0.1954
 5882TIP3    H139137   1.597   2.628  11.954 -0.1510  0.1963  0.4127
 5882TIP3    H239138   1.709   2.566  12.035  0.3905 -1.6108 -1.6145
 5883TIP3   OH239139   6.486   5.044  16.147 -0.5018  0.2910  0.6875
 5883TIP3    H139140   6.436   5.104  16.092 -0.5327  0.0982  0.5013
 5883TIP3    H239141   6.548   5.100  16.194 -2.2162  0.8235  2.4803
 5884TIP3   OH239142   3.227   1.497   0.875 -0.1793 -0.1538  0.5025
 5884TIP3    H139143   3.230   1.403   0.892 -2.5639 -0.4661 -0.4607
 5884TIP3    H239144   3.306   1.514   0.824  0.2697 -1.6369  0.6525
 5885TIP3   OH239145   0.460   4.301   1.898 -0.1889  0.5551 -0.7037
 5885TIP3    H139146   0.471   4.373   1.836 -1.0604 -0.1834 -1.7471
 5885TIP3    H239147   0.408   4.236   1.851 -0.7795 -0.0854  0.7663
 5886TIP3   OH239148   6.697   2.053   2.567 -0.0865  0.3846 -0.0543
 5886TIP3    H139149   6.768   2.116   2.554  0.1316  0.3217  0.7516
 5886TIP3    H239150   6.618   2.100   2.540  0.3042  0.2662 -1.4990
 5887TIP3   OH239151   2.137   3.145  11.419 -0.4515 -0.3436 -0.0462
 5887TIP3    H139152   2.198   3.207  11.459 -0.5851 -1.4160  1.9432
 5887TIP3    H239153   2.113   3.086  11.490 -3.9318  0.1064 -0.6765
 5888TIP3   OH239154   0.614   0.706  16.071 -0.0441 -0.4011 -0.4626
 5888TIP3    H139155   0.678   0.743  16.132  0.3342  0.2746 -1.2498
 5888TIP3    H239156   0.542   0.676  16.127  0.1331  0.5266  0.2838
 5889TIP3   OH239157   0.334   0.595  15.474 -0.2525  0.2663 -0.1201
 5889TIP3    H139158   0.427   0.618  15.481 -0.0949 -0.4498  0.2417
 5889TIP3    H239159   0.300   0.653  15.406  0.5404  0.2927 -0.5072
 5890TIP3   OH239160   2.812   2.374   2.701  0.2820 -0.1844  0.0933
 5890TIP3    H139161   2.886   2.368   2.761 -0.4133 -1.4026  0.8794
 5890TIP3    H239162   2.824   2.457   2.655  1.4776  0.1996  1.0624
 5891TIP3   OH239163   2.389   0.316   5.651  0.1760 -0.3160 -0.6463
 5891TIP3    H139164   2.331   0.314   5.728 -0.1237 -1.3215 -0.8798
 5891TIP3    H239165   2.467   0.269   5.680 -0.5873 -2.1414 -1.4373
 5892TIP3   OH239166   4.674   5.728   0.006  0.1513 -0.0433 -0.1282
 5892TIP3    H139167   4.614   5.801  -0.008 -0.5297 -0.4830  0.4041
 5892TIP3    H239168   4.697   5.696  -0.081  0.1583  0.5657 -0.3467
 5893TIP3   OH239169   4.348   4.554   4.550 -0.4201  0.5887  0.3479
 5893TIP3    H139170   4.332   4.593   4.635  0.3294  0.8740  0.3710
 5893TIP3    H239171   4.365   4.628   4.492 -0.0902  0.3601  0.1420
 5894TIP3   OH239172   5.477   5.103  16.137 -0.3688  0.0303  0.8818
 5894TIP3    H139173   5.496   5.113  16.043 -2.5009  0.2583  0.4110
 5894TIP3    H239174   5.561   5.118  16.180  0.3465  1.6973 -0.9053
 5895TIP3   OH239175   2.247   1.842  15.333 -0.3759  0.4830  0.6157
 5895TIP3    H139176   2.228   1.804  15.246  1.6653  1.0669 -0.1253
 5895TIP3    H239177   2.181   1.911  15.343 -0.9956  0.0401 -0.2175
 5896TIP3   OH239178   0.605   4.523  10.970  0.7708 -0.5249 -0.0989
 5896TIP3    H139179   0.539   4.529  10.900  1.1090 -2.2926 -0.6229
 5896TIP3    H239180   0.608   4.430  10.992  1.4142 -0.1317  1.5778
 5897TIP3   OH239181   0.946   3.156  11.357 -0.0061  0.3495  0.1324
 5897TIP3    H139182   0.883   3.087  11.333  0.4822  0.2089 -0.7657
 5897TIP3    H239183   1.027   3.109  11.376 -0.0131  0.5798  0.7399
 5898TIP3   OH239184   4.242   0.899   0.184 -0.7876 -0.7109 -0.0247
 5898TIP3    H139185   4.178   0.956   0.226 -0.7286  0.0464 -0.9272
 5898TIP3    H239186   4.315   0.894   0.246 -0.8088  0.1748  0.0831
 5899TIP3   OH239187   4.803   1.679   1.379  0.0483 -0.3381  0.1055
 5899TIP3    H139188   4.813   1.597   1.331  0.2141  0.2494 -0.9010
 5899TIP3    H239189   4.881   1.730   1.356 -0.1868  0.2053  0.4894
 5900TIP3   OH239190   2.533   2.924  12.159  0.1483  0.1693 -0.1513
 5900TIP3    H139191   2.472   2.996  12.180 -0.5020  0.0397 -1.5235
 5900TIP3    H239192   2.538   2.873  12.240 -1.3851  0.3279  0.0751
 5901TIP3   OH239193   3.293   4.368  13.688  0.4275 -0.3361 -0.2664
 5901TIP3    H139194   3.332   4.284  13.712  0.5726 -0.2800 -0.3084
 5901TIP3    H239195   3.239   4.392  13.763  0.0719 -0.6582 -0.4130
 5902TIP3   OH239196   0.750   2.432  16.159  0.2372 -0.3713 -0.2820
 5902TIP3    H139197   0.778   2.410  16.248  0.2498  0.4664 -0.0608
 5902TIP3    H239198   0.832   2.455  16.114 -0.0266  2.2116  0.3998
 5903TIP3   OH239199   1.256   0.943   3.406  0.1905  0.1492 -0.3465
 5903TIP3    H139200   1.296   0.976   3.325  0.0974  2.0017  0.3088
 5903TIP3    H239201   1.162   0.944   3.387 -0.0353  2.8854  0.4856
 5904TIP3   OH239202   0.586   0.957   0.160  0.6944  0.2617  0.3346
 5904TIP3    H139203   0.638   0.932   0.084 -0.4054 -1.1536 -0.0006
 5904TIP3    H239204   0.520   0.888   0.167 -0.4620  1.4238  1.3759
 5905TIP3   OH239205   0.745   1.337  11.649  0.7967 -0.0487 -0.0351
 5905TIP3    H139206   0.689   1.305  11.719  0.6199  0.1128 -0.1014
 5905TIP3    H239207   0.705   1.421  11.623 -0.1915 -0.9392 -1.5541
 5906TIP3   OH239208   2.537   5.755  13.704 -0.0748 -0.7325 -0.3021
 5906TIP3    H139209   2.480   5.700  13.650 -0.0123  0.0723 -1.2134
 5906TIP3    H239210   2.560   5.829  13.647  0.9353 -0.4529  0.4440
 5907TIP3   OH239211   4.974   4.387   4.017  0.3515  0.0014  0.1018
 5907TIP3    H139212   4.890   4.343   4.031  0.9600 -1.5862 -1.0502
 5907TIP3    H239213   5.015   4.340   3.945  2.2043  0.8196  0.5594
 5908TIP3   OH239214   4.744   0.446  14.503 -0.2885 -0.4216  0.1676
 5908TIP3    H139215   4.799   0.512  14.461  0.2778 -0.5788  0.6482
 5908TIP3    H239216   4.771   0.448  14.595 -1.5638 -0.0229  0.5580
 5909TIP3   OH239217   1.700   3.743   1.354  0.1137  0.0666  0.0730
 5909TIP3    H139218   1.620   3.691   1.350  0.2577 -0.1913  0.5396
 5909TIP3    H239219   1.691   3.806   1.282 -1.2065  1.0504  1.0457
 5910TIP3   OH239220   1.811   1.101  16.489  0.7524  0.6154  0.3083
 5910TIP3    H139221   1.751   1.101  16.415  1.2967  0.5206 -0.1425
 5910TIP3    H239222   1.773   1.039  16.551  0.0666  1.0141  0.3028
 5911TIP3   OH239223   1.169   4.013  16.009  0.4181  0.5517  0.2811
 5911TIP3    H139224   1.155   3.928  16.050 -0.5016  0.2394 -0.6168
 5911TIP3    H239225   1.081   4.043  15.986  0.8223  1.1709 -0.5191
 5912TIP3   OH239226   0.974   2.083   3.312  0.3099  0.3150 -0.7045
 5912TIP3    H139227   1.028   2.085   3.392  1.7452  0.8856 -1.6584
 5912TIP3    H239228   0.886   2.101   3.343  0.4852 -1.3491  1.0097
 5913TIP3   OH239229   6.232   1.962  11.080  0.2884 -0.4110 -0.1733
 5913TIP3    H139230   6.263   2.027  11.143 -0.8318 -0.3525  0.3385
 5913TIP3    H239231   6.300   1.959  11.013  0.9105  0.4286  0.4011
 5914TIP3   OH239232   3.910   6.357   2.858 -0.6762  0.0064  0.1286
 5914TIP3    H139233   3.819   6.347   2.885 -0.3724 -0.8415  0.9129
 5914TIP3    H239234   3.947   6.269   2.867  0.5110  0.5619  0.9173
 5915TIP3   OH239235   2.671   2.231   4.076 -0.2646 -0.4154  0.3050
 5915TIP3    H139236   2.638   2.298   4.016  1.1087 -0.8558 -1.0070
 5915TIP3    H239237   2.763   2.222   4.052  0.0587 -1.3633  1.8088
 5916TIP3   OH239238   5.646   6.645   3.561 -0.1686  0.5053  0.1340
 5916TIP3    H139239   5.580   6.698   3.517  0.3657  1.9120  0.9530
 5916TIP3    H239240   5.729   6.674   3.524  0.1948  0.9216  1.2318
 5917TIP3   OH239241   0.721   1.953  10.700  0.3518  0.1952 -0.2855
 5917TIP3    H139242   0.744   1.862  10.721  0.0092 -0.9926 -4.2437
 5917TIP3    H239243   0.752   1.965  10.611 -0.6592  3.6432 -0.2943
 5918TIP3   OH239244   4.541   6.056   4.225  0.4166 -0.2334  0.6953
 5918TIP3    H139245   4.607   6.121   4.200 -1.2474  1.7222  1.1055
 5918TIP3    H239246   4.493   6.098   4.296 -0.6099 -2.0408  1.1116
 5919TIP3   OH239247   1.717   0.868   0.267  0.6143 -1.0725  0.0780
 5919TIP3    H139248   1.659   0.795   0.287  0.7896 -0.5591  3.0018
 5919TIP3    H239249   1.671   0.918   0.199 -0.1163 -3.1204 -1.0088
 5920TIP3   OH239250   6.510   4.143   1.517 -0.0664  0.4286  0.3500
 5920TIP3    H139251   6.427   4.111   1.553 -1.1633  0.2581 -2.0694
 5920TIP3    H239252   6.567   4.066   1.517  0.1721  0.5636  2.0925
 5921TIP3   OH239253   4.579   6.206  13.626  0.1114 -0.4139  0.8090
 5921TIP3    H139254   4.602   6.293  13.596  0.4520 -0.6384  0.4044
 5921TIP3    H239255   4.640   6.148  13.580 -0.0889 -0.8603  1.0971
 5922TIP3   OH239256   4.805   1.121  13.804  0.5132  0.0655  0.3574
 5922TIP3    H139257   4.759   1.157  13.729  0.7717  1.1688  0.7134
 5922TIP3    H239258   4.739   1.119  13.874  0.1761 -1.2851  0.0261
 5923TIP3   OH239259   6.817   1.897  13.955  0.4948 -0.5540 -0.0704
 5923TIP3    H139260   6.768   1.829  13.909  0.6380 -0.1696 -0.8018
 5923TIP3    H239261   6.908   1.867  13.952  0.7378  0.2296 -1.4591
 5924TIP3   OH239262   0.565   5.721   1.036 -0.0939  0.0852 -0.1279
 5924TIP3    H139263   0.522   5.789   1.087 -2.2065 -1.5559  0.3911
 5924TIP3    H239264   0.655   5.719   1.070  0.4063  3.2844 -0.9170
 5925TIP3   OH239265   0.767   1.584  14.927  0.1464  0.0108 -0.0945
 5925TIP3    H139266   0.756   1.516  14.861  0.8084  0.2924 -0.5079
 5925TIP3    H239267   0.858   1.613  14.917  0.2674  0.0485  0.9575
 5926TIP3   OH239268   3.030   5.186  12.502 -0.3834  0.2543 -0.4572
 5926TIP3    H139269   2.988   5.121  12.559 -0.3512 -0.8158 -1.6191
 5926TIP3    H239270   3.122   5.162  12.503 -0.6753 -1.2822 -2.7707
 5927TIP3   OH239271   1.215   1.469   5.647  0.2490  1.0028 -0.6035
 5927TIP3    H139272   1.284   1.532   5.667 -0.9540  2.7021 -1.5162
 5927TIP3    H239273   1.228   1.447   5.555  0.9084 -0.4381 -0.1799
 5928TIP3   OH239274   0.339   5.504  12.629  0.1345 -0.1977 -0.1739
 5928TIP3    H139275   0.305   5.418  12.605 -0.6825  0.1527 -0.3105
 5928TIP3    H239276   0.302   5.563  12.564  0.8370  0.2383 -0.1891
 5929TIP3   OH239277   6.173   5.511  12.230  0.5893 -0.7181 -0.2594
 5929TIP3    H139278   6.198   5.469  12.312 -0.4989 -1.9700 -0.5245
 5929TIP3    H239279   6.221   5.594  12.229  0.3582 -0.5149  1.8039
 5930TIP3   OH239280   4.156   2.510  12.148  0.9393  0.3020 -0.2937
 5930TIP3    H139281   4.070   2.546  12.125  1.7316  2.4410 -0.1748
 5930TIP3    H239282   4.142   2.466  12.232  0.0073  0.8373 -0.1545
 5931TIP3   OH239283   1.962   5.837   0.647 -0.0856  0.1232  0.4533
 5931TIP3    H139284   2.054   5.840   0.620  0.1209  0.3751  1.1601
 5931TIP3    H239285   1.934   5.748   0.628 -0.8439  1.0079 -3.4141
 5932TIP3   OH239286   4.164   1.284  17.007  0.1258  0.6775  0.8028
 5932TIP3    H139287   4.171   1.355  16.943 -1.4993 -0.7047 -1.0323
 5932TIP3    H239288   4.089   1.309  17.062 -0.2792  0.5368  0.3243
 5933TIP3   OH239289   0.718   3.970   1.100 -0.2394 -0.0285 -0.1501
 5933TIP3    H139290   0.736   3.951   1.008  0.3458  2.3570 -0.6000
 5933TIP3    H239291   0.754   4.058   1.114 -0.4125 -0.2787  2.3418
 5934TIP3   OH239292   3.624   0.683  16.557  0.7219 -0.3349 -0.3949
 5934TIP3    H139293   3.623   0.682  16.653  3.2327 -0.3517 -0.2866
 5934TIP3    H239294   3.589   0.769  16.534 -0.6333 -0.6287  0.4801
 5935TIP3   OH239295   1.446   1.875   5.509  0.2891 -0.7099 -0.0871
 5935TIP3    H139296   1.484   1.787   5.500  1.2921 -0.5953  2.2992
 5935TIP3    H239297   1.351   1.860   5.500  0.4591 -2.0052 -0.0090
 5936TIP3   OH239298   3.178   1.767   2.546 -0.2561  0.2760 -0.4479
 5936TIP3    H139299   3.189   1.826   2.621 -0.5270 -0.1210 -0.0891
 5936TIP3    H239300   3.243   1.797   2.482  2.6688 -1.6480  1.3609
 5937TIP3   OH239301   3.927   2.480  11.649 -0.0505 -0.6858 -0.0815
 5937TIP3    H139302   3.882   2.560  11.623  1.4533  0.6266  1.1750
 5937TIP3    H239303   4.002   2.474  11.590 -0.6911 -1.7354 -0.8163
 5938TIP3   OH239304   5.620   0.920   0.994  0.1376  0.5366  0.2164
 5938TIP3    H139305   5.711   0.919   0.966  0.1776  2.4763  0.1632
 5938TIP3    H239306   5.586   1.004   0.963 -2.3480 -1.0421 -1.7806
 5939TIP3   OH239307   3.178   6.294  12.345 -0.2079  0.6323  0.2167
 5939TIP3    H139308   3.088   6.265  12.356 -0.3666  1.1746  0.4131
 5939TIP3    H239309   3.206   6.256  12.262  0.2389 -1.6273  1.3245
 5940TIP3   OH239310   3.338   0.850  14.953 -0.1722  0.0675 -0.0412
 5940TIP3    H139311   3.259   0.819  14.997  0.9983 -1.4295  1.1129
 5940TIP3    H239312   3.329   0.818  14.864 -1.7688  1.6421 -0.5058
 5941TIP3   OH239313   2.405   2.475   1.121  0.0746  0.2740  0.5388
 5941TIP3    H139314   2.391   2.542   1.054 -0.1842  1.9772  2.2294
 5941TIP3    H239315   2.372   2.514   1.202  0.7058 -1.5824  1.7562
 5942TIP3   OH239316   2.065   4.710  11.793 -0.3204 -0.1416  0.1502
 5942TIP3    H139317   2.076   4.659  11.874  0.2289 -1.4627 -0.7290
 5942TIP3    H239318   2.147   4.759  11.785 -0.6216  0.4743  0.6961
 5943TIP3   OH239319   0.200   4.375   4.748  0.5376  0.4956  0.3705
 5943TIP3    H139320   0.291   4.352   4.766  0.2064 -0.6522  0.6740
 5943TIP3    H239321   0.186   4.351   4.656  0.6940  1.2213  0.1492
 5944TIP3   OH239322   5.399   6.355  15.476 -0.1524 -0.5889 -0.0790
 5944TIP3    H139323   5.436   6.272  15.507  0.3993 -0.8638 -1.4133
 5944TIP3    H239324   5.475   6.411  15.461 -0.3350 -0.7331 -1.6605
 5945TIP3   OH239325   0.560   2.121  14.571 -0.1345 -0.1866 -0.0006
 5945TIP3    H139326   0.488   2.119  14.634 -1.8665 -0.3766 -1.8567
 5945TIP3    H239327   0.608   2.202  14.590 -0.6239 -0.2390  1.5114
 5946TIP3   OH239328   4.807   3.270   2.471  0.5825  0.1385  0.5875
 5946TIP3    H139329   4.776   3.334   2.406 -0.3174  1.1922  1.9744
 5946TIP3    H239330   4.858   3.322   2.533 -1.0254 -0.2150  2.3251
 5947TIP3   OH239331   6.802   5.493   5.333  0.2697 -0.7271 -0.4646
 5947TIP3    H139332   6.731   5.429   5.329 -0.1054 -0.4111  0.7092
 5947TIP3    H239333   6.868   5.460   5.273 -0.8489 -1.0466 -1.5532
 5948TIP3   OH239334   3.362   4.409   0.010 -0.0199  0.2624 -0.5283
 5948TIP3    H139335   3.350   4.315   0.019  0.8682  0.1172 -0.7317
 5948TIP3    H239336   3.281   4.440  -0.029 -0.4040 -0.3823 -0.2625
 5949TIP3   OH239337   1.165   2.702   5.687 -0.0148 -0.1228  0.0010
 5949TIP3    H139338   1.179   2.684   5.780  1.6522 -0.2788 -0.2478
 5949TIP3    H239339   1.253   2.702   5.650 -0.7017 -0.5501 -1.6756
 5950TIP3   OH239340   3.631   4.990  15.138  0.1968  0.2082 -0.4368
 5950TIP3    H139341   3.633   4.901  15.103 -1.0459  0.0831 -0.2325
 5950TIP3    H239342   3.640   4.979  15.233  1.8997  0.4435 -0.5366
 5951TIP3   OH239343   4.358   6.326  11.754  0.0016 -0.0773  0.4041
 5951TIP3    H139344   4.334   6.406  11.706 -0.8038  0.7558  2.1249
 5951TIP3    H239345   4.427   6.354  11.814 -1.4864 -0.2276  2.2619
 5952TIP3   OH239346   3.967   4.543  16.313 -0.0026 -0.2263  0.2777
 5952TIP3    H139347   3.943   4.589  16.232  2.3873  0.2154 -0.2494
 5952TIP3    H239348   3.968   4.612  16.379  1.5528  0.1329 -0.0888
 5953TIP3   OH239349   4.428   5.658  12.478 -0.3211 -0.0578  0.0303
 5953TIP3    H139350   4.375   5.729  12.514  1.9342  1.1789  1.1302
 5953TIP3    H239351   4.468   5.695  12.399 -0.6379 -0.8026 -0.4990
 5954TIP3   OH239352   5.145   6.731  16.767 -0.0147  0.6515 -0.0047
 5954TIP3    H139353   5.212   6.746  16.701 -0.3180 -0.3012 -0.5538
 5954TIP3    H239354   5.179   6.660  16.821  0.3440  1.5916  1.0471
 5955TIP3   OH239355   3.356   1.399  17.055 -0.2621 -0.7079  0.3228
 5955TIP3    H139356   3.288   1.464  17.069  0.8467  0.4016  0.7858
 5955TIP3    H239357   3.355   1.344  17.133 -0.8541 -0.9355  0.1589
 5956TIP3   OH239358   1.973   1.087  15.907  0.4390 -0.6833 -0.1814
 5956TIP3    H139359   2.031   1.021  15.870  2.7033  1.0943 -0.0320
 5956TIP3    H239360   1.918   1.115  15.833  2.6391  0.4840 -1.4611
 5957TIP3   OH239361   3.778   5.750   0.578  0.0212  0.3597 -0.0764
 5957TIP3    H139362   3.858   5.802   0.576 -0.5814  1.4406  1.7577
 5957TIP3    H239363   3.726   5.788   0.649 -1.0167 -1.9328  0.4822
 5958TIP3   OH239364   2.858   4.916  10.678  0.0482  0.2183  0.1008
 5958TIP3    H139365   2.829   4.954  10.761  1.3252  0.6035  0.3857
 5958TIP3    H239366   2.863   4.991  10.619  1.5827  0.3579  0.3815
 5959TIP3   OH239367   2.165   1.957  16.178 -0.5785  0.3359  0.6499
 5959TIP3    H139368   2.215   1.980  16.256  0.2126  0.0767  0.2290
 5959TIP3    H239369   2.089   1.910  16.211  1.3281 -2.6785  1.1565
 5960TIP3   OH239370   4.017   4.859  12.753 -0.4052 -0.1660  0.0667
 5960TIP3    H139371   4.095   4.872  12.698 -0.5134 -0.0475 -0.0587
 5960TIP3    H239372   3.999   4.946  12.789  0.2002 -0.4082  1.0068
 5961TIP3   OH239373   5.119   5.832   1.260 -0.2382 -0.2966  0.2529
 5961TIP3    H139374   5.055   5.801   1.324  0.4025  1.5868  1.9272
 5961TIP3    H239375   5.154   5.752   1.220 -2.2558 -1.4349  0.6386
 5962TIP3   OH239376   3.227   0.907   0.749 -0.1444 -0.4228  0.1364
 5962TIP3    H139377   3.137   0.922   0.719  0.3175  2.5394 -0.1160
 5962TIP3    H239378   3.223   0.914   0.844 -0.4482 -2.4096  0.3106
 5963TIP3   OH239379   0.565   3.919  10.672 -0.1887  0.2229 -0.2843
 5963TIP3    H139380   0.560   3.863  10.595  0.2254  1.5146 -1.2839
 5963TIP3    H239381   0.655   3.907  10.704 -0.8735 -1.6836  1.1164
 5964TIP3   OH239382   4.304   4.826  13.346  0.0934  0.2948 -0.0949
 5964TIP3    H139383   4.368   4.754  13.340 -1.0700 -0.7047 -1.1115
 5964TIP3    H239384   4.246   4.800  13.417  1.6756  1.9864  1.9381
 5965TIP3   OH239385   5.736   6.291  17.102 -0.0780 -0.2011  0.5574
 5965TIP3    H139386   5.703   6.318  17.188  1.6561  0.7102  0.9785
 5965TIP3    H239387   5.669   6.231  17.069 -0.6326 -0.8430  2.6711
 5966TIP3   OH239388   6.409   2.341  16.470  0.0015  0.1483  0.1818
 5966TIP3    H139389   6.472   2.412  16.460 -0.6842  0.8914  0.8926
 5966TIP3    H239390   6.369   2.357  16.556  2.0358 -2.9065  1.8836
 5967TIP3   OH239391   4.249   6.431   4.634 -0.3763 -0.1878 -0.9526
 5967TIP3    H139392   4.334   6.445   4.593 -0.5404 -0.0215 -1.2499
 5967TIP3    H239393   4.267   6.385   4.715  0.1802  1.5022 -0.0617
 5968TIP3   OH239394   1.985   1.024  12.255  0.7674  0.0882 -0.4796
 5968TIP3    H139395   1.904   0.992  12.213  1.5250 -2.1867 -0.3789
 5968TIP3    H239396   2.051   0.958  12.231  2.4325  1.5089  0.0339
 5969TIP3   OH239397   5.634   1.519  13.710  0.1396  0.0741 -0.5567
 5969TIP3    H139398   5.724   1.508  13.677  0.0480  0.4800 -0.9572
 5969TIP3    H239399   5.628   1.612  13.730  0.3969 -0.2553  1.2395
 5970TIP3   OH239400   5.734   4.726   5.363  0.5629  0.3559 -0.5329
 5970TIP3    H139401   5.774   4.770   5.288 -0.1769  0.7598 -0.7048
 5970TIP3    H239402   5.645   4.762   5.367  0.5956  0.3583  0.5504
 5971TIP3   OH239403   4.945   1.278  11.858 -0.0833 -0.2004 -0.8347
 5971TIP3    H139404   4.913   1.368  11.858  1.6539  0.4679  0.5910
 5971TIP3    H239405   4.974   1.263  11.769 -2.9117 -0.3721 -1.8388
 5972TIP3   OH239406   1.306   4.399  12.049  0.2465 -0.4055  0.2389
 5972TIP3    H139407   1.274   4.326  12.103  0.4840 -0.6379  0.0714
 5972TIP3    H239408   1.313   4.472  12.109  0.0026 -0.5208  0.4102
 5973TIP3   OH239409   1.256   5.860   0.420 -0.8722  0.3999  0.2169
 5973TIP3    H139410   1.205   5.941   0.421 -2.2171 -0.4030 -0.3185
 5973TIP3    H239411   1.260   5.836   0.327 -0.6512 -0.2574  0.3969
 5974TIP3   OH239412   1.287   0.316   2.042  0.0028  0.0017  0.5098
 5974TIP3    H139413   1.347   0.326   1.968  1.0994 -2.7561  0.9242
 5974TIP3    H239414   1.337   0.350   2.117 -0.7494  1.9073  0.2021
 5975TIP3   OH239415   3.485   5.143  15.901  0.0595 -0.1030  0.0256
 5975TIP3    H139416   3.446   5.228  15.881 -0.4533 -0.2099  0.5386
 5975TIP3    H239417   3.438   5.114  15.980 -0.1602 -1.1082 -0.4687
 5976TIP3   OH239418   4.009   5.239  14.793 -0.4443  0.4822  0.1186
 5976TIP3    H139419   4.059   5.283  14.862  0.7051  0.3963 -0.6361
 5976TIP3    H239420   3.954   5.176  14.840  1.9901 -1.2522  0.8958
 5977TIP3   OH239421   6.518   4.647  14.529 -0.0713 -0.2177 -0.2235
 5977TIP3    H139422   6.591   4.594  14.498 -0.8517 -1.9113  0.6820
 5977TIP3    H239423   6.542   4.737  14.506  1.8112 -0.8270 -0.8391
 5978TIP3   OH239424   1.058   0.571   0.684 -0.2159  0.4414  0.3610
 5978TIP3    H139425   1.090   0.530   0.604  1.0136  0.2007  0.9632
 5978TIP3    H239426   1.077   0.664   0.674 -0.9044  0.5503 -0.0090
 5979TIP3   OH239427   0.197   6.402  13.227 -0.5007  0.4848 -0.5605
 5979TIP3    H139428   0.262   6.463  13.191 -0.5417  0.5584 -0.5112
 5979TIP3    H239429   0.245   6.353  13.294 -0.9586  1.8562  0.8545
 5980TIP3   OH239430   5.708   5.789   1.952  0.1828 -0.0548 -0.1336
 5980TIP3    H139431   5.746   5.710   1.913  3.0852  0.5609  1.1540
 5980TIP3    H239432   5.769   5.859   1.929 -0.8026  1.2744  1.1189
 5981TIP3   OH239433   1.818   6.244  14.438 -0.1003  0.5891 -0.7000
 5981TIP3    H139434   1.742   6.231  14.381 -1.1716  0.9507  0.5744
 5981TIP3    H239435   1.796   6.322  14.489  0.9172  0.4101  0.0434
 5982TIP3   OH239436   3.046   5.537  15.785 -0.0857  0.0004  0.7874
 5982TIP3    H139437   3.068   5.628  15.766  0.0521 -0.3465 -0.8252
 5982TIP3    H239438   3.013   5.539  15.875  0.4014  1.5515  0.9580
 5983TIP3   OH239439   0.356   4.469  12.504 -0.2535  0.3199  0.3906
 5983TIP3    H139440   0.323   4.553  12.475 -1.0589 -0.5443 -1.3235
 5983TIP3    H239441   0.291   4.438  12.568 -0.2353  0.7346  0.6124
 5984TIP3   OH239442   4.263   0.288  13.533  0.3386  0.6814 -0.4180
 5984TIP3    H139443   4.175   0.253  13.540  0.6209 -0.3826 -1.8436
 5984TIP3    H239444   4.316   0.232  13.590  0.5160 -0.2966 -1.5133
 5985TIP3   OH239445   4.010   2.074   6.770  0.0220 -0.5636  0.7476
 5985TIP3    H139446   3.935   2.126   6.741  1.0726  0.4444 -0.2511
 5985TIP3    H239447   3.996   1.988   6.731  0.5967  0.3130 -1.5190
 5986TIP3   OH239448   3.819   1.443  14.282 -0.2576  0.5207 -0.0303
 5986TIP3    H139449   3.795   1.509  14.347 -1.8801 -0.0945  0.0392
 5986TIP3    H239450   3.770   1.468  14.203  0.3843  0.3126 -0.5016
 5987TIP3   OH239451   0.549   6.419   5.306 -0.7066 -0.0509 -0.2367
 5987TIP3    H139452   0.478   6.390   5.248  0.0111 -2.9297  0.1667
 5987TIP3    H239453   0.531   6.375   5.389  0.5836  0.6421  0.4328
 5988TIP3   OH239454   3.273   1.053  11.915 -0.1395 -0.9656 -0.2452
 5988TIP3    H139455   3.267   1.040  11.820 -1.2163 -0.6996 -0.2260
 5988TIP3    H239456   3.365   1.074  11.931  0.5054 -2.9856 -0.9802
 5989TIP3   OH239457   6.207   1.191  13.871  0.1146 -0.2597 -0.1293
 5989TIP3    H139458   6.217   1.112  13.923 -0.6550 -0.8958 -0.9099
 5989TIP3    H239459   6.203   1.262  13.935 -0.5270 -0.9932  0.6617
 5990TIP3   OH239460   2.003   5.115   4.331  0.1872 -0.3543 -0.1628
 5990TIP3    H139461   1.981   5.207   4.312 -1.8038 -0.3501  1.7797
 5990TIP3    H239462   2.068   5.120   4.401 -0.8081 -0.3903  0.7888
 5991TIP3   OH239463   1.389   3.715  16.563 -0.1401 -0.0242 -0.5683
 5991TIP3    H139464   1.337   3.652  16.514 -0.6985 -0.2298  0.2701
 5991TIP3    H239465   1.428   3.772  16.497 -3.3537  1.6849 -1.1716
 5992TIP3   OH239466   3.654   4.644   6.465  0.0781 -0.3044  0.6235
 5992TIP3    H139467   3.687   4.699   6.394  0.3038 -1.0430  0.1436
 5992TIP3    H239468   3.594   4.700   6.513  0.3402  0.3754  0.1743
 5993TIP3   OH239469   3.915   0.685   5.919 -0.0159  0.8068  0.0619
 5993TIP3    H139470   3.856   0.610   5.923  1.2872 -0.2210  1.0350
 5993TIP3    H239471   3.857   0.761   5.914 -1.4573 -0.0778  1.9532
 5994TIP3   OH239472   4.079   4.880   0.343  0.0022  0.2785 -0.5220
 5994TIP3    H139473   4.030   4.803   0.373 -0.7855  0.7929 -0.4472
 5994TIP3    H239474   4.112   4.855   0.257 -1.3225  0.2803 -1.0638
 5995TIP3   OH239475   5.856   4.719  16.327  0.1965  0.0097  0.5602
 5995TIP3    H139476   5.942   4.754  16.349  0.4511  1.0794 -1.8229
 5995TIP3    H239477   5.859   4.628  16.357  2.4516 -0.2012 -0.1405
 5996TIP3   OH239478   1.806   6.034   0.953 -0.1859  0.4368  0.1575
 5996TIP3    H139479   1.747   6.109   0.953 -1.5479 -0.5837  1.7616
 5996TIP3    H239480   1.768   5.973   0.889  1.3889  1.3675 -1.8034
 5997TIP3   OH239481   4.172   0.396   2.913 -0.2966 -0.3825  0.0205
 5997TIP3    H139482   4.165   0.481   2.958 -0.8254 -0.9397  1.0368
 5997TIP3    H239483   4.124   0.408   2.832  0.3287  0.5343 -0.2312
 5998TIP3   OH239484   0.384   1.084  12.076 -1.1754  0.1448 -0.0660
 5998TIP3    H139485   0.467   1.103  12.034 -0.9907 -0.6300 -0.0652
 5998TIP3    H239486   0.353   1.169  12.107 -0.7331  0.5435 -0.6887
 5999TIP3   OH239487   0.338   6.136  13.259  0.1102 -0.5909  0.6222
 5999TIP3    H139488   0.328   6.143  13.164 -2.1475 -1.6144  0.7178
 5999TIP3    H239489   0.415   6.080  13.271  0.2581 -0.6797 -0.5999
 6000TIP3   OH239490   4.892   3.062   1.385 -0.2396 -0.2057  0.6113
 6000TIP3    H139491   4.922   3.127   1.321  0.1256 -0.7752  0.1950
 6000TIP3    H239492   4.970   3.011   1.405 -0.8068 -1.4056 -0.1256
 6001TIP3   OH239493   0.692   0.946   2.431  0.0567 -0.7621  0.0996
 6001TIP3    H139494   0.630   0.930   2.502  0.4864  0.2260  0.7233
 6001TIP3    H239495   0.751   1.013   2.466  2.0665 -2.3231 -0.1095
 6002TIP3   OH239496   6.138   1.373  14.649 -0.3284 -0.8081  0.1433
 6002TIP3    H139497   6.063   1.401  14.596  0.1078 -1.3022 -0.7564
 6002TIP3    H239498   6.100   1.343  14.731 -1.2835 -2.5852 -0.9001
 6003TIP3   OH239499   6.012   1.767   3.032 -0.5844 -0.1389  0.0470
 6003TIP3    H139500   6.104   1.739   3.037 -0.0505  1.2521 -1.2129
 6003TIP3    H239501   5.965   1.706   3.088  1.1711 -0.6517  1.0336
 6004TIP3   OH239502   4.955   3.215  11.642 -0.1888  0.7896  0.2778
 6004TIP3    H139503   5.049   3.198  11.649 -0.3344 -0.2008 -0.0500
 6004TIP3    H239504   4.919   3.187  11.727 -0.3880 -0.3301 -0.1567
 6005TIP3   OH239505   5.959   3.214   3.603 -0.5694  0.1289 -0.5549
 6005TIP3    H139506   6.025   3.277   3.632  0.1548  0.7772 -3.3448
 6005TIP3    H239507   5.888   3.268   3.567 -1.7089 -0.6261  0.4534
 6006TIP3   OH239508   1.044   4.925  11.336 -0.7105  0.4114  0.2961
 6006TIP3    H139509   0.971   4.987  11.327 -1.3701 -0.4809 -0.6923
 6006TIP3    H239510   1.006   4.841  11.312  0.8202  0.0359 -0.9186
 6007TIP3   OH239511   1.226   5.047   1.123  0.3947 -0.3102 -0.3426
 6007TIP3    H139512   1.254   5.122   1.070 -0.1307 -0.0916 -0.3092
 6007TIP3    H239513   1.281   4.975   1.093  1.5585  0.2935  0.2665
 6008TIP3   OH239514   0.361   2.578  16.265  0.3028 -0.8489 -0.1889
 6008TIP3    H139515   0.417   2.536  16.329 -0.2670  0.7483  1.4359
 6008TIP3    H239516   0.421   2.624  16.206  0.7768 -0.4494  0.5918
 6009TIP3   OH239517   4.553   5.218  12.517 -0.1849  0.3082 -0.5189
 6009TIP3    H139518   4.587   5.295  12.563  1.6448 -0.1020 -1.1082
 6009TIP3    H239519   4.522   5.160  12.587 -0.3200  0.9998  0.0019
 6010TIP3   OH239520   2.247   5.744  13.056 -0.1549 -0.5205  0.1761
 6010TIP3    H139521   2.181   5.741  13.125 -0.2695 -3.2086  0.0809
 6010TIP3    H239522   2.235   5.662  13.008  1.2220  0.3590 -1.8197
 6011TIP3   OH239523   2.796   6.433   2.309 -0.8949  0.5205  0.3103
 6011TIP3    H139524   2.724   6.373   2.331 -0.3872  0.2645  1.3441
 6011TIP3    H239525   2.793   6.439   2.214 -0.2946 -2.0362  0.0354
 6012TIP3   OH239526   0.654   5.827   1.313 -0.3565 -0.4424  0.1080
 6012TIP3    H139527   0.576   5.777   1.289 -0.9699  1.1671 -1.5064
 6012TIP3    H239528   0.725   5.787   1.264 -0.3400 -1.2456  0.7599
 6013TIP3   OH239529   4.674   5.673   6.199 -0.3326 -0.0912  0.0949
 6013TIP3    H139530   4.637   5.654   6.113 -0.3658  0.6180 -0.0561
 6013TIP3    H239531   4.597   5.686   6.255 -0.3132 -0.1174  0.1272
 6014TIP3   OH239532   0.475   3.223  11.077 -0.4063  0.0707  0.5378
 6014TIP3    H139533   0.484   3.306  11.031  2.5946 -0.4904 -0.1408
 6014TIP3    H239534   0.388   3.226  11.116 -0.5782  3.3145  0.1731
 6015TIP3   OH239535   3.099   4.949   5.758  0.3740 -0.4636  0.3044
 6015TIP3    H139536   3.015   4.972   5.800  0.0323 -1.5351  0.2487
 6015TIP3    H239537   3.075   4.886   5.690  1.1904 -0.4979  0.0406
 6016TIP3   OH239538   5.121   2.929  14.141  0.2799 -0.2179 -0.1226
 6016TIP3    H139539   5.184   2.986  14.186  0.1669  0.7284 -1.1187
 6016TIP3    H239540   5.038   2.944  14.186  0.3995 -0.1385  0.0720
 6017TIP3   OH239541   5.550   5.785   1.292 -0.0068  0.7079 -0.0720
 6017TIP3    H139542   5.563   5.717   1.358 -0.9718 -0.6296 -1.2191
 6017TIP3    H239543   5.617   5.770   1.226 -1.7688 -0.8241 -1.6312
 6018TIP3   OH239544   4.322   2.147   2.180  0.2533 -1.2367 -0.4765
 6018TIP3    H139545   4.413   2.118   2.178  0.2906 -1.1410 -0.1300
 6018TIP3    H239546   4.282   2.099   2.252  0.2183 -0.7217 -0.1495
 6019TIP3   OH239547   3.009   3.001   0.998  0.3968  0.2479 -0.6623
 6019TIP3    H139548   3.093   2.968   0.966  0.8451  0.3753  0.3497
 6019TIP3    H239549   2.966   3.036   0.920  1.0434 -0.3232 -1.2864
 6020TIP3   OH239550   6.473   2.913  12.158 -0.9969 -0.3030 -0.0639
 6020TIP3    H139551   6.429   2.900  12.074  0.1777  0.7324 -0.8695
 6020TIP3    H239552   6.408   2.959  12.212 -1.3322  0.1286 -0.8243
 6021TIP3   OH239553   3.716   5.085   0.010 -0.2264  0.0243  0.0743
 6021TIP3    H139554   3.701   4.991  -0.001  2.5868 -0.2158 -3.7355
 6021TIP3    H239555   3.798   5.090   0.060  0.1832  0.3499 -0.6075
 6022TIP3   OH239556   6.337   0.032  12.695  0.0726 -0.3110 -0.0394
 6022TIP3    H139557   6.403  -0.008  12.639  0.1883 -1.0444  0.6077
 6022TIP3    H239558   6.360   0.004  12.784 -1.9732 -1.8571  0.0603
 6023TIP3   OH239559   5.060   2.395  15.143 -0.2236  0.1086 -0.2737
 6023TIP3    H139560   5.121   2.340  15.093 -0.0509  1.0642 -1.1319
 6023TIP3    H239561   4.975   2.377  15.104 -0.3562 -0.4445  0.2473
 6024TIP3   OH239562   4.745   2.765   1.424 -0.4557  0.1507 -0.2555
 6024TIP3    H139563   4.776   2.837   1.368  0.9632  0.8508  1.3489
 6024TIP3    H239564   4.654   2.751   1.397 -0.7917  2.5840 -0.5996
 6025TIP3   OH239565   0.383   2.029   2.513 -0.4156 -0.2764 -0.1632
 6025TIP3    H139566   0.461   1.981   2.486 -1.0250 -1.3071 -0.1255
 6025TIP3    H239567   0.397   2.118   2.479 -0.1022 -0.9353 -1.8606
 6026TIP3   OH239568   5.582   5.908  15.223 -0.2549  0.1809 -0.1806
 6026TIP3    H139569   5.527   5.857  15.282  0.0500  0.4116  0.3058
 6026TIP3    H239570   5.595   5.850  15.147 -2.5858  0.7611 -1.1085
 6027TIP3   OH239571   4.695   1.601  17.121 -0.2706  0.5353 -0.4020
 6027TIP3    H139572   4.711   1.693  17.141  1.3216  0.5023 -1.3472
 6027TIP3    H239573   4.770   1.575  17.067  0.6005 -1.9633  1.7940
 6028TIP3   OH239574   0.615   4.944   5.935 -0.2527 -0.4429 -0.0350
 6028TIP3    H139575   0.582   5.012   5.876 -1.2532 -0.5351  0.4039
 6028TIP3    H239576   0.700   4.920   5.899 -0.5369  0.0062 -1.0280
 6029TIP3   OH239577   0.530   6.345  15.085  0.0019 -0.1038 -0.1779
 6029TIP3    H139578   0.512   6.380  14.997 -1.2085  1.9811  0.8003
 6029TIP3    H239579   0.470   6.271  15.094 -0.3077  0.0474 -0.9030
 6030TIP3   OH239580   6.447   2.645   2.511  0.1109 -0.2927  0.2471
 6030TIP3    H139581   6.504   2.607   2.577 -0.1109 -0.0225  0.5943
 6030TIP3    H239582   6.407   2.720   2.553  0.0545 -0.0481 -0.2309
 6031TIP3   OH239583   4.732   5.376  14.487  0.0480 -0.0896  0.5085
 6031TIP3    H139584   4.798   5.334  14.432  0.8604  1.1573  0.4931
 6031TIP3    H239585   4.677   5.425  14.426 -0.6915 -0.8316  0.5593
 6032TIP3   OH239586   1.985   0.198  12.306 -0.3520  0.3049 -0.0199
 6032TIP3    H139587   1.982   0.253  12.385  0.4818  0.8662 -0.3718
 6032TIP3    H239588   1.896   0.163  12.299  0.0294 -1.3663  2.2874
 6033TIP3   OH239589   0.046   1.066   1.011 -0.2297 -0.7196  0.0285
 6033TIP3    H139590  -0.027   1.005   0.998 -2.4739  2.0155 -1.1857
 6033TIP3    H239591   0.059   1.106   0.926  0.5573  1.1153  0.9744
 6034TIP3   OH239592   4.451   5.114  12.765 -0.3610 -0.1978 -0.2455
 6034TIP3    H139593   4.467   5.193  12.816  1.7750 -0.7080 -0.0556
 6034TIP3    H239594   4.535   5.069  12.763 -1.6337 -2.7773  0.1477
 6035TIP3   OH239595   0.573   5.193   2.714 -0.8800 -0.6148 -0.3857
 6035TIP3    H139596   0.613   5.216   2.630  1.0283 -2.5538 -0.1055
 6035TIP3    H239597   0.479   5.189   2.695 -0.5795 -0.1186 -2.1972
 6036TIP3   OH239598   0.501   4.585   1.792 -0.1786  0.2270 -0.3418
 6036TIP3    H139599   0.455   4.629   1.864 -1.4093 -0.6988 -0.5134
 6036TIP3    H239600   0.511   4.653   1.725 -3.4230  0.0077 -1.2409
 6037TIP3   OH239601   5.989   4.967   1.694 -0.3550  0.5646 -0.5064
 6037TIP3    H139602   6.078   4.939   1.714  0.3655  2.6826 -0.4062
 6037TIP3    H239603   5.978   4.949   1.600  0.7874  1.6852 -0.8813
 6038TIP3   OH239604   0.506   2.440   4.885  0.0744  0.1793 -0.2606
 6038TIP3    H139605   0.483   2.522   4.930  0.5559  1.0174 -1.4765
 6038TIP3    H239606   0.598   2.453   4.859  0.1540 -0.7549 -0.4606
 6039TIP3   OH239607   0.055   3.787  16.494 -0.0971 -0.0916  0.2051
 6039TIP3    H139608   0.072   3.703  16.537  0.8023 -1.7004 -3.0015
 6039TIP3    H239609  -0.011   3.829  16.549 -1.9229 -3.6589  1.0127
 6040TIP3   OH239610   2.894   4.906  16.734  0.0007 -0.1923 -0.1725
 6040TIP3    H139611   2.800   4.916  16.718 -0.2895 -0.2710  1.3740
 6040TIP3    H239612   2.918   4.981  16.787  1.2286  0.7892 -2.0063
 6041TIP3   OH239613   4.242   5.995  13.889 -0.1190 -0.0226  0.1439
 6041TIP3    H139614   4.264   6.070  13.834  0.3673 -0.3435 -0.1066
 6041TIP3    H239615   4.149   5.978  13.870 -0.9736  2.0578  2.0674
 6042TIP3   OH239616   0.060   3.655   0.178 -0.2012 -0.1531  0.4385
 6042TIP3    H139617   0.100   3.728   0.131 -1.2057  0.8680  1.1320
 6042TIP3    H239618   0.059   3.584   0.114  0.1530  0.6363 -0.4750
 6043TIP3   OH239619   5.530   4.429   4.062 -0.4413 -0.5842  0.1309
 6043TIP3    H139620   5.600   4.365   4.053  1.1722  0.8056  1.8230
 6043TIP3    H239621   5.491   4.435   3.975  1.6723 -1.2867 -0.9378
 6044TIP3   OH239622   1.477   3.264   5.298  0.2465 -0.4853  0.3950
 6044TIP3    H139623   1.560   3.227   5.266 -0.2411 -1.2464 -0.0105
 6044TIP3    H239624   1.478   3.354   5.267  0.4503 -0.7917 -0.5184
 6045TIP3   OH239625   4.461   0.007  11.450 -0.0222 -0.1661  0.1054
 6045TIP3    H139626   4.469   0.006  11.355 -1.4639  2.2137 -0.1357
 6045TIP3    H239627   4.378  -0.037  11.468  0.0166 -0.1950  0.2160
 6046TIP3   OH239628   0.601   0.646   4.973  0.2915 -0.3794 -0.5656
 6046TIP3    H139629   0.562   0.580   4.916  0.0628  0.6402 -1.6254
 6046TIP3    H239630   0.684   0.608   5.000 -0.3137 -1.5552 -0.2579
 6047TIP3   OH239631   2.706   4.945  10.926 -0.1587 -0.6148 -0.0530
 6047TIP3    H139632   2.712   4.998  11.006  0.1551 -1.7505  0.7107
 6047TIP3    H239633   2.633   4.982  10.878 -0.0414  0.4080  0.5281
 6048TIP3   OH239634   2.434   6.633  10.882  0.3965 -0.2432  0.2043
 6048TIP3    H139635   2.461   6.725  10.892  0.8132 -0.3425 -0.0185
 6048TIP3    H239636   2.476   6.588  10.955 -1.6992  0.1362  1.7429
 6049TIP3   OH239637   6.330   0.023  13.797 -0.1164  0.0848 -0.0274
 6049TIP3    H139638   6.289   0.041  13.881  0.0739  0.4036 -0.0030
 6049TIP3    H239639   6.417   0.061  13.803 -0.0993  0.1083 -0.3680
 6050TIP3   OH239640   2.845   4.518   5.481 -0.3074 -0.4225  0.1072
 6050TIP3    H139641   2.861   4.426   5.461  2.0895 -0.1590  0.4123
 6050TIP3    H239642   2.773   4.517   5.543  1.5969 -2.4248  2.5400
 6051TIP3   OH239643   0.321   4.471   2.586 -0.3170 -0.0784  0.7753
 6051TIP3    H139644   0.243   4.455   2.532 -0.8606  1.2298  1.1197
 6051TIP3    H239645   0.355   4.384   2.606 -0.0907 -0.6394 -1.6507
 6052TIP3   OH239646   1.339   6.745   5.264 -0.4164  0.0884  0.3478
 6052TIP3    H139647   1.378   6.718   5.348 -1.3304 -0.1570  0.6986
 6052TIP3    H239648   1.260   6.693   5.256 -0.9654  0.9682 -0.1038
 6053TIP3   OH239649   5.633   1.087  13.022 -0.1211  0.1864  0.5117
 6053TIP3    H139650   5.670   1.002  13.046 -0.5109 -0.1200  0.0393
 6053TIP3    H239651   5.709   1.145  13.016  0.3712 -0.5615 -1.0311
 6054TIP3   OH239652   5.331   5.367  15.675 -0.5411 -0.6520  0.5423
 6054TIP3    H139653   5.243   5.404  15.674 -0.9886 -1.6692 -1.4654
 6054TIP3    H239654   5.389   5.443  15.673 -1.4172  0.0140 -1.2688
 6055TIP3   OH239655   3.354   0.220  13.448 -0.3772 -0.1983 -0.6450
 6055TIP3    H139656   3.367   0.313  13.432  0.0951 -0.2026 -0.3298
 6055TIP3    H239657   3.348   0.212  13.543  0.5065 -0.5897 -0.6068
 6056TIP3   OH239658   6.108   2.031   4.012 -0.7403 -0.2965  0.2055
 6056TIP3    H139659   6.079   2.074   4.093 -0.8026 -0.9099  0.5132
 6056TIP3    H239660   6.192   2.072   3.992  0.0905 -1.2765  1.4991
 6057TIP3   OH239661   4.712   5.034   0.469  0.5147  0.2304  0.2215
 6057TIP3    H139662   4.735   5.113   0.420  2.3364  0.4918  1.3777
 6057TIP3    H239663   4.749   5.049   0.557 -1.6899 -0.6698  1.3764
 6058TIP3   OH239664   2.423   3.489  11.912  0.2710 -0.2034  0.3389
 6058TIP3    H139665   2.506   3.522  11.879  1.2935 -1.1582  1.8277
 6058TIP3    H239666   2.381   3.449  11.836  0.5548  1.4089 -0.7173
 6059TIP3   OH239667   5.246   5.340  13.166 -0.2489  1.0695  0.0627
 6059TIP3    H139668   5.261   5.417  13.221 -0.3481  1.6060 -0.6407
 6059TIP3    H239669   5.307   5.351  13.093 -0.5065  0.6572 -0.2168
 6060TIP3   OH239670   2.511   0.390   1.622  0.5977 -0.2961 -0.2819
 6060TIP3    H139671   2.549   0.364   1.706  0.5434  0.4346 -0.0240
 6060TIP3    H239672   2.475   0.310   1.586 -0.0516 -0.4764  0.7397
 6061TIP3   OH239673   1.842   6.630   1.600  0.4886  0.1176 -0.0867
 6061TIP3    H139674   1.857   6.540   1.571  0.1036  0.4106 -1.2483
 6061TIP3    H239675   1.929   6.664   1.617  0.8047  0.1512 -1.6370
 6062TIP3   OH239676   5.432   4.535  11.455  0.0462 -0.3067 -0.3891
 6062TIP3    H139677   5.527   4.536  11.440  0.2716  2.0041  0.7960
 6062TIP3    H239678   5.395   4.569  11.374  0.3832  0.5106 -0.2113
 6063TIP3   OH239679   6.471   4.779   2.066  0.3453 -0.0404  0.7176
 6063TIP3    H139680   6.541   4.831   2.027  0.2773 -0.3686  0.1573
 6063TIP3    H239681   6.474   4.801   2.159 -0.4286  1.8575  0.3505
 6064TIP3   OH239682   4.135   1.564   3.032  0.0078 -0.2982  0.3828
 6064TIP3    H139683   4.082   1.636   2.996  1.3374  0.8504  0.6212
 6064TIP3    H239684   4.172   1.521   2.955 -1.1910 -1.0660  0.2172
 6065TIP3   OH239685   5.132   1.103  16.651 -0.3516 -0.5816 -0.8513
 6065TIP3    H139686   5.153   1.153  16.572  1.3668  0.1682  0.0204
 6065TIP3    H239687   5.178   1.020  16.640  1.2483  0.1309 -0.0095
 6066TIP3   OH239688   4.670   0.933  15.338  0.0894 -0.1060  0.0681
 6066TIP3    H139689   4.756   0.891  15.334  0.0884 -0.2416  1.1572
 6066TIP3    H239690   4.669   0.992  15.263  1.5467  0.6457  0.6021
 6067TIP3   OH239691   0.782   6.262  15.277  0.5049  0.9067 -0.2244
 6067TIP3    H139692   0.703   6.297  15.319  1.2211 -0.6917  2.7416
 6067TIP3    H239693   0.837   6.339  15.261 -0.7832  1.8215 -0.4315
 6068TIP3   OH239694   1.109   1.764   4.313 -0.1167 -0.2959 -0.4721
 6068TIP3    H139695   1.058   1.752   4.233  0.2996 -1.0227 -0.6424
 6068TIP3    H239696   1.088   1.688   4.367  0.6217 -0.5007 -0.4629
 6069TIP3   OH239697   0.548   2.375  11.606  0.0072 -0.7489 -0.2780
 6069TIP3    H139698   0.471   2.381  11.549 -0.4955 -1.4767  0.3106
 6069TIP3    H239699   0.614   2.429  11.562 -1.4606  1.6586  0.2582
 6070TIP3   OH239700   0.916   6.789  13.829  0.1606  0.9003  0.5659
 6070TIP3    H139701   0.829   6.811  13.861 -0.0714 -2.1697  2.5345
 6070TIP3    H239702   0.975   6.809  13.902  0.5783 -0.2466  0.5692
 6071TIP3   OH239703   6.436   1.244  11.921  0.4207  0.0836  0.0355
 6071TIP3    H139704   6.472   1.308  11.860  0.6843 -0.4894 -0.4187
 6071TIP3    H239705   6.512   1.197  11.955  0.0955 -1.9091 -1.7980
 6072TIP3   OH239706   4.512   0.305  13.346 -0.1164  0.2463 -0.3549
 6072TIP3    H139707   4.588   0.356  13.373  0.7699 -1.2806  0.1229
 6072TIP3    H239708   4.452   0.312  13.421  0.3604 -0.0813  0.0691
 6073TIP3   OH239709   6.411   0.313  14.446  0.1913  0.3281  0.0953
 6073TIP3    H139710   6.371   0.230  14.473 -1.6309  0.9517 -0.5118
 6073TIP3    H239711   6.428   0.302  14.352 -0.9993  0.9466 -0.2201
 6074TIP3   OH239712   1.618   2.596   5.899 -0.5946 -0.3247  0.0521
 6074TIP3    H139713   1.652   2.680   5.867 -0.9754 -0.4074 -0.5798
 6074TIP3    H239714   1.580   2.554   5.822 -0.9368 -0.8217  0.4816
 6075TIP3   OH239715   5.799   2.565  11.546  0.0888 -0.2963  0.1207
 6075TIP3    H139716   5.722   2.515  11.518  0.4504 -1.8008  1.5746
 6075TIP3    H239717   5.789   2.650  11.505 -1.7731 -0.8201 -0.6374
 6076TIP3   OH239718   2.424   3.581   4.703  0.1092 -0.0122 -0.4622
 6076TIP3    H139719   2.461   3.493   4.699  3.0290  1.1532 -1.1875
 6076TIP3    H239720   2.418   3.609   4.612 -1.8771  0.1955 -0.3179
 6077TIP3   OH239721   3.122   1.036   0.351 -0.2599 -0.0691 -0.2156
 6077TIP3    H139722   3.089   0.946   0.353 -1.4052  0.3043 -1.0598
 6077TIP3    H239723   3.048   1.087   0.319 -0.0119  1.3604  1.3743
 6078TIP3   OH239724   4.806   1.491   1.107 -0.2676  0.1177  0.4848
 6078TIP3    H139725   4.725   1.479   1.059 -0.7028  0.1485  1.1909
 6078TIP3    H239726   4.807   1.420   1.172  0.3968 -0.0390  0.3131
 6079TIP3   OH239727   2.308   0.599  13.560 -0.3167 -0.2925 -0.2396
 6079TIP3    H139728   2.355   0.617  13.641 -0.5882 -1.1961  0.1342
 6079TIP3    H239729   2.253   0.675  13.545  0.0210  0.0418  0.2204
 6080TIP3   OH239730   3.918   1.665  11.889  0.1511  0.3594  0.0146
 6080TIP3    H139731   3.957   1.731  11.946 -0.8068 -0.7038  1.9965
 6080TIP3    H239732   3.989   1.604  11.870  0.3993  0.5639  0.2870
 6081TIP3   OH239733   0.757   1.359  14.001  0.2936 -0.1399 -0.0673
 6081TIP3    H139734   0.765   1.334  13.909 -0.6677 -0.1211 -0.1683
 6081TIP3    H239735   0.847   1.364  14.033  0.7562  1.7158 -1.4968
 6082TIP3   OH239736   6.206   5.475  10.809 -0.2164  0.1867  0.6034
 6082TIP3    H139737   6.229   5.554  10.760  0.3081  0.0459  0.6130
 6082TIP3    H239738   6.253   5.405  10.765 -0.4378 -0.0728  0.7785
 6083TIP3   OH239739   6.490   1.875  16.231  0.7615  0.0633  0.3572
 6083TIP3    H139740   6.421   1.912  16.176  2.9093  2.2558 -1.0587
 6083TIP3    H239741   6.480   1.781  16.221 -0.0967  0.3378 -2.4255
 6084TIP3   OH239742   2.255   3.264   2.494  0.8840 -0.1509  0.1842
 6084TIP3    H139743   2.227   3.232   2.408  0.1018  1.2573 -0.1103
 6084TIP3    H239744   2.351   3.271   2.487  0.8403 -0.1854 -0.5231
 6085TIP3   OH239745   5.744   4.422   4.839  0.1081  0.1976  0.0474
 6085TIP3    H139746   5.765   4.343   4.789  0.1490  0.2065  0.0509
 6085TIP3    H239747   5.788   4.411   4.923 -2.4246 -1.2355  1.2849
 6086TIP3   OH239748   0.140   5.916  13.973  0.3590  0.0376 -0.0396
 6086TIP3    H139749   0.207   5.848  13.980 -0.0979 -0.2928  1.4929
 6086TIP3    H239750   0.168   5.970  13.899  2.5379  0.1422  0.7981
 6087TIP3   OH239751   1.690   1.926   2.755 -0.2112 -0.5651  0.2611
 6087TIP3    H139752   1.750   2.000   2.742 -1.2716  0.1380 -0.8943
 6087TIP3    H239753   1.713   1.864   2.686 -0.4034 -0.5641  0.1948
 6088TIP3   OH239754   3.313   1.499  13.908 -0.6139  0.2088  0.5442
 6088TIP3    H139755   3.399   1.530  13.881 -0.9207 -0.8299 -1.8767
 6088TIP3    H239756   3.330   1.420  13.959 -0.1331  0.1070  0.2291
 6089TIP3   OH239757   5.936   5.634   2.891  0.1295  0.6807  0.6739
 6089TIP3    H139758   5.850   5.615   2.928 -1.4910  1.7741 -2.1972
 6089TIP3    H239759   5.994   5.643   2.967 -2.0399 -1.0511  2.6675
 6090TIP3   OH239760   1.928   0.430   6.357  0.4223  0.0961  0.1060
 6090TIP3    H139761   1.917   0.442   6.451  1.5766 -1.4597  0.4790
 6090TIP3    H239762   1.854   0.375   6.331  0.7594 -0.4748  0.3424
 6091TIP3   OH239763   3.883   3.778  16.003 -0.6905  0.3697  0.1849
 6091TIP3    H139764   3.848   3.867  16.003 -1.0448  0.2431 -0.8244
 6091TIP3    H239765   3.965   3.784  16.052 -0.8472  1.1980  0.3566
 6092TIP3   OH239766   0.925   3.293   0.738 -0.2033 -0.4012  0.5991
 6092TIP3    H139767   0.875   3.232   0.683  0.1680 -0.5012  0.3679
 6092TIP3    H239768   0.933   3.372   0.685  1.1993 -0.9105 -0.0093
 6093TIP3   OH239769   5.687   1.518   0.026  0.4063 -0.1186 -0.2774
 6093TIP3    H139770   5.777   1.509   0.057  0.7933  0.2258 -1.2605
 6093TIP3    H239771   5.640   1.445   0.067  1.0060 -0.0076  0.6508
 6094TIP3   OH239772   3.379   6.549   3.444  0.2220 -0.1066 -0.2905
 6094TIP3    H139773   3.297   6.516   3.407 -0.1955  0.7331 -0.1382
 6094TIP3    H239774   3.395   6.493   3.520 -0.2880 -0.1981 -0.2415
 6095TIP3   OH239775   0.121   0.601   0.819 -0.1742 -0.0724 -0.7527
 6095TIP3    H139776   0.034   0.563   0.836  0.0691 -0.5144 -0.4718
 6095TIP3    H239777   0.103   0.692   0.796 -0.7180 -0.1701 -0.7310
 6096TIP3   OH239778   1.402   3.633   0.888 -0.1400  0.1840  0.1315
 6096TIP3    H139779   1.473   3.610   0.827  0.7913 -0.6676  1.4842
 6096TIP3    H239780   1.345   3.690   0.837  1.0650  0.2075 -1.2748
 6097TIP3   OH239781   0.806   5.844   4.189 -0.2444 -0.5628 -0.0216
 6097TIP3    H139782   0.894   5.821   4.219 -0.8342 -0.8464  1.5901
 6097TIP3    H239783   0.749   5.827   4.264 -1.8025 -1.1033 -1.2492
 6098TIP3   OH239784   3.592   5.598   2.138 -0.4272 -0.3296 -0.5630
 6098TIP3    H139785   3.569   5.575   2.048 -1.2224  0.8766 -0.6879
 6098TIP3    H239786   3.512   5.579   2.189 -0.3877  0.1507 -0.3202
 6099TIP3   OH239787   1.471   6.709  13.478  0.5952  0.1225 -0.5282
 6099TIP3    H139788   1.547   6.650  13.482  0.4232 -0.0622  0.3593
 6099TIP3    H239789   1.402   6.662  13.525  0.4249  0.9862  0.1119
 6100TIP3   OH239790   3.762   4.775  13.733 -0.6087  0.5591 -0.6584
 6100TIP3    H139791   3.793   4.863  13.711  0.1586  0.1827 -1.1161
 6100TIP3    H239792   3.780   4.766  13.827  1.5228  0.0424 -1.0629
 6101TIP3   OH239793   4.819   5.936   3.959  0.3286 -0.4546  0.1934
 6101TIP3    H139794   4.745   5.907   4.013  0.5265 -0.4847  0.4534
 6101TIP3    H239795   4.817   5.879   3.882 -0.9701  0.6805 -0.6517
 6102TIP3   OH239796   1.998   2.474   4.111 -0.3733  0.2566 -0.2797
 6102TIP3    H139797   2.022   2.546   4.053  0.9727  1.1165  1.2477
 6102TIP3    H239798   2.022   2.505   4.199 -1.0877 -1.5011  0.5877
 6103TIP3   OH239799   1.142   5.820  11.725 -0.4059  0.1356 -0.3477
 6103TIP3    H139800   1.052   5.816  11.692 -0.1762  0.4970 -1.0309
 6103TIP3    H239801   1.196   5.826  11.646  0.0040  4.1149  0.0394
 6104TIP3   OH239802   3.968   5.088  15.116 -0.0727  0.1385  0.4283
 6104TIP3    H139803   3.931   5.052  15.197  0.8906 -0.6749  0.5350
 6104TIP3    H239804   3.893   5.097  15.057 -0.7629  0.5816  1.3461
 6105TIP3   OH239805   3.173   5.202  10.543 -0.0588 -0.1648 -0.2834
 6105TIP3    H139806   3.151   5.120  10.498 -0.5043  0.4305 -1.1696
 6105TIP3    H239807   3.241   5.242  10.489  0.6285 -0.2347  0.4914
 6106TIP3   OH239808   2.997   2.956  11.492  0.5569 -0.1448  0.0293
 6106TIP3    H139809   2.941   2.995  11.559  0.7705  1.0087 -0.4328
 6106TIP3    H239810   2.939   2.937  11.419  0.3825 -1.0926  0.4021
 6107TIP3   OH239811   5.747   3.219  16.008  0.2121 -0.1796  0.9602
 6107TIP3    H139812   5.841   3.212  15.996  0.2075  0.7636  0.2917
 6107TIP3    H239813   5.712   3.234  15.921 -0.6283 -1.0918  1.1198
 6108TIP3   OH239814   2.932   6.593   5.112 -0.2960  0.2038 -0.1616
 6108TIP3    H139815   3.017   6.636   5.108 -1.3920  2.4522 -0.4055
 6108TIP3    H239816   2.952   6.500   5.099  2.1293  0.6230  0.1255
 6109TIP3   OH239817   3.634   2.108  16.165 -0.3876 -0.0598 -0.1762
 6109TIP3    H139818   3.678   2.138  16.086 -0.7646  0.3599 -0.2287
 6109TIP3    H239819   3.600   2.187  16.206  0.8646 -0.1255  1.0569
 6110TIP3   OH239820   3.378   2.284  16.762  0.1688  0.4970  0.4503
 6110TIP3    H139821   3.456   2.334  16.737 -0.5158  1.8276  0.8923
 6110TIP3    H239822   3.336   2.337  16.830 -0.7656 -0.5349  0.7115
 6111TIP3   OH239823   5.875   1.316   0.478 -0.4961 -0.2882  0.0965
 6111TIP3    H139824   5.941   1.383   0.497 -0.3031 -0.1462 -1.0035
 6111TIP3    H239825   5.841   1.340   0.392 -2.8408  0.3135  1.1338
 6112TIP3   OH239826   2.041   2.169  13.009  0.2670  0.0619 -0.0759
 6112TIP3    H139827   2.116   2.161  12.950  1.5177  0.2596  1.4249
 6112TIP3    H239828   2.079   2.197  13.092 -1.3355 -1.0339  1.0767
 6113TIP3   OH239829   4.006   5.731  11.466  0.1711 -0.8291 -0.3046
 6113TIP3    H139830   4.088   5.692  11.497  0.2632  0.1702  0.8072
 6113TIP3    H239831   3.973   5.670  11.401  1.8832 -1.1829 -0.8992
 6114TIP3   OH239832   6.070   3.904  15.832 -0.0441 -0.0565  0.6802
 6114TIP3    H139833   6.150   3.953  15.815 -1.4641  1.8587 -0.8996
 6114TIP3    H239834   6.033   3.945  15.910  0.1636 -0.4965  1.0139
 6115TIP3   OH239835   3.278   1.814   5.100  0.3279 -0.4280 -0.0915
 6115TIP3    H139836   3.346   1.852   5.156  0.8901  0.7938 -1.5334
 6115TIP3    H239837   3.201   1.870   5.115  0.0007 -1.0490  0.6008
 6116TIP3   OH239838   0.771   1.504   6.479 -0.0568 -0.6102 -0.3408
 6116TIP3    H139839   0.758   1.446   6.404 -0.4169 -1.9174  0.6929
 6116TIP3    H239840   0.774   1.445   6.555  0.4497  0.6571  0.6659
 6117TIP3   OH239841   1.817   4.031  16.845 -0.0034 -0.4161 -0.0392
 6117TIP3    H139842   1.890   4.091  16.836 -0.9277  0.8992  0.9279
 6117TIP3    H239843   1.850   3.961  16.902  0.4148  0.3115  0.6313
 6118TIP3   OH239844   4.102   3.375  15.449 -0.0570  0.5182 -0.0841
 6118TIP3    H139845   4.119   3.351  15.540 -0.7790  0.7684  0.1277
 6118TIP3    H239846   4.080   3.293  15.406 -2.5772  0.7305  0.6505
 6119TIP3   OH239847   5.537   0.836   4.233 -0.5207  0.1886  0.1046
 6119TIP3    H139848   5.592   0.915   4.244 -0.7936  0.1884  1.7092
 6119TIP3    H239849   5.580   0.787   4.163  1.4387  0.2964  1.1634
 6120TIP3   OH239850   0.466   1.477   5.560  0.2606 -0.1404 -0.2742
 6120TIP3    H139851   0.428   1.536   5.494 -0.8324 -0.7289 -0.1894
 6120TIP3    H239852   0.543   1.524   5.592  1.5745 -0.3508 -2.8425
 6121TIP3   OH239853   4.114   1.869  16.316 -0.2806  0.0985 -0.2301
 6121TIP3    H139854   4.130   1.813  16.392 -0.1794  0.3150 -0.0911
 6121TIP3    H239855   4.050   1.820  16.263 -0.7809  0.2052  0.2709
 6122TIP3   OH239856   2.729   2.017  13.501 -0.2587 -0.6665  0.5682
 6122TIP3    H139857   2.650   2.013  13.447 -0.3394  1.1376  0.4973
 6122TIP3    H239858   2.712   1.956  13.573 -2.1206  0.3257  1.0314
 6123TIP3   OH239859   4.961   2.103  12.409 -0.7586 -0.0781 -0.0860
 6123TIP3    H139860   5.002   2.163  12.347 -0.4726  0.3534  0.5068
 6123TIP3    H239861   4.997   2.017  12.387  1.4722  0.4480  1.1903
 6124TIP3   OH239862   0.776   4.391  16.616 -0.3932 -0.0119  0.8366
 6124TIP3    H139863   0.721   4.315  16.595  0.0693 -0.0390 -0.3753
 6124TIP3    H239864   0.842   4.357  16.676  0.2587 -0.7832 -0.2703
 6125TIP3   OH239865   4.837   3.210   1.767 -0.3592 -0.7630  0.1510
 6125TIP3    H139866   4.824   3.206   1.672 -5.6435  1.3810  0.4428
 6125TIP3    H239867   4.815   3.123   1.799  0.2307 -1.1415 -0.4349
 6126TIP3   OH239868   3.093   3.654   4.715  0.4662  0.5253  0.0177
 6126TIP3    H139869   3.113   3.742   4.685  0.3833  0.4994 -0.1121
 6126TIP3    H239870   3.170   3.628   4.766  0.0910  1.0365  0.8684
 6127TIP3   OH239871   3.313   3.187   5.231 -0.3558 -0.5970 -0.3856
 6127TIP3    H139872   3.408   3.181   5.241 -0.3445 -2.9677 -1.3081
 6127TIP3    H239873   3.293   3.279   5.248  1.4767 -0.8318  4.5809
 6128TIP3   OH239874   6.534   3.734  16.788  0.0256  0.8712 -0.3613
 6128TIP3    H139875   6.502   3.823  16.801 -1.1731  0.4313 -0.1196
 6128TIP3    H239876   6.627   3.743  16.771 -0.1509  2.1952 -0.6673
 6129TIP3   OH239877   6.829   0.945  14.266  0.5187  0.0790  1.2806
 6129TIP3    H139878   6.829   1.023  14.211  0.7419 -1.0703 -0.4015
 6129TIP3    H239879   6.736   0.925  14.279  0.4704  0.2856  1.2656
 6130TIP3   OH239880   0.921   4.202  14.897 -0.2030  0.3973  0.2791
 6130TIP3    H139881   0.977   4.242  14.830  1.7284 -0.8905  1.0381
 6130TIP3    H239882   0.939   4.253  14.976  0.1813 -0.2444  0.6106
 6131TIP3   OH239883   0.224   3.190   3.471 -0.1446 -0.6122  0.1113
 6131TIP3    H139884   0.282   3.117   3.494 -0.2051 -0.6483  0.1486
 6131TIP3    H239885   0.242   3.256   3.538 -0.8594 -1.0064  0.7085
 6132TIP3   OH239886   0.803   0.340  14.491 -0.2952 -0.0205  0.4392
 6132TIP3    H139887   0.879   0.298  14.530 -0.8040 -2.1633 -0.7354
 6132TIP3    H239888   0.730   0.283  14.513 -0.8232 -0.5034 -2.2427
 6133TIP3   OH239889   2.631   3.745   1.216 -0.5433 -0.3768  0.3999
 6133TIP3    H139890   2.592   3.678   1.159 -1.6911  0.6202 -0.0323
 6133TIP3    H239891   2.657   3.815   1.156  0.3860 -0.2903  0.8800
 6134TIP3   OH239892   6.469   3.749   4.294 -0.3065 -0.1063 -0.2703
 6134TIP3    H139893   6.485   3.726   4.202 -1.7818  0.3670 -0.6639
 6134TIP3    H239894   6.532   3.818   4.312  0.4246 -0.6351 -0.7316
 6135TIP3   OH239895   6.416   2.765  15.741 -0.1700 -0.4120  0.3660
 6135TIP3    H139896   6.440   2.763  15.833 -1.5476  1.5457  0.8335
 6135TIP3    H239897   6.354   2.837  15.734  2.3671  1.7416 -2.7171
 6136TIP3   OH239898   0.348   1.347  16.557 -0.0608 -0.1990  0.2926
 6136TIP3    H139899   0.288   1.366  16.629  0.3971 -0.1683  0.6780
 6136TIP3    H239900   0.323   1.260  16.527 -1.5692  0.6029 -0.8687
 6137TIP3   OH239901   3.692   2.354   0.132  0.6198  0.7584 -0.5734
 6137TIP3    H139902   3.668   2.262   0.134  0.2501  0.8161 -1.7102
 6137TIP3    H239903   3.653   2.391   0.212 -0.2079  0.1564 -0.6892
 6138TIP3   OH239904   2.276   0.194  16.905  0.1153 -0.0432  0.1726
 6138TIP3    H139905   2.356   0.183  16.956  0.0414 -0.7814  0.1471
 6138TIP3    H239906   2.266   0.111  16.858 -0.7778 -0.0553  0.3529
 6139TIP3   OH239907   5.956   1.343   3.178  0.6060  0.2784 -0.4569
 6139TIP3    H139908   6.028   1.302   3.226 -0.3742 -1.2514 -0.2309
 6139TIP3    H239909   5.944   1.428   3.221  1.1908 -0.1371  0.5555
 6140TIP3   OH239910   5.999   0.682  14.120 -0.8485  0.2483 -0.3527
 6140TIP3    H139911   5.956   0.598  14.104  1.1110 -0.8382 -0.2248
 6140TIP3    H239912   6.091   0.666  14.096 -0.1333  1.9126  1.1268
 6141TIP3   OH239913   6.536   0.416  16.925  0.1763  0.3668 -0.0980
 6141TIP3    H139914   6.530   0.320  16.931  3.3773 -0.2028 -2.7556
 6141TIP3    H239915   6.630   0.434  16.933  0.0461  2.9197 -2.6520
 6142TIP3   OH239916   0.635   2.007  12.963  0.5744  0.4619 -0.0107
 6142TIP3    H139917   0.700   1.998  12.893  1.4347  1.2328  0.6535
 6142TIP3    H239918   0.566   1.945  12.941  0.0581  1.7921 -2.3895
 6143TIP3   OH239919   1.966   0.311  14.692 -0.3709 -0.7376  1.0227
 6143TIP3    H139920   1.937   0.395  14.658  1.7879 -0.4995 -0.4241
 6143TIP3    H239921   1.948   0.315  14.786  0.7081  1.8137  1.1878
 6144TIP3   OH239922   5.817   1.736  12.833 -0.1160  0.1392  0.0894
 6144TIP3    H139923   5.822   1.831  12.826 -2.5314  0.3042 -0.3660
 6144TIP3    H239924   5.849   1.704  12.749  0.2734  0.5676  0.0706
 6145TIP3   OH239925   5.417   1.259  15.339 -0.5352  0.2989 -0.1671
 6145TIP3    H139926   5.417   1.164  15.335 -0.2094  0.3267 -3.0155
 6145TIP3    H239927   5.463   1.287  15.260  0.0370  2.8382  0.9458
 6146TIP3   OH239928   2.897   1.559  16.165  0.4741  0.9836 -0.0713
 6146TIP3    H139929   2.919   1.583  16.075 -0.7516  3.7230  0.2591
 6146TIP3    H239930   2.975   1.513  16.197  1.0493  0.2142 -2.3950
 6147TIP3   OH239931   0.456   5.943  10.483 -0.0783 -0.3417  0.9124
 6147TIP3    H139932   0.432   5.990  10.563 -1.5471 -1.0022  0.8832
 6147TIP3    H239933   0.494   5.861  10.513  0.7041  0.0294  0.9429
 6148TIP3   OH239934   3.535   5.776   4.805  0.1774 -0.4014  0.5972
 6148TIP3    H139935   3.460   5.790   4.863 -0.4649  2.2488 -0.6996
 6148TIP3    H239936   3.496   5.759   4.719  0.9855  1.2676 -0.1505
 6149TIP3   OH239937   3.940   5.948   2.648 -0.1152  0.3368 -0.0189
 6149TIP3    H139938   3.885   6.026   2.655  1.0588  1.1962 -0.0902
 6149TIP3    H239939   4.028   5.982   2.630  0.3828 -1.0133 -0.2423
 6150TIP3   OH239940   2.352   6.273  13.546 -0.1323  0.0058 -0.2789
 6150TIP3    H139941   2.293   6.347  13.556 -1.5197 -1.1220  0.2805
 6150TIP3    H239942   2.378   6.276  13.454  1.7719  2.5149  0.2361
 6151TIP3   OH239943   6.805   4.869  10.968  0.1301  0.0614 -0.2429
 6151TIP3    H139944   6.754   4.871  10.887 -0.3159  1.9151  0.0399
 6151TIP3    H239945   6.745   4.835  11.034  0.7590 -2.3299 -0.7887
 6152TIP3   OH239946   2.211   6.551   4.531  0.0480 -0.7536  0.0912
 6152TIP3    H139947   2.169   6.608   4.466  0.7451 -0.7806 -0.3981
 6152TIP3    H239948   2.145   6.484   4.550 -0.0774 -0.9001 -0.7988
 6153TIP3   OH239949   0.800   3.510  15.219 -0.0909  0.1253  0.4096
 6153TIP3    H139950   0.877   3.527  15.165  0.4674  0.1640  1.1875
 6153TIP3    H239951   0.728   3.551  15.172  0.2456 -0.4792 -0.6664
 6154TIP3   OH239952   6.597   0.782   4.033  0.3643  0.3167 -0.1450
 6154TIP3    H139953   6.520   0.728   4.017  0.8693 -1.1842  2.0063
 6154TIP3    H239954   6.584   0.817   4.122  2.0535  0.1521  0.2009
 6155TIP3   OH239955   6.462   2.419   2.970  0.3944 -0.2608  0.0988
 6155TIP3    H139956   6.424   2.331   2.974 -0.7839  0.1711 -0.6876
 6155TIP3    H239957   6.510   2.429   3.052 -0.2274 -1.2950  0.6125
 6156TIP3   OH239958   4.214   3.631  11.882 -0.1070 -0.3320  0.6904
 6156TIP3    H139959   4.237   3.688  11.809 -2.1019  0.8840  0.9282
 6156TIP3    H239960   4.280   3.648  11.949 -0.1116  1.0078  0.3776
 6157TIP3   OH239961   1.503   3.606  11.008 -0.1794 -0.2475 -0.5037
 6157TIP3    H139962   1.563   3.658  10.954 -1.1713  1.7719  0.2406
 6157TIP3    H239963   1.417   3.623  10.971 -0.8837  1.2084  1.6561
 6158TIP3   OH239964   2.381   0.202   1.450 -0.0318  0.0290 -0.0595
 6158TIP3    H139965   2.286   0.195   1.456 -0.1017 -0.1190 -1.1089
 6158TIP3    H239966   2.397   0.234   1.361  0.8983  0.0150  0.0927
 6159TIP3   OH239967   3.051   5.816  15.063  0.1475 -0.0312  0.4657
 6159TIP3    H139968   3.029   5.815  14.970  1.5983 -0.1501  0.1038
 6159TIP3    H239969   3.125   5.756  15.071  1.0219  1.1409  1.4346
 6160TIP3   OH239970   0.594   0.578  13.163 -0.1656 -0.1924  0.3725
 6160TIP3    H139971   0.637   0.588  13.248 -0.7669 -0.7645  0.7637
 6160TIP3    H239972   0.572   0.667  13.136  0.0159 -0.0067  0.8294
 6161TIP3   OH239973   4.768   1.949   2.826 -0.0396 -0.3026  0.1579
 6161TIP3    H139974   4.777   2.014   2.756  0.0185  0.5478  0.9339
 6161TIP3    H239975   4.676   1.926   2.826 -0.2757  0.5920  0.5659
 6162TIP3   OH239976   4.052   1.939  11.457 -0.5941 -0.0952  0.3189
 6162TIP3    H139977   4.014   1.989  11.384  1.4494 -1.0596 -1.5357
 6162TIP3    H239978   4.079   2.006  11.520  2.1069  1.3607 -2.1174
 6163TIP3   OH239979   1.559   6.138  15.513 -0.3847 -0.3148  0.1977
 6163TIP3    H139980   1.650   6.115  15.531 -0.1307  1.7150  1.9726
 6163TIP3    H239981   1.564   6.226  15.474 -1.5687 -0.3586 -0.0893
 6164TIP3   OH239982   5.540   6.594   4.539 -0.0265  0.7512 -0.4822
 6164TIP3    H139983   5.577   6.587   4.450 -1.2939 -1.0631 -0.9247
 6164TIP3    H239984   5.559   6.509   4.579 -2.4607  0.2622 -0.2502
 6165TIP3   OH239985   4.437   2.585  14.869 -0.3824 -0.1454 -0.6098
 6165TIP3    H139986   4.458   2.676  14.890 -2.5964  0.5552 -1.1026
 6165TIP3    H239987   4.491   2.564  14.793  0.5256  0.5720 -0.1822
 6166TIP3   OH239988   6.076   1.494   0.582 -0.1122  0.6381 -0.7924
 6166TIP3    H139989   6.101   1.576   0.626  2.7127 -0.5804  0.1068
 6166TIP3    H239990   6.146   1.479   0.519 -0.5419 -1.0892 -0.9103
 6167TIP3   OH239991   4.597   0.931   4.467 -0.0251 -0.1133 -0.1451
 6167TIP3    H139992   4.676   0.986   4.475 -0.8583  1.2024 -0.6519
 6167TIP3    H239993   4.626   0.856   4.415  0.7968  0.5899 -0.7472
 6168TIP3   OH239994   4.893   5.785  14.734  0.4060 -0.4193  0.0601
 6168TIP3    H139995   4.876   5.743  14.650  2.6240 -0.6334 -0.3352
 6168TIP3    H239996   4.959   5.729  14.776  0.0469  0.2050  1.5364
 6169TIP3   OH239997   1.913   0.064   3.939  0.2243  0.5428  0.4076
 6169TIP3    H139998   1.975  -0.001   3.907 -1.0960 -2.0845  2.7460
 6169TIP3    H239999   1.943   0.147   3.901  3.2513 -1.0512 -1.0394
 6170TIP3   OH240000   6.503   5.994  11.630  0.2923  0.3016  0.0074
 6170TIP3    H140001   6.562   5.920  11.624  1.0921  1.0166 -1.8665
 6170TIP3    H240002   6.430   5.971  11.571  1.1222  1.4293 -1.5438
 6171TIP3   OH240003   5.702   5.621  11.201 -0.1258 -0.4036 -0.1831
 6171TIP3    H140004   5.649   5.612  11.122  1.7464  1.3135 -1.7400
 6171TIP3    H240005   5.639   5.642  11.270 -1.6326 -0.0354 -1.6053
 6172TIP3   OH240006   2.946   2.544  11.841  0.3220  0.7666  0.1106
 6172TIP3    H140007   2.878   2.477  11.836 -1.1446  1.6868  4.0524
 6172TIP3    H240008   3.007   2.521  11.771 -2.0648 -2.3228 -1.2251
 6173TIP3   OH240009   4.304   4.047  16.541 -0.0648  0.1419 -0.4003
 6173TIP3    H140010   4.340   3.990  16.609  0.6591  0.0092 -0.8883
 6173TIP3    H240011   4.363   4.122  16.539 -0.5409  0.5221 -0.3362
 6174TIP3   OH240012   6.781   4.218   1.200  0.1309 -0.1063 -0.3899
 6174TIP3    H140013   6.726   4.253   1.130 -0.0391 -0.1293 -0.2672
 6174TIP3    H240014   6.870   4.218   1.163 -0.1786 -1.7027 -1.2112
 6175TIP3   OH240015   3.139   1.960  14.171  0.8558  0.4462  0.1341
 6175TIP3    H140016   3.182   1.927  14.249  2.8849  1.4128 -0.5059
 6175TIP3    H240017   3.069   1.897  14.154  1.0348 -0.3544  2.1013
 6176TIP3   OH240018   5.420   6.088   5.713 -0.0566  0.0788  0.0801
 6176TIP3    H140019   5.388   6.003   5.684 -1.2653  0.9192 -1.1828
 6176TIP3    H240020   5.516   6.078   5.715 -0.2156 -1.6262  1.1126
 6177TIP3   OH240021   4.817   5.061  15.502 -0.1586 -1.2097 -0.0596
 6177TIP3    H140022   4.763   5.141  15.501  1.2953 -0.1994 -0.8358
 6177TIP3    H240023   4.857   5.060  15.588  1.0505 -0.1983 -0.5739
 6178TIP3   OH240024   3.558   3.946   1.034  0.2142 -0.0912  0.1950
 6178TIP3    H140025   3.501   3.964   0.960 -0.2023  0.7728  0.6993
 6178TIP3    H240026   3.640   3.916   0.995 -0.3006 -0.5170 -0.5689
 6179TIP3   OH240027   3.377   0.065   0.212  0.4327 -0.3458 -0.4999
 6179TIP3    H140028   3.332   0.024   0.287 -0.6351 -1.4831 -1.7117
 6179TIP3    H240029   3.335   0.150   0.202 -0.2128 -0.6626 -0.5052
 6180TIP3   OH240030   6.140   1.294  16.328  0.5084 -0.0564  0.7697
 6180TIP3    H140031   6.116   1.377  16.287  1.8324  0.1188  0.2906
 6180TIP3    H240032   6.192   1.249  16.261 -0.8436 -1.6434  0.7110
 6181TIP3   OH240033   5.488   0.012  16.843 -0.3471 -0.2030 -0.0659
 6181TIP3    H140034   5.408   0.058  16.820 -1.3692 -0.8129  2.0571
 6181TIP3    H240035   5.522   0.059  16.919 -0.8316 -2.2031  1.4766
 6182TIP3   OH240036   4.209   5.379   0.960 -0.2034  0.0419  0.8315
 6182TIP3    H140037   4.231   5.287   0.973 -3.6107 -1.6338 -3.0033
 6182TIP3    H240038   4.234   5.398   0.870 -2.2269  1.8667  0.5565
 6183TIP3   OH240039   4.344   5.527   6.085  0.5476  0.3712  0.1765
 6183TIP3    H140040   4.313   5.472   6.157 -1.4276  0.5745 -0.4556
 6183TIP3    H240041   4.412   5.475   6.042  0.5591 -0.4510  1.1487
 6184TIP3   OH240042   5.233   1.020   1.115  0.2947 -0.4600  0.6567
 6184TIP3    H140043   5.198   0.983   1.034  2.9305  0.2790 -0.9292
 6184TIP3    H240044   5.256   1.110   1.091  3.5089 -0.9711  1.3959
 6185TIP3   OH240045   2.605   3.788   1.516  0.4102 -0.1984  0.4422
 6185TIP3    H140046   2.683   3.833   1.549  0.3276 -0.7522  1.4415
 6185TIP3    H240047   2.616   3.788   1.421  2.3608 -1.5055  0.6087
 6186TIP3   OH240048   0.231   4.178   5.367  0.1194  0.1916  0.0457
 6186TIP3    H140049   0.187   4.263   5.357  0.5989  0.3760 -0.5470
 6186TIP3    H240050   0.165   4.114   5.339  0.5805  0.5420 -2.0149
 6187TIP3   OH240051   0.914   0.393   3.820  0.2086 -0.2530 -0.2211
 6187TIP3    H140052   0.908   0.488   3.814 -1.2664 -0.3592 -0.7951
 6187TIP3    H240053   0.980   0.369   3.754 -0.4208  0.2795 -1.0681
 6188TIP3   OH240054   6.663   6.163  11.433 -0.1574 -0.1906  0.1161
 6188TIP3    H140055   6.752   6.186  11.460 -0.0153 -1.6148  0.9150
 6188TIP3    H240056   6.627   6.113  11.506 -2.9050  3.2408  1.4104
 6189TIP3   OH240057   3.715   4.390   4.731  0.4797 -0.5862 -0.2032
 6189TIP3    H140058   3.789   4.441   4.700  0.5653 -1.1766 -0.9868
 6189TIP3    H240059   3.716   4.310   4.679 -0.0789 -1.0797  0.5067
 6190TIP3   OH240060   6.172   2.916   0.846 -0.0781  0.2218  0.1486
 6190TIP3    H140061   6.108   2.920   0.917  0.0333 -1.8636  0.4514
 6190TIP3    H240062   6.134   2.968   0.776 -1.7186 -0.2890  0.6121
 6191TIP3   OH240063   2.724   2.181  13.802  0.0402 -0.2274  0.4103
 6191TIP3    H140064   2.716   2.276  13.791  1.7843  0.0586  1.2578
 6191TIP3    H240065   2.766   2.151  13.722  0.8101 -0.0483  0.7340
 6192TIP3   OH240066   4.036   5.220   1.655 -0.9220 -0.0335  0.8198
 6192TIP3    H140067   4.030   5.308   1.692 -2.3975  0.0296  0.5120
 6192TIP3    H240068   3.946   5.199   1.630 -0.2575 -0.7859 -1.0769
 6193TIP3   OH240069   1.608   1.529  16.368 -0.6297 -0.2616 -0.6563
 6193TIP3    H140070   1.636   1.552  16.279 -1.6324  0.6546 -0.7556
 6193TIP3    H240071   1.683   1.550  16.423 -0.0920 -0.5883 -1.2425
 6194TIP3   OH240072   2.561   2.495   4.001 -0.4230 -0.3119 -0.7290
 6194TIP3    H140073   2.604   2.487   4.087 -0.3410 -2.4179 -0.9073
 6194TIP3    H240074   2.555   2.589   3.986 -1.2935  0.1589  2.0030
 6195TIP3   OH240075   2.729   1.980  14.238 -0.4668 -0.5166  0.8442
 6195TIP3    H140076   2.783   2.056  14.214  1.9574 -1.5956  2.4790
 6195TIP3    H240077   2.639   2.012  14.232  0.4016  1.9783 -0.1677
 6196TIP3   OH240078   4.356   1.020  11.075 -0.1371 -0.0355 -0.3771
 6196TIP3    H140079   4.411   0.965  11.019 -0.1071 -1.2833  0.8287
 6196TIP3    H240080   4.407   1.099  11.088  1.1120 -0.8948  0.1799
 6197TIP3   OH240081   5.420   5.607  11.730 -0.1841 -0.4459  0.0669
 6197TIP3    H140082   5.359   5.624  11.801  0.9179 -0.4865  1.0534
 6197TIP3    H240083   5.491   5.557  11.771  1.6678  1.5872 -0.4813
 6198TIP3   OH240084   5.781   1.953   0.919 -0.5258  0.1306  0.5453
 6198TIP3    H140085   5.807   1.872   0.875 -2.1481 -0.2296  0.1765
 6198TIP3    H240086   5.692   1.936   0.949 -0.9434  1.8248  0.3416
 6199TIP3   OH240087   6.421   0.614   4.203  0.4775 -0.5475  0.2389
 6199TIP3    H140088   6.359   0.682   4.231 -0.5082 -1.4482  0.2935
 6199TIP3    H240089   6.366   0.539   4.180  1.5825 -1.5500  0.7686
 6200TIP3   OH240090   2.334   3.579   2.748  0.2979 -0.0876 -0.0693
 6200TIP3    H140091   2.288   3.574   2.833 -0.7859 -0.6812 -0.6700
 6200TIP3    H240092   2.265   3.600   2.685  0.9308 -0.5906 -0.9434
 6201TIP3   OH240093   2.285   6.609  13.873 -0.1439  0.0125  0.1878
 6201TIP3    H140094   2.217   6.651  13.926  0.5956 -0.5458  1.6505
 6201TIP3    H240095   2.346   6.679  13.853 -1.0960  0.5097 -1.1019
 6202TIP3   OH240096   2.715   0.927   4.683  0.7812  0.7110  0.3688
 6202TIP3    H140097   2.730   1.012   4.725  3.9058  0.7359 -0.5593
 6202TIP3    H240098   2.685   0.948   4.595  0.2758  0.7964  0.5578
 6203TIP3   OH240099   1.734   4.207   2.761 -0.2396  0.0169 -0.0780
 6203TIP3    H140100   1.788   4.241   2.831  0.7830  0.6687 -1.1486
 6203TIP3    H240101   1.650   4.252   2.771  0.3382  1.1122 -0.0756
 6204TIP3   OH240102   3.948   1.864  16.721  0.2192  0.4674 -0.0603
 6204TIP3    H140103   3.930   1.787  16.667 -0.2280  1.1571 -0.9151
 6204TIP3    H240104   3.869   1.918  16.712  0.0790  0.5535  1.3842
 6205TIP3   OH240105   6.261   5.667  16.219  0.0094 -0.0237  0.0152
 6205TIP3    H140106   6.206   5.654  16.141  1.4593 -1.1476 -0.8830
 6205TIP3    H240107   6.201   5.702  16.285 -1.2557  1.0702 -1.6272
 6206TIP3   OH240108   2.603   2.498   2.050  0.5189 -0.2593 -0.3001
 6206TIP3    H140109   2.696   2.486   2.070  0.6094 -0.1678 -0.6586
 6206TIP3    H240110   2.576   2.573   2.103  1.1776  1.0734 -1.7602
 6207TIP3   OH240111   3.861   1.373  16.069 -0.5098  0.0238  0.1252
 6207TIP3    H140112   3.814   1.439  16.119  0.6529  0.9553  0.0174
 6207TIP3    H240113   3.953   1.386  16.092 -0.1959 -1.1561 -0.3675
 6208TIP3   OH240114   2.023   6.378   1.884 -0.2191  0.0185  0.0338
 6208TIP3    H140115   2.053   6.299   1.839  1.1219 -1.3854  3.1229
 6208TIP3    H240116   1.954   6.413   1.827  0.4365 -2.2699 -2.3888
 6209TIP3   OH240117   5.300   4.610   6.648 -0.4147 -0.0842  0.0775
 6209TIP3    H140118   5.286   4.543   6.715 -0.4254  2.7334  3.1532
 6209TIP3    H240119   5.212   4.635   6.620 -0.4376 -0.6031 -0.3434
 6210TIP3   OH240120   1.128   4.809   2.592  0.2479 -0.0748  0.1349
 6210TIP3    H140121   1.083   4.725   2.583  1.0299 -0.4495 -0.5027
 6210TIP3    H240122   1.121   4.849   2.505 -0.8267  0.9075  0.6481
 6211TIP3   OH240123   5.369   2.714   5.983 -0.3355  0.7320 -0.2676
 6211TIP3    H140124   5.340   2.770   6.055 -1.4856  2.1181 -1.7382
 6211TIP3    H240125   5.290   2.665   5.959  0.5231 -1.2054  0.6483
 6212TIP3   OH240126   1.835   0.926   5.734 -0.4080  0.0639  0.0127
 6212TIP3    H140127   1.909   0.969   5.693 -1.3544  0.7355 -1.0367
 6212TIP3    H240128   1.802   0.865   5.668 -1.1693  0.2291  0.2276
 6213TIP3   OH240129   5.858   2.161   3.690  0.2310 -0.2017 -0.0450
 6213TIP3    H140130   5.872   2.212   3.610 -1.0849  0.5508  0.1743
 6213TIP3    H240131   5.923   2.090   3.685  1.1884  0.6988 -1.0244
 6214TIP3   OH240132   6.171   3.539   1.626  0.2308 -0.4704 -0.0410
 6214TIP3    H140133   6.263   3.514   1.639  0.0090 -1.7875 -0.8189
 6214TIP3    H240134   6.173   3.634   1.620  1.6653 -0.5192 -0.8227
 6215TIP3   OH240135   0.279   5.663   2.334  0.1861 -0.7335 -0.3435
 6215TIP3    H140136   0.304   5.607   2.260 -2.0433  0.1774 -1.9093
 6215TIP3    H240137   0.205   5.617   2.374  1.0401 -0.9537  1.0623
 6216TIP3   OH240138   2.047   6.666  13.992 -0.2536 -0.0011 -0.0348
 6216TIP3    H140139   2.019   6.587  14.038  0.7534 -1.3274 -1.5578
 6216TIP3    H240140   1.984   6.677  13.921 -1.4182  1.6455  1.1859
 6217TIP3   OH240141   5.466   4.799   3.498  0.0224  0.6499 -0.6944
 6217TIP3    H140142   5.508   4.748   3.567 -3.0155 -0.7456  0.2795
 6217TIP3    H240143   5.442   4.882   3.540 -0.3586  0.4609 -0.5353
 6218TIP3   OH240144   3.186   3.666   0.706 -0.2512  0.0961 -0.0086
 6218TIP3    H140145   3.106   3.704   0.672  0.6804  2.0399 -0.1636
 6218TIP3    H240146   3.208   3.718   0.783  0.4617 -0.8848  0.4813
 6219TIP3   OH240147   3.066   2.024   6.117 -0.1320  0.1351 -0.0720
 6219TIP3    H140148   3.045   1.998   6.027 -1.4906  1.2054 -0.1030
 6219TIP3    H240149   2.986   2.066   6.149 -1.8778 -5.1043  3.6630
 6220TIP3   OH240150   6.593   2.821  11.581 -0.0323  0.1598  0.3941
 6220TIP3    H140151   6.582   2.750  11.645  0.5764  0.6254  1.0329
 6220TIP3    H240152   6.586   2.901  11.633 -1.0480  0.5887 -0.3712
 6221TIP3   OH240153   0.970   0.563   2.721  0.4075  0.0628 -0.1258
 6221TIP3    H140154   0.928   0.485   2.756  1.0284  1.5335  4.5767
 6221TIP3    H240155   0.897   0.620   2.695 -0.1126 -0.9108 -0.8646
 6222TIP3   OH240156   0.508   4.230   1.189  0.6270 -0.9128 -0.5695
 6222TIP3    H140157   0.424   4.251   1.228  1.2212  1.5892 -0.4807
 6222TIP3    H240158   0.494   4.238   1.095  0.8677  0.0407 -0.5334
 6223TIP3   OH240159   4.685   2.006   0.395 -0.0949 -0.1161 -0.3804
 6223TIP3    H140160   4.626   2.018   0.469  1.1840  0.8289  0.5148
 6223TIP3    H240161   4.724   1.920   0.409  1.0397  0.5597  0.7179
 6224TIP3   OH240162   4.319   6.233   4.871  0.5020  0.3269  0.4927
 6224TIP3    H140163   4.395   6.177   4.888 -0.7198 -1.3766  0.5730
 6224TIP3    H240164   4.258   6.214   4.942 -0.0795  1.5731  0.3593
 6225TIP3   OH240165   4.842   3.666   4.799  0.5184 -0.0656  0.0289
 6225TIP3    H140166   4.815   3.605   4.868  1.1968 -0.0709  0.2960
 6225TIP3    H240167   4.904   3.725   4.843  0.8806 -0.0075 -0.5597
 6226TIP3   OH240168   5.233   1.913   4.866  0.7343  0.4880  0.5420
 6226TIP3    H140169   5.207   2.003   4.881 -0.4418 -0.0206  1.7052
 6226TIP3    H240170   5.156   1.871   4.826  0.3938 -0.5540  2.2039
 6227TIP3   OH240171   0.159   1.766  11.875 -0.1953 -0.3147 -0.0395
 6227TIP3    H140172   0.081   1.821  11.883 -0.8054 -0.9762 -1.2458
 6227TIP3    H240173   0.232   1.826  11.885 -0.8267  0.2586  1.5409
 6228TIP3   OH240174   1.636   1.999  14.949 -0.3927  1.0469 -1.0937
 6228TIP3    H140175   1.584   2.039  14.879 -0.0699 -0.3299 -2.1719
 6228TIP3    H240176   1.572   1.954  15.004 -0.4367 -0.9593 -2.6259
 6229TIP3   OH240177   6.139   4.609  15.570  0.6485 -0.1248  0.3518
 6229TIP3    H140178   6.091   4.692  15.576 -1.0605 -1.0079 -0.4225
 6229TIP3    H240179   6.164   4.603  15.477  2.0184  0.1485  0.6717
 6230TIP3   OH240180   6.694   4.627  13.191 -0.3113 -0.2336 -0.0291
 6230TIP3    H140181   6.735   4.614  13.276  0.8773  0.6454 -0.4428
 6230TIP3    H240182   6.758   4.678  13.141 -1.5930  0.5072 -0.9690
 6231TIP3   OH240183   3.548   5.213   3.459  0.3323 -0.1528  0.0172
 6231TIP3    H140184   3.519   5.281   3.520 -1.1858 -1.2939  0.6278
 6231TIP3    H240185   3.623   5.252   3.414  1.2071  0.9096  2.2467
 6232TIP3   OH240186   3.035   3.040   1.773  0.7266 -0.3831  0.3796
 6232TIP3    H140187   3.069   3.127   1.752 -1.3791  0.6957  1.1447
 6232TIP3    H240188   3.011   3.002   1.688 -1.3257  1.1379  0.2170
 6233TIP3   OH240189   5.282   2.767  13.170 -0.3639 -0.0534  0.0748
 6233TIP3    H140190   5.307   2.715  13.247  0.1789  0.6545  0.3923
 6233TIP3    H240191   5.291   2.858  13.199 -1.4171  0.2281 -0.4311
 6234TIP3   OH240192   4.318   4.861   1.180 -0.3698  0.5041 -0.5740
 6234TIP3    H140193   4.335   4.851   1.087  1.3863  0.0576 -0.2352
 6234TIP3    H240194   4.373   4.935   1.207  0.8051 -0.6878  0.4792
 6235TIP3   OH240195   5.476   4.529  13.713  0.5142  0.0094  0.2691
 6235TIP3    H140196   5.420   4.476  13.771 -0.3229  1.7022  1.0740
 6235TIP3    H240197   5.518   4.465  13.656 -3.5891 -1.3173 -1.6450
 6236TIP3   OH240198   4.107   2.822   6.097  0.0464  0.3025 -0.2942
 6236TIP3    H140199   4.132   2.878   6.170  1.2604  0.4379 -0.7830
 6236TIP3    H240200   4.182   2.763   6.085 -0.9570 -1.0448 -0.1674
 6237TIP3   OH240201   6.818   4.174   1.460  0.2103  0.3445 -0.9019
 6237TIP3    H140202   6.821   4.193   1.366 -1.6673  0.8746 -0.8958
 6237TIP3    H240203   6.727   4.187   1.484  0.8210  1.1034  1.1990
 6238TIP3   OH240204   4.204   1.313   0.115  0.0503  0.2942  0.1431
 6238TIP3    H140205   4.244   1.391   0.077  2.3658 -0.1263  1.5467
 6238TIP3    H240206   4.124   1.346   0.157  1.0386  1.9726  0.8328
 6239TIP3   OH240207   4.300   0.835  15.317  0.6219  0.3490 -0.3780
 6239TIP3    H140208   4.242   0.900  15.357  1.1392 -0.0358  1.0697
 6239TIP3    H240209   4.265   0.750  15.347  1.8433  0.1102  0.4109
 6240TIP3   OH240210   1.045   2.102  12.617  0.3593 -0.5509 -0.1891
 6240TIP3    H140211   1.129   2.139  12.588  0.1035 -0.9965 -1.5334
 6240TIP3    H240212   0.989   2.178  12.629 -0.1588 -0.4088 -2.9275
 6241TIP3   OH240213   0.073   6.690  15.498  0.1763  0.0165  0.1705
 6241TIP3    H140214   0.050   6.783  15.492  0.6148  0.1508  0.5335
 6241TIP3    H240215   0.113   6.681  15.584 -2.3075 -1.0490  1.2954
 6242TIP3   OH240216   0.035   4.078  11.720 -0.0809  0.4047 -0.5518
 6242TIP3    H140217   0.093   4.078  11.796 -0.7451  0.1070 -0.0428
 6242TIP3    H240218   0.049   4.164  11.680  1.2092  0.0891 -0.8219
 6243TIP3   OH240219   5.411   2.892   4.661  0.1924 -0.1506 -0.3243
 6243TIP3    H140220   5.400   2.975   4.614  1.8868 -0.2320 -0.9502
 6243TIP3    H240221   5.465   2.914   4.737  1.2497 -0.7811 -0.8745
 6244TIP3   OH240222   5.402   2.158   2.735  0.1154  0.2048  0.0781
 6244TIP3    H140223   5.496   2.171   2.736  0.4288 -1.6481  1.8057
 6244TIP3    H240224   5.391   2.064   2.719 -1.4238  0.3251  0.2128
 6245TIP3   OH240225   6.161   2.351  15.998  0.0858 -0.8550  0.6258
 6245TIP3    H140226   6.172   2.424  15.936 -0.0275 -1.3542  0.0116
 6245TIP3    H240227   6.175   2.391  16.084  0.1475 -0.1298  0.2894
 6246TIP3   OH240228   4.188   3.555   2.089  0.1002 -0.0469  0.2528
 6246TIP3    H140229   4.186   3.507   2.006  1.7213  1.3971 -0.6862
 6246TIP3    H240230   4.179   3.647   2.064  1.2371  0.4705  1.5980
 6247TIP3   OH240231   5.400   4.050   1.695  0.0560  0.4366 -0.3165
 6247TIP3    H140232   5.485   4.008   1.711  0.4214  0.7826 -1.2768
 6247TIP3    H240233   5.336   3.984   1.722  0.6109 -0.9280 -2.0832
 6248TIP3   OH240234   6.374   1.416  13.007 -0.1669 -0.2997 -0.0781
 6248TIP3    H140235   6.464   1.447  13.007  0.3755 -1.7769  0.3779
 6248TIP3    H240236   6.372   1.351  12.937  0.1000 -2.7868  2.0693
 6249TIP3   OH240237   5.697   2.101  11.303 -0.6256  0.2724  0.3047
 6249TIP3    H140238   5.708   2.156  11.381 -1.6626  0.6516  0.2040
 6249TIP3    H240239   5.647   2.025  11.334 -0.0979 -0.1123  0.2246
 6250TIP3   OH240240   0.733   5.674   0.526  0.0704  0.2996  0.3279
 6250TIP3    H140241   0.679   5.630   0.461  1.1302 -1.1167  0.3669
 6250TIP3    H240242   0.783   5.604   0.568  0.6418  1.3692  1.5109
 6251TIP3   OH240243   4.867   3.401  13.992  0.2616 -0.5789  0.3412
 6251TIP3    H140244   4.925   3.451  13.934  0.7704 -1.2130  0.2790
 6251TIP3    H240245   4.927   3.344  14.041 -0.3553 -1.7406 -0.2147
 6252TIP3   OH240246   1.256   6.070  16.333 -0.2054 -0.0804 -0.5427
 6252TIP3    H140247   1.253   6.032  16.421  1.4664  0.7818 -0.0717
 6252TIP3    H240248   1.346   6.101  16.323 -0.1359 -0.8470 -2.8792
 6253TIP3   OH240249   5.709   0.314  12.281 -0.0472  0.6811 -0.1092
 6253TIP3    H140250   5.683   0.376  12.213  0.1986 -1.1596 -1.9805
 6253TIP3    H240251   5.803   0.305  12.272 -0.1382 -0.3136 -0.1893
 6254TIP3   OH240252   2.342   4.188  15.384  0.7952  0.0912  0.1156
 6254TIP3    H140253   2.308   4.183  15.473  1.5095 -1.2326  0.3427
 6254TIP3    H240254   2.264   4.192  15.328  0.3030 -0.6896  0.7305
 6255TIP3   OH240255   3.816   5.452  14.727 -0.2055  0.4785  0.3334
 6255TIP3    H140256   3.875   5.518  14.691  1.6032 -1.4519 -0.4538
 6255TIP3    H240257   3.873   5.378  14.749 -2.4896 -2.4254 -2.5716
 6256TIP3   OH240258   5.189   0.976   3.612  0.6148  0.6312 -0.1319
 6256TIP3    H140259   5.243   0.914   3.661  0.6878  0.2948 -0.6186
 6256TIP3    H240260   5.111   0.925   3.588  0.6293  0.7539 -0.4476
 6257TIP3   OH240261   1.874   2.617  12.118  0.0456 -0.3948  0.6604
 6257TIP3    H140262   1.904   2.582  12.202  0.8608 -0.5614  0.3100
 6257TIP3    H240263   1.852   2.708  12.136  0.8488 -0.2461  0.9181
 6258TIP3   OH240264   0.245   6.331  14.490  0.3921 -0.3256 -0.5674
 6258TIP3    H140265   0.217   6.293  14.406  0.3723  0.0282 -0.7232
 6258TIP3    H240266   0.297   6.408  14.466 -0.2803  0.2424 -0.2495
 6259TIP3   OH240267   1.769   0.872  12.445  0.1421  0.1673  0.7539
 6259TIP3    H140268   1.713   0.940  12.482 -1.0129 -0.8417  0.9295
 6259TIP3    H240269   1.806   0.911  12.366 -0.2473  1.1022  1.0263
 6260TIP3   OH240270   1.829   5.604   0.681  0.0075 -0.2686  0.2482
 6260TIP3    H140271   1.859   5.514   0.675 -0.5228 -0.4090 -0.3066
 6260TIP3    H240272   1.740   5.598   0.716  0.3990  0.1186  1.3764
 6261TIP3   OH240273   2.857   6.051  10.581 -0.2007  0.0506 -0.5219
 6261TIP3    H140274   2.763   6.031  10.580 -0.1912 -0.2876  1.1901
 6261TIP3    H240275   2.870   6.095  10.665  0.6424  3.0263 -2.0750
 6262TIP3   OH240276   2.614   2.717  14.388 -0.3530  0.1025 -0.0785
 6262TIP3    H140277   2.529   2.761  14.395 -0.0553  0.8188 -0.7885
 6262TIP3    H240278   2.611   2.674  14.303  0.0282  0.2048 -0.1441
 6263TIP3   OH240279   6.749   2.674  16.002  0.4220  0.3901 -0.2566
 6263TIP3    H140280   6.783   2.624  15.929 -2.2780  0.7612 -1.9045
 6263TIP3    H240281   6.814   2.664  16.071  2.4339 -1.0634 -2.2453
 6264TIP3   OH240282   6.255   6.826  12.316 -0.1597 -0.5280  0.0382
 6264TIP3    H140283   6.267   6.892  12.248  0.3343 -0.7368 -0.0842
 6264TIP3    H240284   6.206   6.756  12.272  0.5707 -0.8709 -0.2439
 6265TIP3   OH240285   5.281   0.649  15.388 -0.1469 -0.4096 -0.3778
 6265TIP3    H140286   5.260   0.677  15.299  2.0729 -0.8159 -1.0933
 6265TIP3    H240287   5.351   0.585  15.378  0.5459 -0.0710  1.7041
 6266TIP3   OH240288   0.401   4.576  12.159 -0.0393 -0.3773  0.1853
 6266TIP3    H140289   0.335   4.556  12.226  1.7118 -0.8282  1.8744
 6266TIP3    H240290   0.441   4.492  12.138 -0.5379 -0.2373 -1.4623
 6267TIP3   OH240291   6.670   0.150  12.525 -0.0455 -0.4331 -0.0128
 6267TIP3    H140292   6.609   0.211  12.566 -0.6877 -1.1531  0.1184
 6267TIP3    H240293   6.622   0.068  12.518 -0.0019 -0.3404 -2.2480
 6268TIP3   OH240294   0.597   2.915  16.936 -0.8241  0.6897 -0.2413
 6268TIP3    H140295   0.552   2.952  17.011 -1.3852  0.2275 -0.3421
 6268TIP3    H240296   0.553   2.832  16.920 -0.3335  0.5150 -0.7249
 6269TIP3   OH240297   0.832   2.698  12.755 -0.1911 -0.0969 -0.3942
 6269TIP3    H140298   0.905   2.737  12.803 -0.4331  0.8131 -0.7483
 6269TIP3    H240299   0.769   2.674  12.823 -0.6517  1.4329 -0.2430
 6270TIP3   OH240300   5.846   5.961  16.321 -0.2619  0.1379 -0.0494
 6270TIP3    H140301   5.858   6.043  16.370  0.7990  0.2315 -0.4385
 6270TIP3    H240302   5.814   5.899  16.386 -0.0509  0.5784  0.4874
 6271TIP3   OH240303   4.012   5.456   2.584  0.0183 -0.0514 -0.0129
 6271TIP3    H140304   3.978   5.410   2.660 -1.4033 -1.0611 -1.2005
 6271TIP3    H240305   3.954   5.430   2.512  1.6795  0.3484 -1.5758
 6272TIP3   OH240306   2.002   5.351  17.151  0.3013 -0.2536 -0.4140
 6272TIP3    H140307   2.025   5.401  17.229 -0.9280 -0.4106  0.0732
 6272TIP3    H240308   1.991   5.417  17.082 -1.1276  0.1689  0.1775
 6273TIP3   OH240309   5.115   0.937   2.594 -0.0922 -0.9168 -0.1629
 6273TIP3    H140310   5.163   0.991   2.532  1.2439 -1.1008  0.6626
 6273TIP3    H240311   5.182   0.881   2.633 -0.8990 -0.8387  1.4061
 6274TIP3   OH240312   4.712   2.333  14.413  0.3788 -0.4220 -0.4066
 6274TIP3    H140313   4.644   2.309  14.477 -0.5521 -0.5964 -1.4332
 6274TIP3    H240314   4.743   2.249  14.380  2.4288 -0.4405  1.3447
 6275TIP3   OH240315   3.288   5.725  11.819 -0.0119  0.0333 -0.1718
 6275TIP3    H140316   3.236   5.754  11.894  2.3743  0.1871  1.5407
 6275TIP3    H240317   3.315   5.806  11.777  2.0490  0.1779  1.3128
 6276TIP3   OH240318   0.412   2.279   6.111 -0.1162 -0.2911  0.0365
 6276TIP3    H140319   0.336   2.272   6.167  0.6112 -0.9177  0.9702
 6276TIP3    H240320   0.383   2.246   6.026 -0.4442 -2.1181  0.8233
 6277TIP3   OH240321   3.134   1.183   3.795 -0.1135 -0.0301 -0.2717
 6277TIP3    H140322   3.043   1.160   3.815  0.4648 -2.3056 -0.0114
 6277TIP3    H240323   3.128   1.231   3.712 -1.3053 -3.5393 -2.4273
 6278TIP3   OH240324   5.767   6.818  14.544  0.4981  0.3335 -0.5054
 6278TIP3    H140325   5.791   6.732  14.511  0.3760  0.2282 -0.3186
 6278TIP3    H240326   5.673   6.814  14.558  0.7251 -0.0953  1.1789
 6279TIP3   OH240327   5.185   3.892   0.677  0.3615 -0.2175  0.4069
 6279TIP3    H140328   5.281   3.898   0.681  0.3654 -0.8327  2.9862
 6279TIP3    H240329   5.154   3.954   0.742 -0.9755 -0.5121  0.0775
 6280TIP3   OH240330   3.361   3.116  11.741 -0.3367 -0.5862  0.6686
 6280TIP3    H140331   3.408   3.170  11.677  0.5851  0.0738  1.8394
 6280TIP3    H240332   3.270   3.141  11.732 -0.0373  0.5310  0.5468
 6281TIP3   OH240333   2.358   6.575   4.098 -0.6421  0.5550  0.7094
 6281TIP3    H140334   2.408   6.507   4.143  2.7168  1.8819 -0.6271
 6281TIP3    H240335   2.301   6.527   4.037  0.8647 -1.1125  0.5236
 6282TIP3   OH240336   4.764   2.892   2.824  0.6485  0.0316  0.1414
 6282TIP3    H140337   4.779   2.847   2.741  2.9132 -1.0241  1.0156
 6282TIP3    H240338   4.726   2.825   2.881 -1.6102  0.9530 -0.1806
 6283TIP3   OH240339   0.513   3.418  15.776 -0.5022  0.0694  0.4349
 6283TIP3    H140340   0.569   3.450  15.847 -2.2251  1.0056  1.4334
 6283TIP3    H240341   0.426   3.454  15.796 -1.2954 -0.6639 -1.4950
 6284TIP3   OH240342   4.082   5.094   0.725  0.0191 -0.2691 -0.1009
 6284TIP3    H140343   4.059   5.167   0.668 -0.8179  0.7211  1.4160
 6284TIP3    H240344   4.011   5.032   0.714 -0.0402 -0.1701 -0.2840
 6285TIP3   OH240345   2.660   0.091   5.413 -0.7675 -0.2330  0.1326
 6285TIP3    H140346   2.718   0.063   5.484 -0.1790  1.0450  0.1808
 6285TIP3    H240347   2.619   0.171   5.446 -0.9520  0.0317 -0.7296
 6286TIP3   OH240348   4.506   5.213  11.058 -0.2322  0.4292  0.3473
 6286TIP3    H140349   4.453   5.245  10.985  0.0463  1.2384  0.4838
 6286TIP3    H240350   4.589   5.188  11.018 -0.7552 -1.0134  0.1054
 6287TIP3   OH240351   2.034   2.775   4.868  0.3763 -0.6100  0.0306
 6287TIP3    H140352   2.110   2.832   4.859  0.3373 -0.5954 -0.2322
 6287TIP3    H240353   1.990   2.781   4.783  0.8249 -1.6744 -0.2934
 6288TIP3   OH240354   4.770   1.405   6.361 -0.2691  0.0205  0.0895
 6288TIP3    H140355   4.732   1.347   6.295  0.3754 -1.3098  0.8442
 6288TIP3    H240356   4.696   1.430   6.416 -0.5695 -0.0460 -0.2821
 6289TIP3   OH240357   2.078   3.345   5.034  0.2934  0.2425  0.4640
 6289TIP3    H140358   2.127   3.290   4.973 -0.4091  1.3164 -1.1483
 6289TIP3    H240359   1.989   3.345   5.000  0.0895  1.6784  0.9213
 6290TIP3   OH240360   1.444   1.012   5.169 -0.0244 -0.3236 -0.2322
 6290TIP3    H140361   1.491   0.954   5.109  0.3125 -1.9899  1.5194
 6290TIP3    H240362   1.352   0.985   5.161  0.2852 -2.2231  1.5875
 6291TIP3   OH240363   2.452   0.073   1.145 -0.2004 -0.1541  0.0677
 6291TIP3    H140364   2.497   0.075   1.061 -0.7402  0.0492 -0.2212
 6291TIP3    H240365   2.505   0.015   1.200 -0.1352 -0.7142 -0.5745
 6292TIP3   OH240366   6.218   4.471  12.106  0.3267 -0.6818 -0.2043
 6292TIP3    H140367   6.175   4.533  12.164  0.5272 -0.9240  0.2077
 6292TIP3    H240368   6.158   4.396  12.103 -0.1191 -0.3122 -1.0340
 6293TIP3   OH240369   6.414   5.576  17.142  0.2236  0.1396 -0.2192
 6293TIP3    H140370   6.437   5.652  17.195  1.1507 -0.1354 -0.2043
 6293TIP3    H240371   6.328   5.549  17.174  0.4961  0.3591  0.7154
 6294TIP3   OH240372   1.018   4.171   2.555  0.5443 -0.4435 -0.5036
 6294TIP3    H140373   0.986   4.081   2.563  1.9012 -0.7761  1.8206
 6294TIP3    H240374   1.100   4.172   2.603  0.2304  2.2163  0.1208
 6295TIP3   OH240375   3.325   5.543   2.025 -0.3367 -0.2301 -0.0713
 6295TIP3    H140376   3.261   5.566   2.093 -1.3062 -0.0166 -1.0274
 6295TIP3    H240377   3.323   5.448   2.022 -2.5766 -0.2049 -1.8502
 6296TIP3   OH240378   3.771   6.152  15.525 -0.0168  0.1846 -0.2069
 6296TIP3    H140379   3.726   6.074  15.557  0.1795  0.2158  0.1531
 6296TIP3    H240380   3.702   6.219  15.521  0.4996  1.2372  3.6566
 6297TIP3   OH240381   0.277   1.880  17.196 -0.1352  0.0347 -0.3625
 6297TIP3    H140382   0.322   1.892  17.280 -1.1910  0.4920  0.1700
 6297TIP3    H240383   0.323   1.938  17.136  2.7773 -2.6732 -1.0400
 6298TIP3   OH240384   2.957   1.762   4.624 -0.2563  0.2377 -0.1983
 6298TIP3    H140385   3.038   1.734   4.583  0.1647  1.0679  0.0581
 6298TIP3    H240386   2.977   1.846   4.664 -1.7550  1.4613 -1.8292
 6299TIP3   OH240387   6.826   3.175  13.391 -0.3830  0.3662  0.1398
 6299TIP3    H140388   6.866   3.181  13.304 -0.5507 -0.4185  0.0025
 6299TIP3    H240389   6.732   3.179  13.375 -0.4379 -0.3978  0.2174
 6300TIP3   OH240390   5.028   2.865  17.113 -0.3688 -0.1359 -0.0346
 6300TIP3    H140391   4.959   2.852  17.048 -0.1958  1.4425 -0.5810
 6300TIP3    H240392   5.031   2.960  17.126  0.1979 -0.3500  1.6363
 6301TIP3   OH240393   1.039   6.455  15.487  0.2547 -0.1407 -0.4200
 6301TIP3    H140394   1.129   6.425  15.476  0.3182  0.4279 -1.5280
 6301TIP3    H240395   1.010   6.413  15.568  1.1793 -1.1321 -0.5813
 6302TIP3   OH240396   1.189   4.354  15.943 -0.7218  0.2048 -0.2100
 6302TIP3    H140397   1.206   4.414  16.016  0.3408 -0.9648  0.5355
 6302TIP3    H240398   1.239   4.391  15.869  1.3591 -0.6074  0.6979
 6303TIP3   OH240399   3.556   0.002   1.373  0.2333 -0.2840  0.5806
 6303TIP3    H140400   3.556  -0.026   1.465 -2.7328 -1.4693  0.3360
 6303TIP3    H240401   3.628  -0.047   1.334  0.6290 -0.8958  1.9843
 6304TIP3   OH240402   4.564   3.606  14.535  0.1401  0.4112  0.0218
 6304TIP3    H140403   4.648   3.581  14.574 -1.4561  0.1196  3.6452
 6304TIP3    H240404   4.568   3.701  14.530  1.1875  0.3269 -1.2141
 6305TIP3   OH240405   6.411   5.844   3.004 -0.1842  0.6050  0.0511
 6305TIP3    H140406   6.347   5.907   2.970  0.6527  1.9760  0.9249
 6305TIP3    H240407   6.409   5.771   2.941 -2.8139  0.4404  0.2413
 6306TIP3   OH240408   3.932   5.108  13.185  0.7748  0.3660  0.5876
 6306TIP3    H140409   4.007   5.062  13.147  0.4323  0.9367 -0.8502
 6306TIP3    H240410   3.958   5.200  13.184  0.0191  0.5761 -0.0275
 6307TIP3   OH240411   2.474   3.035   0.246 -0.4885  0.4707 -0.4166
 6307TIP3    H140412   2.461   3.038   0.151 -1.4379 -0.0746 -0.3082
 6307TIP3    H240413   2.530   2.958   0.259 -1.4815 -0.2644 -0.4198
 6308TIP3   OH240414   2.817   3.429   5.985  0.1360 -0.4975 -0.5648
 6308TIP3    H140415   2.849   3.348   5.944  0.4762  0.3856 -2.1168
 6308TIP3    H240416   2.776   3.400   6.066 -2.2377 -2.5829 -2.3399
 6309TIP3   OH240417   0.417   2.373   4.052 -0.0633 -0.1488 -0.4381
 6309TIP3    H140418   0.473   2.362   3.975  0.6618 -1.6673  0.2803
 6309TIP3    H240419   0.472   2.350   4.126 -1.4937 -1.2502  0.3373
 6310TIP3   OH240420   4.291   3.254   0.978 -0.3051 -0.2909 -0.2005
 6310TIP3    H140421   4.262   3.188   0.915  0.9196 -1.6565  0.6060
 6310TIP3    H240422   4.281   3.337   0.932 -2.3466 -0.9542 -1.0786
 6311TIP3   OH240423   1.863   4.864   0.146 -0.3375 -0.0363  0.5853
 6311TIP3    H140424   1.819   4.902   0.222  0.3168  0.2026  0.8512
 6311TIP3    H240425   1.948   4.836   0.178 -0.5871 -1.2238  0.2519
 6312TIP3   OH240426   6.336   1.646  13.421 -0.4800  0.2862 -0.0507
 6312TIP3    H140427   6.426   1.657  13.391  0.3697  0.5458  2.3593
 6312TIP3    H240428   6.284   1.638  13.341  2.0242 -3.1763 -1.5942
 6313TIP3   OH240429   6.344   3.381   3.811  0.4432  0.2037 -0.4875
 6313TIP3    H140430   6.300   3.350   3.890  1.9008 -0.7395  0.0043
 6313TIP3    H240431   6.428   3.414   3.842  0.5225  0.9818 -1.5073
 6314TIP3   OH240432   1.625   2.906   4.767  0.0474  0.1548 -0.5181
 6314TIP3    H140433   1.582   2.987   4.739  1.8980  1.8477  1.2426
 6314TIP3    H240434   1.661   2.926   4.853  0.0105 -2.8011  0.3045
 6315TIP3   OH240435   5.537   5.464  14.122 -1.2349 -0.2428 -0.6676
 6315TIP3    H140436   5.464   5.411  14.154 -0.6331 -0.4355  0.4721
 6315TIP3    H240437   5.575   5.413  14.051 -1.4964 -0.6973 -0.4885
 6316TIP3   OH240438   3.378   0.056  13.033  0.2985 -0.1803 -0.2898
 6316TIP3    H140439   3.397   0.147  13.052  0.5596 -0.5529  1.4087
 6316TIP3    H240440   3.294   0.058  12.987 -1.2527  0.7939  2.3384
 6317TIP3   OH240441   5.679   5.292  15.706 -0.3592 -0.3108 -0.1945
 6317TIP3    H140442   5.597   5.282  15.754 -0.6119 -0.0008 -0.5492
 6317TIP3    H240443   5.664   5.367  15.649  0.2578 -0.1004 -0.0921
 6318TIP3   OH240444   1.773   6.145   4.029 -0.0142 -0.2596  0.4181
 6318TIP3    H140445   1.834   6.138   4.102 -1.9023 -1.2329  2.0067
 6318TIP3    H240446   1.767   6.057   3.993  0.8333  0.1902 -0.9324
 6319TIP3   OH240447   0.934   1.965   1.119 -0.5703  0.0844 -0.3740
 6319TIP3    H140448   1.027   1.981   1.138 -0.7721  1.0853 -0.1891
 6319TIP3    H240449   0.932   1.875   1.086  0.2053 -0.7188  1.5635
 6320TIP3   OH240450   1.170   3.259   4.963  0.0399 -0.2360 -0.2879
 6320TIP3    H140451   1.150   3.166   4.977  0.4353 -0.2988 -0.1162
 6320TIP3    H240452   1.224   3.259   4.883 -0.1505 -0.1297 -0.4172
 6321TIP3   OH240453   5.994   4.203   2.644 -0.6116  0.0022  0.1514
 6321TIP3    H140454   5.938   4.178   2.571 -0.0390 -1.6846  0.2509
 6321TIP3    H240455   6.082   4.178   2.616 -0.3969 -0.7441  1.4446
 6322TIP3   OH240456   5.823   0.187   2.166 -0.0150 -0.1740  0.0029
 6322TIP3    H140457   5.876   0.249   2.116  0.2416  0.7747  1.3980
 6322TIP3    H240458   5.887   0.130   2.208 -0.2536 -2.5668 -2.5609
 6323TIP3   OH240459   0.434   3.980   5.969  0.6428 -0.0741  0.1013
 6323TIP3    H140460   0.482   3.911   6.015  0.1709 -0.0664  0.6052
 6323TIP3    H240461   0.428   4.052   6.032  1.1534  0.4536 -0.4271
 6324TIP3   OH240462   3.300   1.887  13.935  0.0289 -0.6604  0.2529
 6324TIP3    H140463   3.247   1.907  14.012 -0.0992 -1.3925  0.3629
 6324TIP3    H240464   3.375   1.839  13.969  0.1912 -0.6118 -0.0314
 6325TIP3   OH240465   2.222   5.566   1.081 -0.4713  0.4493 -0.2959
 6325TIP3    H140466   2.187   5.576   0.992  1.2395 -0.5656 -1.1231
 6325TIP3    H240467   2.251   5.475   1.085  1.5085  1.0755  0.5337
 6326TIP3   OH240468   1.846   6.560   2.040 -0.2937 -0.4135 -0.1038
 6326TIP3    H140469   1.836   6.472   2.003  2.0157 -0.5023 -0.6472
 6326TIP3    H240470   1.865   6.544   2.133 -1.8439 -0.3610  0.2528
 6327TIP3   OH240471   4.263   4.019   4.793  0.4440  0.1114  0.0166
 6327TIP3    H140472   4.276   4.083   4.724 -0.8890  1.4440  0.9363
 6327TIP3    H240473   4.179   3.978   4.772  0.4148 -0.0365  0.4099
 6328TIP3   OH240474   1.392   2.177  16.198 -0.3281  0.0786  0.0173
 6328TIP3    H140475   1.341   2.233  16.139 -0.1301  0.4529  0.2028
 6328TIP3    H240476   1.454   2.236  16.240  0.6891 -0.4655 -0.6620
 6329TIP3   OH240477   4.548   6.822  15.810 -0.1241  0.4829 -0.0877
 6329TIP3    H140478   4.583   6.894  15.863  1.0705 -0.8731  1.0247
 6329TIP3    H240479   4.454   6.838  15.808  0.2045  2.6584 -0.7748
 6330TIP3   OH240480   4.094   0.094  16.465  0.6329 -0.0814 -0.1457
 6330TIP3    H140481   4.142   0.150  16.526  0.2015 -0.0954  0.2048
 6330TIP3    H240482   4.011   0.140  16.450 -0.0739 -1.0155  0.7820
 6331TIP3   OH240483   3.917   5.396  11.048  0.2009 -0.6729 -0.0990
 6331TIP3    H140484   3.868   5.379  10.968  1.3398 -2.8141 -0.4101
 6331TIP3    H240485   3.900   5.488  11.068 -2.9092 -0.9636 -0.8608
 6332TIP3   OH240486   2.405   2.737   3.048  0.1850 -0.5688  0.4495
 6332TIP3    H140487   2.423   2.755   3.140  0.1484 -1.4608  0.6384
 6332TIP3    H240488   2.426   2.644   3.037  0.1590 -0.4780 -0.4325
 6333TIP3   OH240489   5.155   2.174  14.772  0.2080 -0.2590 -0.3309
 6333TIP3    H140490   5.226   2.125  14.731 -0.0052 -0.9297  0.0939
 6333TIP3    H240491   5.077   2.121  14.758 -0.3269  0.7531 -1.2968
 6334TIP3   OH240492   5.635   6.661  14.879  0.6226  0.5585  0.3315
 6334TIP3    H140493   5.703   6.729  14.880  0.7943  0.4575 -1.5054
 6334TIP3    H240494   5.644   6.619  14.794 -0.2645 -0.9983  0.9666
 6335TIP3   OH240495   1.216   1.835   2.110  0.3426 -0.1165  0.0205
 6335TIP3    H140496   1.167   1.753   2.107  0.6833 -0.4447  1.8268
 6335TIP3    H240497   1.299   1.812   2.152  1.5499  0.6763 -1.8481
 6336TIP3   OH240498   1.746   2.877   0.492 -0.8325  0.3264  0.4353
 6336TIP3    H140499   1.741   2.852   0.585 -0.9209 -1.7407 -0.0817
 6336TIP3    H240500   1.786   2.801   0.449  0.6215  1.8216 -1.0279
 6337TIP3   OH240501   5.298   1.642   4.320 -0.4249 -0.0951 -0.4601
 6337TIP3    H140502   5.319   1.734   4.339  1.2541 -0.4914 -0.1978
 6337TIP3    H240503   5.234   1.618   4.386 -0.5515  0.7587 -0.2535
 6338TIP3   OH240504   1.072   2.442   4.737  0.1963 -0.1782  0.7393
 6338TIP3    H140505   1.161   2.423   4.708  0.2166 -0.1906  0.8086
 6338TIP3    H240506   1.081   2.516   4.797  0.0827  0.2350  0.2534
 6339TIP3   OH240507   2.433   3.934   2.474  0.0123 -0.3009 -0.3042
 6339TIP3    H140508   2.408   3.965   2.387  1.4082 -0.6116 -0.8414
 6339TIP3    H240509   2.411   4.007   2.532 -1.5276 -0.3272 -0.7903
 6340TIP3   OH240510   5.048   6.620   0.917  0.2124 -0.3581  0.0629
 6340TIP3    H140511   4.963   6.585   0.890  0.7256 -0.3112 -1.7439
 6340TIP3    H240512   5.042   6.714   0.897  0.7437 -0.3874 -0.2545
 6341TIP3   OH240513   4.060   3.010   0.529  0.0108 -0.2876 -0.7102
 6341TIP3    H140514   4.023   2.988   0.443  1.1684 -1.1564 -1.0137
 6341TIP3    H240515   4.094   2.927   0.562  1.5553  0.4477 -0.3886
 6342TIP3   OH240516   1.520   5.583  13.000 -0.5813 -0.5677 -0.3731
 6342TIP3    H140517   1.555   5.586  12.910 -0.6171  0.0616 -0.3727
 6342TIP3    H240518   1.427   5.566  12.989 -0.7986  0.6146 -0.5231
 6343TIP3   OH240519   0.330   1.004  14.726 -0.6041  0.2826 -0.2126
 6343TIP3    H140520   0.302   0.937  14.664 -1.9262  0.2554  0.3970
 6343TIP3    H240521   0.318   1.087  14.679 -3.8003  0.4520  0.7068
 6344TIP3   OH240522   5.552   5.681   4.801 -0.3815  0.2680  0.0936
 6344TIP3    H140523   5.474   5.641   4.840  0.0907 -0.1324  0.6393
 6344TIP3    H240524   5.624   5.624   4.827  0.0655  0.5099 -0.6035
 6345TIP3   OH240525   6.785   5.703  10.932  0.9167  0.0029  0.2847
 6345TIP3    H140526   6.696   5.669  10.920  1.1158 -0.1909 -0.7240
 6345TIP3    H240527   6.803   5.689  11.025 -0.1623  0.1920  0.5433
 6346TIP3   OH240528   1.118   3.390  13.401 -0.2963 -0.0165  0.2856
 6346TIP3    H140529   1.091   3.407  13.491 -0.2685  0.6042  0.1807
 6346TIP3    H240530   1.070   3.311  13.376 -1.6080  0.7523  0.2857
 6347TIP3   OH240531   2.185   0.719   2.289 -0.0079  0.0101 -0.3940
 6347TIP3    H140532   2.273   0.750   2.268 -0.9924  3.1447 -0.4056
 6347TIP3    H240533   2.182   0.717   2.384  0.0352  0.0595 -0.3917
 6348TIP3   OH240534   0.828   5.956  11.973  0.7394 -1.1567  0.2951
 6348TIP3    H140535   0.895   6.017  11.944  1.0291 -0.7722  1.6887
 6348TIP3    H240536   0.749   6.009  11.983  0.1463 -1.6297 -1.4555
 6349TIP3   OH240537   3.041   3.902  11.637  0.1837  0.1923  0.2475
 6349TIP3    H140538   3.116   3.853  11.603 -0.1780  0.7102 -1.3924
 6349TIP3    H240539   3.065   3.994  11.627 -1.1442  0.3885 -1.5402
 6350TIP3   OH240540   5.160   1.679   6.224  0.4826 -0.2624  0.3196
 6350TIP3    H140541   5.141   1.679   6.318 -0.4151 -1.1861  0.1591
 6350TIP3    H240542   5.251   1.653   6.218  0.4377 -0.5814  0.9313
 6351TIP3   OH240543   6.589   2.652  14.525  0.1684  0.1264  0.5686
 6351TIP3    H140544   6.503   2.612  14.535 -0.7250  1.7116 -0.3327
 6351TIP3    H240545   6.572   2.732  14.475  1.9358  1.3559  1.8282
 6352TIP3   OH240546   3.694   3.157   1.487 -0.4538 -0.1584  0.1116
 6352TIP3    H140547   3.746   3.226   1.529 -1.7204  0.5126  0.6362
 6352TIP3    H240548   3.701   3.082   1.547 -0.7952  0.2138  0.6227
 6353TIP3   OH240549   3.264   6.552  14.321  0.2683 -0.3906 -0.1577
 6353TIP3    H140550   3.293   6.631  14.276 -2.3205  0.5214 -0.4036
 6353TIP3    H240551   3.274   6.482  14.256 -0.0066  0.2537 -0.9085
 6354TIP3   OH240552   4.554   4.953  15.385  0.3001  0.0867 -0.6115
 6354TIP3    H140553   4.560   4.917  15.473 -0.4218 -0.0027 -0.5951
 6354TIP3    H240554   4.608   5.032  15.387  0.5194 -0.0742 -0.1745
 6355TIP3   OH240555   3.865   2.865  10.747 -0.1193 -0.5591  0.8240
 6355TIP3    H140556   3.891   2.957  10.758 -0.4001  0.1232 -2.7776
 6355TIP3    H240557   3.779   2.869  10.705 -0.2963 -2.4826  0.9223
 6356TIP3   OH240558   2.537   5.970  11.639 -0.5938  0.5771 -0.1257
 6356TIP3    H140559   2.624   6.010  11.645 -0.0126 -0.5098 -0.7628
 6356TIP3    H240560   2.500   5.979  11.727  0.7061 -0.0661  0.5219
 6357TIP3   OH240561   5.720   1.931  13.425 -0.0052  0.0394 -0.4251
 6357TIP3    H140562   5.809   1.915  13.455  0.0973 -0.5420 -1.0241
 6357TIP3    H240563   5.730   1.978  13.343 -0.2528 -0.0917 -0.5300
 6358TIP3   OH240564   5.834   6.125   4.983  0.0868  0.3254 -0.0156
 6358TIP3    H140565   5.773   6.092   4.917 -2.0330  0.7478  1.6434
 6358TIP3    H240566   5.838   6.219   4.967 -2.9453  0.9724  2.2801
 6359TIP3   OH240567   5.639   0.356   4.354 -0.2550  0.2691 -0.7531
 6359TIP3    H140568   5.705   0.343   4.286  0.6353  0.9080 -0.0162
 6359TIP3    H240569   5.667   0.434   4.402 -1.2352  0.2247 -0.0721
 6360TIP3   OH240570   1.508   5.621  15.990 -0.5555 -0.0033 -0.0415
 6360TIP3    H140571   1.456   5.640  15.912  0.6344  3.1650 -0.2237
 6360TIP3    H240572   1.458   5.660  16.062  0.0057  0.1798  0.2513
 6361TIP3   OH240573   5.162   6.385   2.459  0.2418  0.0678  0.0171
 6361TIP3    H140574   5.229   6.323   2.488 -1.8072 -1.1486  2.5593
 6361TIP3    H240575   5.209   6.467   2.446  2.3181 -0.8735  1.1021
 6362TIP3   OH240576   2.863   4.801   3.227 -0.2536  0.6877 -0.4433
 6362TIP3    H140577   2.937   4.763   3.275 -1.7821 -0.3046  1.2456
 6362TIP3    H240578   2.789   4.794   3.287 -1.4253  3.0744 -1.4854
 6363TIP3   OH240579   3.972   4.550   5.034 -0.6248  0.5873 -0.2952
 6363TIP3    H140580   3.962   4.644   5.052  2.7427  1.5265 -2.2857
 6363TIP3    H240581   4.041   4.521   5.094  0.8653  0.3689 -2.0182
 6364TIP3   OH240582   2.079   3.679  12.698 -0.3236  0.8358 -0.0209
 6364TIP3    H140583   2.055   3.601  12.648 -1.1448  1.2839 -0.3548
 6364TIP3    H240584   2.085   3.748  12.632  2.6086  0.6551 -0.0708
 6365TIP3   OH240585   3.826   4.393  15.851 -0.6650 -0.2596 -0.2344
 6365TIP3    H140586   3.891   4.348  15.904 -0.8846  0.3204  0.5422
 6365TIP3    H240587   3.842   4.362  15.762  0.7138 -0.0614 -0.0713
 6366TIP3   OH240588   3.658   5.396  16.722  0.1516  0.2120 -0.3597
 6366TIP3    H140589   3.725   5.387  16.654  1.1596 -1.0503  0.7410
 6366TIP3    H240590   3.581   5.427  16.675  1.6702  2.4357 -1.5650
 6367TIP3   OH240591   1.532   5.733   5.020  0.1384 -0.1379 -0.6814
 6367TIP3    H140592   1.512   5.761   5.110 -3.7625 -0.5493 -1.2605
 6367TIP3    H240593   1.523   5.813   4.968  0.5452 -0.2616 -0.9454
 6368TIP3   OH240594   3.072   2.612  14.491 -0.5497  0.1432 -0.5412
 6368TIP3    H140595   3.019   2.551  14.439 -1.5572  1.0472 -0.6298
 6368TIP3    H240596   3.102   2.677  14.427  0.9412 -0.5243 -0.5395
 6369TIP3   OH240597   0.756   1.494   4.773 -0.4567 -0.1695 -0.0574
 6369TIP3    H140598   0.786   1.488   4.682  0.7419  1.5850  0.1714
 6369TIP3    H240599   0.828   1.456   4.824 -1.1031 -1.0949  0.1877
 6370TIP3   OH240600   6.655   0.535   3.706  0.1892  0.3172  0.4494
 6370TIP3    H140601   6.722   0.603   3.696  1.0754 -0.7518 -1.0586
 6370TIP3    H240602   6.574   0.578   3.677  1.0822  0.1803 -2.5013
 6371TIP3   OH240603   2.701   3.147  16.932 -0.4185 -0.2572  0.4480
 6371TIP3    H140604   2.674   3.065  16.972  0.9566 -0.5361  0.8435
 6371TIP3    H240605   2.788   3.129  16.895  0.2581  1.2131  1.2246
 6372TIP3   OH240606   4.729   4.041  15.568  0.0982  0.7056 -0.3024
 6372TIP3    H140607   4.694   4.034  15.656 -0.3845 -1.1760 -0.6013
 6372TIP3    H240608   4.769   4.128  15.565  0.7171  0.5603  1.9633
 6373TIP3   OH240609   0.577   1.101  11.137 -0.1499  0.8292 -0.0870
 6373TIP3    H140610   0.614   1.150  11.210 -0.0830  0.9596 -0.2093
 6373TIP3    H240611   0.614   1.013  11.147  0.4922  1.0533 -0.4247
 6374TIP3   OH240612   6.797   3.128   5.028  0.0551  0.1411 -0.1268
 6374TIP3    H140613   6.788   3.204   4.970  0.1291  1.1551  1.1683
 6374TIP3    H240614   6.774   3.054   4.972  0.1488  1.0792 -1.4702
 6375TIP3   OH240615   1.954   4.868   3.543  0.2328 -0.0406 -0.2141
 6375TIP3    H140616   2.046   4.844   3.530 -0.4005 -1.3512 -3.0096
 6375TIP3    H240617   1.910   4.785   3.561 -0.6082  0.3799 -0.2949
 6376TIP3   OH240618   5.704   1.731   3.657  0.2414  0.2003 -0.7546
 6376TIP3    H140619   5.797   1.713   3.646  0.0199 -2.2196  0.6050
 6376TIP3    H240620   5.680   1.781   3.579  2.5206  0.2817 -1.4664
 6377TIP3   OH240621   2.797   3.173   5.891  0.4203 -0.0444  0.0097
 6377TIP3    H140622   2.742   3.113   5.942  1.4354 -1.3946 -0.4111
 6377TIP3    H240623   2.811   3.127   5.808  1.4982  0.6258 -0.2008
 6378TIP3   OH240624   1.303   6.263  14.492 -0.3581  0.0853  0.1546
 6378TIP3    H140625   1.336   6.189  14.441  0.2588  0.1606  0.4408
 6378TIP3    H240626   1.381   6.301  14.533 -0.6675  0.9147 -0.0155
 6379TIP3   OH240627   1.249   0.782  13.690 -0.5735 -0.2224  0.2845
 6379TIP3    H140628   1.266   0.694  13.655 -1.1115 -0.0186 -0.5242
 6379TIP3    H240629   1.202   0.767  13.772  0.5733 -0.7100  0.8769
 6380TIP3   OH240630   6.472   6.121   3.702 -0.0157 -0.6118  0.5153
 6380TIP3    H140631   6.465   6.045   3.760 -0.2026 -1.4733 -0.6041
 6380TIP3    H240632   6.436   6.091   3.619 -1.4613  1.1383  0.4441
 6381TIP3   OH240633   2.283   6.500  17.201  0.0867  0.3840 -0.2852
 6381TIP3    H140634   2.221   6.560  17.241  1.8245  2.1590 -0.1095
 6381TIP3    H240635   2.328   6.459  17.275  0.2384  0.3312 -0.4054
 6382TIP3   OH240636   6.783   6.803  14.864 -0.1028  0.4711  0.4587
 6382TIP3    H140637   6.806   6.874  14.804  0.2034  0.0568  0.0801
 6382TIP3    H240638   6.803   6.838  14.951  2.7616 -0.0938  0.1360
 6383TIP3   OH240639   0.722   0.578  14.904  0.0025 -0.3056  0.3067
 6383TIP3    H140640   0.681   0.658  14.872  0.4239  0.4865  1.6639
 6383TIP3    H240641   0.715   0.516  14.831 -1.0432  0.7048 -0.4798
 6384TIP3   OH240642   5.651   2.887  12.181 -0.3043  0.0529 -0.4166
 6384TIP3    H140643   5.659   2.928  12.095  1.4247  3.1715  1.0565
 6384TIP3    H240644   5.567   2.916  12.215 -0.0148  0.6936 -0.2247
 6385TIP3   OH240645   5.473   1.867   4.413 -0.0574 -0.0121  0.2654
 6385TIP3    H140646   5.386   1.896   4.441  0.3401  1.7296 -0.2274
 6385TIP3    H240647   5.529   1.881   4.489  0.2103  0.9067 -0.0909
 6386TIP3   OH240648   4.189   6.058  14.313 -0.1657  0.0685  0.6069
 6386TIP3    H140649   4.229   6.146  14.317  0.3285 -0.1969  2.2885
 6386TIP3    H240650   4.229   6.011  14.386  2.6366 -2.9111 -2.4795
 6387TIP3   OH240651   2.767   4.997  11.958  0.0533 -0.3096 -0.0009
 6387TIP3    H140652   2.841   5.039  11.914 -0.4907 -0.0506 -0.6794
 6387TIP3    H240653   2.768   5.032  12.047  0.0917  0.5134 -0.3244
 6388TIP3   OH240654   6.541   4.468   2.867 -0.6214 -0.1241 -0.1357
 6388TIP3    H140655   6.468   4.449   2.926 -0.3822 -0.4446  0.0604
 6388TIP3    H240656   6.550   4.563   2.871 -0.8592 -0.1084  0.0429
 6389TIP3   OH240657   3.296   5.833   2.823  0.4848  0.0121  0.1972
 6389TIP3    H140658   3.379   5.823   2.870  0.3084 -0.3622  0.4287
 6389TIP3    H240659   3.296   5.763   2.759 -0.6719 -1.4375  1.7101
 6390TIP3   OH240660   6.279   6.086   5.601  0.4481  0.3752 -0.4824
 6390TIP3    H140661   6.357   6.120   5.645  1.1396 -0.9104 -0.6672
 6390TIP3    H240662   6.314   6.038   5.526 -0.5872  0.5955 -1.1153
 6391TIP3   OH240663   3.650   5.887  15.518 -0.1073 -0.0152  0.2378
 6391TIP3    H140664   3.579   5.944  15.546  0.0581 -0.6028  2.0089
 6391TIP3    H240665   3.625   5.856  15.431 -1.6994  0.2918  0.5678
 6392TIP3   OH240666   2.084   2.023  11.375  0.0299 -0.3281 -0.2784
 6392TIP3    H140667   2.097   2.113  11.405  0.0165 -0.1929 -0.6737
 6392TIP3    H240668   2.168   1.998  11.336  0.7453 -1.2191  1.6665
 6393TIP3   OH240669   5.137   6.159  16.558  0.0068  0.2256  0.1836
 6393TIP3    H140670   5.095   6.109  16.628  0.7956  0.1582  0.6156
 6393TIP3    H240671   5.228   6.168  16.586 -0.0065  1.4740 -0.1193
 6394TIP3   OH240672   5.886   6.385  14.761  0.0195 -0.3619  0.2285
 6394TIP3    H140673   5.931   6.424  14.686 -0.9989  0.1965 -0.1052
 6394TIP3    H240674   5.800   6.426  14.762 -0.2776 -0.9658  1.2230
 6395TIP3   OH240675   3.362   2.688   1.538  0.7947  0.2339  0.2541
 6395TIP3    H140676   3.429   2.700   1.604  0.4586 -1.2238  0.9168
 6395TIP3    H240677   3.404   2.711   1.455  1.4271  1.4062  0.8845
 6396TIP3   OH240678   6.746   6.159   1.205  0.1963 -0.3651  0.7820
 6396TIP3    H140679   6.690   6.089   1.171  0.6612 -0.7387  0.7638
 6396TIP3    H240680   6.738   6.153   1.300  0.0594 -0.2991  0.7737
 6397TIP3   OH240681   2.185   5.478  16.692  0.1434 -0.4184  0.2772
 6397TIP3    H140682   2.246   5.464  16.620  0.5363  0.0904  0.5019
 6397TIP3    H240683   2.098   5.466  16.653  0.3839 -1.2005 -0.0332
 6398TIP3   OH240684   5.861   5.528  13.543 -0.5917  0.4560 -0.2297
 6398TIP3    H140685   5.826   5.612  13.515 -0.6152  0.0965 -1.3250
 6398TIP3    H240686   5.830   5.465  13.478 -1.5743 -0.6327  1.2143
 6399TIP3   OH240687   0.719   1.431  12.471  0.1947 -0.4579  0.4952
 6399TIP3    H140688   0.680   1.463  12.552  1.0001 -0.4360  0.8885
 6399TIP3    H240689   0.653   1.447  12.404 -0.9395 -1.5153  1.3265
 6400TIP3   OH240690   5.630   5.096   4.653 -0.1940  0.3837 -0.0353
 6400TIP3    H140691   5.707   5.148   4.675  0.7064 -1.3928  1.2944
 6400TIP3    H240692   5.647   5.064   4.565 -0.2312  1.3847 -0.4164
 6401TIP3   OH240693   4.643   5.258  11.583 -0.0572  0.0902  0.3260
 6401TIP3    H140694   4.577   5.207  11.629  0.6627  0.5722  1.9671
 6401TIP3    H240695   4.707   5.193  11.553 -1.4119 -0.4201 -1.6125
 6402TIP3   OH240696   4.467   2.884   0.171 -0.6070  0.3470  0.4676
 6402TIP3    H140697   4.545   2.939   0.163  0.3935 -1.0825 -0.1828
 6402TIP3    H240698   4.500   2.802   0.209 -1.4612 -0.8556 -1.2556
 6403TIP3   OH240699   1.161   4.420   1.366  0.5002 -0.3667 -0.5957
 6403TIP3    H140700   1.173   4.399   1.459 -1.2394  0.5712 -0.1181
 6403TIP3    H240701   1.232   4.374   1.322  1.9033 -0.1323  1.2833
 6404TIP3   OH240702   4.573   3.667  16.781  0.6571 -0.6986  0.6015
 6404TIP3    H140703   4.516   3.604  16.825  2.2061 -2.2383  0.5394
 6404TIP3    H240704   4.650   3.615  16.755  1.9182  1.1865  0.3643
 6405TIP3   OH240705   6.451   2.224   3.281 -0.3315 -0.5447 -0.2156
 6405TIP3    H140706   6.512   2.159   3.245 -0.9798 -1.9304  1.0499
 6405TIP3    H240707   6.367   2.202   3.240 -0.3561  0.1955 -0.5776
 6406TIP3   OH240708   4.597   5.765  13.019  0.3067 -0.1434 -0.2477
 6406TIP3    H140709   4.526   5.767  12.955  1.4117 -0.0557 -1.5066
 6406TIP3    H240710   4.591   5.850  13.063  2.2697  1.8470 -3.4109
 6407TIP3   OH240711   0.439   4.376   4.264 -0.0418 -0.3231 -0.3797
 6407TIP3    H140712   0.534   4.364   4.263  0.0117  0.0605 -1.6333
 6407TIP3    H240713   0.420   4.421   4.182 -1.2854 -0.1687 -0.0248
 6408TIP3   OH240714   0.155   5.628  16.135  0.0460 -0.4515 -0.4318
 6408TIP3    H140715   0.189   5.570  16.067  1.2621 -1.1055  0.6958
 6408TIP3    H240716   0.233   5.664  16.177 -0.6673  1.8658 -0.9421
 6409TIP3   OH240717   2.874   6.557  11.818 -0.4005  0.2584 -0.3511
 6409TIP3    H140718   2.945   6.529  11.876 -0.7961  0.1133  0.0716
 6409TIP3    H240719   2.804   6.586  11.877 -0.8156  0.0964 -0.7514
 6410TIP3   OH240720   0.357   2.722  12.991 -0.0444 -0.4448 -0.4686
 6410TIP3    H140721   0.383   2.746  12.902  0.5915  0.2686 -0.1107
 6410TIP3    H240722   0.346   2.628  12.989 -0.0284 -0.4307 -1.3088
 6411TIP3   OH240723   4.980   5.239  13.294  0.2126 -0.2079 -0.7528
 6411TIP3    H140724   4.972   5.190  13.375 -2.1652  2.5456  0.8832
 6411TIP3    H240725   5.067   5.279  13.298 -0.8491  2.1735  2.0397
 6412TIP3   OH240726   4.931   1.722   2.168 -0.2743  0.1781  0.4521
 6412TIP3    H140727   4.886   1.803   2.194 -0.1008  0.7901 -1.0711
 6412TIP3    H240728   4.886   1.694   2.088  2.8923  1.6644 -2.0614
 6413TIP3   OH240729   5.475   0.551  13.088 -0.1577  0.0142  0.7215
 6413TIP3    H140730   5.483   0.458  13.068  1.5056  0.3940 -0.5123
 6413TIP3    H240731   5.477   0.594  13.003  1.3008  1.3169  1.3798
 6414TIP3   OH240732   2.592   2.920  10.372  0.6177  0.1821  0.3689
 6414TIP3    H140733   2.637   2.837  10.360  1.6904  0.5972  1.3940
 6414TIP3    H240734   2.620   2.974  10.298  2.5463  0.7241  1.4202
 6415TIP3   OH240735   2.211   5.011  12.743  0.4111 -0.0132  0.2592
 6415TIP3    H140736   2.243   5.088  12.697 -0.4886  0.5357  0.5385
 6415TIP3    H240737   2.120   5.001  12.713 -0.2446  0.4447  2.0270
 6416TIP3   OH240738   5.439   1.663   0.052  0.2322  0.5829 -0.4350
 6416TIP3    H140739   5.495   1.719  -0.002  0.2589  0.2674 -0.7330
 6416TIP3    H240740   5.449   1.576   0.015  1.7326 -0.0183  1.2278
 6417TIP3   OH240741   3.757   2.142  16.863  0.1137 -0.2297 -0.0293
 6417TIP3    H140742   3.730   2.162  16.953 -3.4150 -2.7289 -0.3667
 6417TIP3    H240743   3.740   2.223  16.815  0.0744  0.4814  1.1368
 6418TIP3   OH240744   4.386   1.877   1.561  0.0631 -0.2739 -0.3991
 6418TIP3    H140745   4.302   1.833   1.574 -0.2389  0.6719  1.1306
 6418TIP3    H240746   4.408   1.860   1.470 -1.4702 -1.0900 -0.6538
 6419TIP3   OH240747   3.112   0.731  17.002 -0.1007 -0.1243 -0.3860
 6419TIP3    H140748   3.020   0.703  17.005 -0.0490 -0.3462 -0.7586
 6419TIP3    H240749   3.142   0.724  17.092 -0.2022 -0.9234 -0.4023
 6420TIP3   OH240750   3.055   2.369   2.863  0.7081  0.3681  0.0931
 6420TIP3    H140751   2.999   2.401   2.935  0.3716 -0.3863  0.1728
 6420TIP3    H240752   3.144   2.385   2.893  0.5470  1.7976 -0.1292
 6421TIP3   OH240753   5.562   6.682  16.154 -0.1778  0.9921  0.0983
 6421TIP3    H140754   5.585   6.751  16.092 -0.1696  1.3247  0.4696
 6421TIP3    H240755   5.514   6.618  16.102  0.5737  0.8495 -0.4337
 6422TIP3   OH240756   0.336   1.555   1.692 -0.6583  0.3210 -0.0829
 6422TIP3    H140757   0.408   1.618   1.707 -1.6650  1.6721 -0.7283
 6422TIP3    H240758   0.378   1.469   1.697  1.1032  1.0815 -0.9268
 6423TIP3   OH240759   6.640   0.655  11.901  0.2656  0.1230 -0.6270
 6423TIP3    H140760   6.652   0.630  11.810 -1.2810  0.2834 -0.8954
 6423TIP3    H240761   6.715   0.712  11.920 -0.1070  1.1909 -2.2022
 6424TIP3   OH240762   4.211   4.486  17.094  0.6508 -0.0845 -0.0363
 6424TIP3    H140763   4.254   4.572  17.100  0.2688  0.1348 -0.3794
 6424TIP3    H240764   4.119   4.507  17.078  0.0513 -0.5045  2.4032
 6425TIP3   OH240765   6.087   3.225   4.592 -1.3306 -0.3697 -0.4587
 6425TIP3    H140766   6.164   3.170   4.600 -0.9795  0.3144  1.2032
 6425TIP3    H240767   6.114   3.296   4.534 -0.1204  0.7863  1.4356
 6426TIP3   OH240768   1.545   5.048   5.076  0.5114  0.0747 -0.1304
 6426TIP3    H140769   1.638   5.048   5.099  0.5237  1.2939 -0.0815
 6426TIP3    H240770   1.501   5.084   5.154 -0.1775 -1.7995  0.3893
 6427TIP3   OH240771   3.567   6.821  13.517  0.1094 -0.0840  0.3311
 6427TIP3    H140772   3.473   6.808  13.530 -0.1283  0.7610 -0.4576
 6427TIP3    H240773   3.607   6.782  13.595 -1.0200  1.2449  1.6377
 6428TIP3   OH240774   5.038   6.078  14.412 -0.0630  0.1804 -0.7817
 6428TIP3    H140775   5.051   6.118  14.326  0.2471  0.4228 -0.6253
 6428TIP3    H240776   5.110   6.015  14.421 -1.2117 -1.2830 -1.5131
 6429TIP3   OH240777   0.740   6.034  12.647 -0.1487  0.1794 -0.5836
 6429TIP3    H140778   0.760   5.951  12.690 -1.2846 -1.0752 -2.3366
 6429TIP3    H240779   0.816   6.051  12.591 -1.1909 -1.4211 -2.6350
 6430TIP3   OH240780   0.907   0.006   3.449 -0.0324 -0.1899 -0.3102
 6430TIP3    H140781   0.813  -0.012   3.453 -0.2403  0.9329  0.2276
 6430TIP3    H240782   0.917   0.064   3.373  0.4872 -1.7162 -1.4394
 6431TIP3   OH240783   5.381   3.232   2.000  0.0332  0.2251  0.2134
 6431TIP3    H140784   5.328   3.206   1.924  1.3386 -0.5176 -0.5015
 6431TIP3    H240785   5.412   3.320   1.979 -0.4395  0.4270  0.3617
 6432TIP3   OH240786   0.570   5.838  12.163 -0.2325  0.0251  0.5438
 6432TIP3    H140787   0.576   5.901  12.091  1.1942  0.4875  1.0227
 6432TIP3    H240788   0.554   5.891  12.241 -3.1986 -0.5744  0.4643
 6433TIP3   OH240789   5.191   0.454  14.759 -0.2332 -0.4575  0.5900
 6433TIP3    H140790   5.247   0.504  14.701  1.1410 -2.7940 -0.2295
 6433TIP3    H240791   5.251   0.400  14.811 -1.5994 -0.9748  1.7154
 6434TIP3   OH240792   3.914   2.691   1.687 -0.0030 -0.4061  0.5228
 6434TIP3    H140793   3.908   2.778   1.729  0.1667 -0.8307  1.4649
 6434TIP3    H240794   4.003   2.661   1.709 -0.6291 -1.5224  1.6774
 6435TIP3   OH240795   5.595   1.206  12.119  0.0231  0.3891  0.1486
 6435TIP3    H140796   5.608   1.175  12.208 -1.2877  0.2621  0.3092
 6435TIP3    H240797   5.665   1.164  12.069  1.3864  1.2444  1.2646
 6436TIP3   OH240798   4.226   1.739   3.387  0.0349  0.2190 -0.0040
 6436TIP3    H140799   4.293   1.679   3.417 -0.7054 -0.2444  0.7717
 6436TIP3    H240800   4.233   1.814   3.446  0.6008  0.6719 -0.6310
 6437TIP3   OH240801   0.606   3.507   2.030  0.1697  0.3378 -0.1424
 6437TIP3    H140802   0.687   3.482   2.072 -0.9786 -2.1716  0.7584
 6437TIP3    H240803   0.624   3.501   1.936  1.0405 -0.0764  0.0511
 6438TIP3   OH240804   0.236   5.443  16.731  0.5878 -0.4516  0.4407
 6438TIP3    H140805   0.297   5.444  16.805  0.8142  1.3432  0.2790
 6438TIP3    H240806   0.150   5.446  16.772  0.4769 -3.6048  0.6893
 6439TIP3   OH240807   2.829   6.591  15.008 -0.7823 -0.1894  0.0877
 6439TIP3    H140808   2.785   6.586  15.092  2.2553 -1.7326  1.7536
 6439TIP3    H240809   2.791   6.520  14.956 -2.2493  0.3869  0.3241
 6440TIP3   OH240810   3.920   6.585  13.833  0.6268  0.0967 -0.3341
 6440TIP3    H140811   3.950   6.608  13.921  0.2495 -0.4691 -0.0528
 6440TIP3    H240812   3.858   6.514  13.847  0.6985 -0.1166 -1.0748
 6441TIP3   OH240813   5.246   4.504   1.354  0.4527  0.0505 -0.7281
 6441TIP3    H140814   5.332   4.526   1.389 -0.4165  0.6256  1.1431
 6441TIP3    H240815   5.209   4.589   1.329  0.1973 -0.1419 -1.0082
 6442TIP3   OH240816   6.308   0.169  12.109  0.0959 -0.5664  0.2381
 6442TIP3    H140817   6.323   0.204  12.021  2.1818 -0.2113  0.6788
 6442TIP3    H240818   6.267   0.242  12.156 -0.2415 -0.4648 -0.2044
 6443TIP3   OH240819   5.483   1.773  13.405  0.2069 -0.2220  0.4414
 6443TIP3    H140820   5.557   1.830  13.425 -0.5658  0.9794 -0.0222
 6443TIP3    H240821   5.476   1.774  13.310 -1.0067  0.5030  0.5134
 6444TIP3   OH240822   5.665   0.128   1.261 -0.3873 -0.1908  0.3285
 6444TIP3    H140823   5.607   0.106   1.333 -0.9879 -0.2459 -0.1642
 6444TIP3    H240824   5.609   0.125   1.183  0.3447 -0.5940 -0.1983
 6445TIP3   OH240825   2.461   3.520  13.492 -0.0704 -0.3890 -0.4466
 6445TIP3    H140826   2.369   3.506  13.514 -0.2181  2.1722  1.0418
 6445TIP3    H240827   2.459   3.588  13.425  0.7435 -0.0687 -0.1533
 6446TIP3   OH240828   3.449   5.025   3.762 -0.0344 -0.4961  0.0849
 6446TIP3    H140829   3.538   5.059   3.777 -0.2901  0.5162 -0.5965
 6446TIP3    H240830   3.401   5.049   3.842 -0.1253  0.4933 -0.2477
 6447TIP3   OH240831   5.064   4.129   0.533  0.0291 -0.1385  0.1229
 6447TIP3    H140832   5.106   4.049   0.564 -0.2007 -0.0603  0.6544
 6447TIP3    H240833   4.986   4.099   0.488  0.0697 -0.2294  0.1128
 6448TIP3   OH240834   2.943   1.260   4.047 -0.0609  0.3009  0.1883
 6448TIP3    H140835   2.898   1.233   4.127  0.5204  2.7299  1.4343
 6448TIP3    H240836   3.036   1.254   4.067  0.1564 -0.8859 -1.0099
 6449TIP3   OH240837   5.705   1.838  12.225  0.0636 -0.5796 -0.2754
 6449TIP3    H140838   5.748   1.902  12.282  0.0060 -0.7509 -0.0372
 6449TIP3    H240839   5.665   1.890  12.156 -1.6544 -0.1665  0.9770
 6450TIP3   OH240840   5.580   1.174   5.143  0.1209  0.1730 -0.2783
 6450TIP3    H140841   5.496   1.207   5.112 -0.8123 -1.7185  0.1310
 6450TIP3    H240842   5.635   1.170   5.065 -0.8926 -0.6646 -0.9641
 6451TIP3   OH240843   6.372   1.231  14.977 -0.1270  0.1845  0.5904
 6451TIP3    H140844   6.304   1.295  14.956  1.6799  1.4770 -1.7920
 6451TIP3    H240845   6.400   1.254  15.066 -0.4352  1.8552  0.2893
 6452TIP3   OH240846   4.858   5.623  14.507 -0.4566 -0.2477 -0.1839
 6452TIP3    H140847   4.799   5.548  14.505 -0.2585 -0.3938 -0.7877
 6452TIP3    H240848   4.940   5.590  14.471 -0.0704  0.0147  0.4282
 6453TIP3   OH240849   1.062   5.583   1.016 -0.2296  0.5176 -0.0115
 6453TIP3    H140850   1.147   5.610   1.049 -1.2128  2.8365  0.8748
 6453TIP3    H240851   1.066   5.602   0.922  0.2139  0.7121  0.0430
 6454TIP3   OH240852   2.499   0.690   4.632  0.2990 -0.3741  0.2294
 6454TIP3    H140853   2.536   0.777   4.623 -1.1649  0.2625  0.1320
 6454TIP3    H240854   2.414   0.695   4.589  1.1062 -2.4871 -1.8146
 6455TIP3   OH240855   1.977   6.077   1.159 -0.3037  0.3719 -0.2996
 6455TIP3    H140856   1.932   6.059   1.075 -0.2708 -0.1143 -0.2192
 6455TIP3    H240857   1.905   6.089   1.221 -0.3308 -0.1097 -0.2312
 6456TIP3   OH240858   3.665   2.449   5.019  0.4839  0.5660 -0.1334
 6456TIP3    H140859   3.697   2.440   4.930 -0.7132 -0.5017 -0.4836
 6456TIP3    H240860   3.740   2.425   5.074  1.3220  1.5271 -0.8124
 6457TIP3   OH240861   1.125   4.527   0.753 -0.0666  0.4097 -0.0854
 6457TIP3    H140862   1.129   4.505   0.660 -0.8393 -0.0562 -0.0191
 6457TIP3    H240863   1.035   4.506   0.779  0.1265  0.5730  0.7569
 6458TIP3   OH240864   5.068   5.138  13.823 -0.1317 -0.5814 -0.1593
 6458TIP3    H140865   5.060   5.218  13.874  0.0132  0.3775 -1.5887
 6458TIP3    H240866   5.084   5.069  13.888 -2.2956  0.1926  1.2875
 6459TIP3   OH240867   3.700   5.632   0.825 -0.0158 -0.7144  0.3724
 6459TIP3    H140868   3.733   5.653   0.738 -0.1449  2.8239  1.0430
 6459TIP3    H240869   3.605   5.646   0.818 -0.1328 -1.2080  0.9076
 6460TIP3   OH240870   2.670   2.468   3.444  0.4149  0.1374 -0.4754
 6460TIP3    H140871   2.612   2.530   3.401  1.0405  0.3242 -1.0592
 6460TIP3    H240872   2.628   2.383   3.429 -0.5689  0.4239  0.5374
 6461TIP3   OH240873   5.144   2.054   5.391 -0.2351 -0.0562  0.2775
 6461TIP3    H140874   5.235   2.032   5.372 -0.0327 -1.3161  2.4645
 6461TIP3    H240875   5.094   1.981   5.357 -0.4768  0.6214 -0.8945
 6462TIP3   OH240876   6.540   5.224   4.018  0.1956 -0.1858  0.0085
 6462TIP3    H140877   6.570   5.134   4.008 -0.2240 -0.3023 -0.2414
 6462TIP3    H240878   6.476   5.219   4.089  0.1491 -0.0918 -0.0273
 6463TIP3   OH240879   6.438   2.042   0.667 -0.6099  0.2926  0.1190
 6463TIP3    H140880   6.356   2.051   0.618 -0.0689  1.4108 -0.6129
 6463TIP3    H240881   6.435   1.953   0.701 -1.2636 -0.3593 -1.5106
 6464TIP3   OH240882   2.724   5.178  11.129  0.3611 -0.0301  0.9918
 6464TIP3    H140883   2.708   5.252  11.069  0.4778 -2.4119 -2.2311
 6464TIP3    H240884   2.636   5.156  11.161 -0.3786 -1.0986 -1.4990
 6465TIP3   OH240885   1.816   4.902   5.803 -0.4149 -0.0280  0.2078
 6465TIP3    H140886   1.893   4.875   5.852 -1.0353 -2.8645 -0.1991
 6465TIP3    H240887   1.849   4.921   5.715 -0.0279 -0.0307  0.3515
 6466TIP3   OH240888   1.034   2.774  12.983  0.3511  0.2350  0.7307
 6466TIP3    H140889   1.031   2.694  13.035 -0.6701  1.1604  2.1561
 6466TIP3    H240890   1.127   2.787  12.964  0.5793 -0.9959  0.9177
 6467TIP3   OH240891   4.569   1.403  16.775 -0.8689  0.1233 -0.0061
 6467TIP3    H140892   4.533   1.457  16.705  0.4102  0.1898 -0.6279
 6467TIP3    H240893   4.645   1.451  16.806 -0.6111 -0.5856  0.4796
 6468TIP3   OH240894   2.363   6.119   3.258 -0.2607 -0.0040 -0.7946
 6468TIP3    H140895   2.399   6.203   3.288 -1.4922 -0.2100  1.4744
 6468TIP3    H240896   2.435   6.078   3.211  0.7361  1.8238 -0.9673
 6469TIP3   OH240897   1.947   1.963  12.043 -0.3075 -0.4980  0.2363
 6469TIP3    H140898   1.945   1.871  12.014  0.9103 -0.2335 -0.7766
 6469TIP3    H240899   1.955   2.013  11.962 -3.3278  0.6878  0.5620
 6470TIP3   OH240900   5.109   0.017  11.822 -0.0599 -0.2268  0.7990
 6470TIP3    H140901   5.038   0.074  11.792 -1.5280 -1.1654  2.3226
 6470TIP3    H240902   5.107  -0.058  11.763 -0.6914 -0.4921  1.1510
 6471TIP3   OH240903   1.072   3.132   2.118 -0.1416 -0.2047 -0.1053
 6471TIP3    H140904   0.979   3.120   2.102 -0.4837 -0.1678  1.6238
 6471TIP3    H240905   1.097   3.057   2.173  1.0842 -0.7388 -1.3430
 6472TIP3   OH240906   6.723   2.694   4.162 -0.4423 -0.2766 -0.8525
 6472TIP3    H140907   6.752   2.603   4.162 -1.4152 -0.5960 -0.3497
 6472TIP3    H240908   6.748   2.727   4.248 -2.0639 -0.7344 -0.1731
 6473TIP3   OH240909   6.747   3.908  12.481 -0.5621 -0.0785  0.1555
 6473TIP3    H140910   6.676   3.845  12.467 -0.1187 -0.8809  1.3372
 6473TIP3    H240911   6.792   3.876  12.559  0.5021  0.9703 -0.0000
 6474TIP3   OH240912   1.906   0.192   3.551 -0.2414 -0.3395 -0.0520
 6474TIP3    H140913   1.855   0.137   3.611 -1.5189  2.5703  1.8029
 6474TIP3    H240914   1.994   0.194   3.589 -0.4603 -0.3118  0.4646
 6475TIP3   OH240915   6.155   2.904   0.286  0.2616  0.3652  0.4669
 6475TIP3    H140916   6.220   2.836   0.274 -0.8216 -0.3518 -2.1944
 6475TIP3    H240917   6.096   2.870   0.354  1.1179 -0.2120  0.9296
 6476TIP3   OH240918   1.269   3.381  16.981  0.4757  0.0344  0.1967
 6476TIP3    H140919   1.328   3.305  16.983  1.0894  0.4183 -1.4110
 6476TIP3    H240920   1.327   3.456  16.966 -0.4260  0.3042 -2.5980
 6477TIP3   OH240921   4.233   0.588   3.357  0.0002 -0.0268  0.1911
 6477TIP3    H140922   4.199   0.677   3.346 -1.2716 -0.6463 -1.4306
 6477TIP3    H240923   4.314   0.599   3.406 -0.4571  1.9519  0.5999
 6478TIP3   OH240924   3.243   4.532   0.942  0.0279  0.0288 -0.3198
 6478TIP3    H140925   3.314   4.500   0.997 -0.6535  1.1867  1.3155
 6478TIP3    H240926   3.241   4.627   0.959 -0.0658  0.4885 -2.5391
 6479TIP3   OH240927   6.138   0.919  15.436  0.2926 -0.0929  0.1803
 6479TIP3    H140928   6.138   1.006  15.475  0.5748  0.1877 -0.4356
 6479TIP3    H240929   6.083   0.927  15.358  0.3703 -0.4552  0.0852
 6480TIP3   OH240930   2.233   4.599   0.544 -0.1028 -0.1908 -0.1078
 6480TIP3    H140931   2.247   4.548   0.624  0.9988 -2.2997 -1.5399
 6480TIP3    H240932   2.160   4.554   0.501 -0.1215  0.4032 -0.6960
 6481TIP3   OH240933   3.871   3.099  16.193  0.0063  0.3695 -0.1915
 6481TIP3    H140934   3.914   3.170  16.241 -0.0677  0.2522  0.0503
 6481TIP3    H240935   3.801   3.142  16.144 -2.4214  0.0775  2.7093
 6482TIP3   OH240936   5.980   1.039  16.553 -0.0086 -0.1655  0.2563
 6482TIP3    H140937   6.040   1.012  16.484 -2.1024 -1.2188 -1.2789
 6482TIP3    H240938   5.973   1.134  16.542  2.0403  0.1288  1.1031
 6483TIP3   OH240939   0.121   6.744  14.484  0.0130  0.1869 -0.4171
 6483TIP3    H140940   0.039   6.705  14.452  1.1830 -1.5136 -1.5512
 6483TIP3    H240941   0.110   6.838  14.469 -2.1484  0.1348  0.5170
 6484TIP3   OH240942   5.021   0.564   2.009 -0.5380  0.0672  0.5024
 6484TIP3    H140943   5.058   0.637   1.960 -1.2450  1.2888  1.6883
 6484TIP3    H240944   4.967   0.606   2.076 -1.3241 -1.5689  0.9502
 6485TIP3   OH240945   2.974   5.995  15.250 -0.2680 -0.1629 -0.5108
 6485TIP3    H140946   3.003   5.939  15.177  0.3789  0.2077 -0.5399
 6485TIP3    H240947   2.968   5.935  15.324  0.3682 -0.2922 -0.5551
 6486TIP3   OH240948   5.974   5.026   0.667  0.3977  0.0971 -0.3905
 6486TIP3    H140949   6.052   5.032   0.612  1.3597  2.1133  1.0926
 6486TIP3    H240950   6.008   5.014   0.755 -1.0868 -1.8884 -0.0184
 6487TIP3   OH240951   2.798   2.464   5.739 -0.1221  0.0297  0.0383
 6487TIP3    H140952   2.825   2.374   5.724  0.0918  0.1311 -0.2031
 6487TIP3    H240953   2.762   2.464   5.828  0.1882 -0.2247  0.1683
 6488TIP3   OH240954   4.684   2.782  13.624  0.1678 -0.1937  0.2990
 6488TIP3    H140955   4.732   2.863  13.635  0.0695 -0.3588  2.4176
 6488TIP3    H240956   4.745   2.723  13.580  0.3798  0.8688 -0.8705
 6489TIP3   OH240957   4.460   1.173   5.585  0.3687 -0.3125 -0.1494
 6489TIP3    H140958   4.421   1.114   5.650  0.4976  1.6477  1.7977
 6489TIP3    H240959   4.537   1.209   5.629  1.0638  0.2737 -1.7977
 6490TIP3   OH240960   5.317   2.834   0.523  0.0241  0.2408  0.1507
 6490TIP3    H140961   5.365   2.807   0.601  1.3147  0.1183 -0.6679
 6490TIP3    H240962   5.318   2.757   0.466  0.0680  0.6816 -0.4492
 6491TIP3   OH240963   2.029   5.994  12.578  0.0622  0.6001  0.0985
 6491TIP3    H140964   2.087   5.918  12.583  0.7352  0.6002 -4.0836
 6491TIP3    H240965   2.079   6.066  12.617  1.6282 -0.0358 -0.6962
 6492TIP3   OH240966   5.907   5.125  10.954 -0.0590 -0.2355 -0.2264
 6492TIP3    H140967   5.930   5.186  10.884 -0.5506  0.0113 -0.1778
 6492TIP3    H240968   5.880   5.046  10.908 -0.1092 -0.1711 -0.3084
 6493TIP3   OH240969   1.141   0.868   5.464 -0.0606  0.0692 -0.0011
 6493TIP3    H140970   1.198   0.906   5.531  1.0407  0.1318 -0.9286
 6493TIP3    H240971   1.053   0.871   5.501  0.1966  2.1906  0.5490
 6494TIP3   OH240972   4.875   2.102  15.910 -0.1410  0.5077 -0.2668
 6494TIP3    H140973   4.957   2.102  15.960 -0.4321  1.2220  0.2285
 6494TIP3    H240974   4.877   2.184  15.861 -1.5075  1.5828  1.3774
 6495TIP3   OH240975   3.931   0.982   5.453  0.2855  0.0581  0.8544
 6495TIP3    H140976   3.865   0.915   5.437  0.6763 -0.3660  0.9762
 6495TIP3    H240977   3.954   0.971   5.546  1.4861 -0.6994  0.4952
 6496TIP3   OH240978   3.615   0.814   2.222  0.2531  0.0972 -0.1186
 6496TIP3    H140979   3.568   0.750   2.169 -0.2095 -0.1878  0.6149
 6496TIP3    H240980   3.547   0.853   2.277  0.7291  0.3398  0.3011
 6497TIP3   OH240981   6.795   3.483  13.272 -0.1466  0.1973  0.1076
 6497TIP3    H140982   6.738   3.415  13.307 -0.3940  1.0681  1.4959
 6497TIP3    H240983   6.843   3.516  13.348  1.4088  0.2410 -0.8527
 6498TIP3   OH240984   4.909   2.653   6.316 -0.2756  0.2080  0.1576
 6498TIP3    H140985   4.929   2.745   6.335  0.6252 -0.1725  1.1128
 6498TIP3    H240986   4.958   2.603   6.381 -0.3473 -0.9788 -0.6583
 6499TIP3   OH240987   3.609   1.149   3.209  0.2906  0.0502  0.0354
 6499TIP3    H140988   3.608   1.241   3.183  0.9325 -0.2228 -1.0154
 6499TIP3    H240989   3.596   1.101   3.127 -0.3486 -0.7911  0.6174
 6500TIP3   OH240990   5.286   2.320  10.731  0.9743 -0.3151 -0.0295
 6500TIP3    H140991   5.338   2.398  10.710  1.0096 -0.6780 -1.3879
 6500TIP3    H240992   5.201   2.355  10.757  1.3979  0.2194  0.6883
 6501TIP3   OH240993   2.359   3.002   0.762 -0.2054  0.1645 -0.3333
 6501TIP3    H140994   2.266   2.991   0.743 -0.3337 -2.0090  1.2021
 6501TIP3    H240995   2.403   2.946   0.697 -0.0023  0.5565 -0.5399
 6502TIP3   OH240996   2.073   0.999  10.908  0.0271 -0.1098 -0.0143
 6502TIP3    H140997   2.002   0.954  10.864  0.1560  0.4453 -0.8170
 6502TIP3    H240998   2.125   1.037  10.837 -0.4607  1.8784  0.6176
 6503TIP3   OH240999   5.458   6.278   0.313 -0.8081  0.4537 -0.2157
 6503TIP3    H141000   5.524   6.296   0.381  0.2592 -1.2841 -0.7325
 6503TIP3    H241001   5.429   6.365   0.284  2.7556  1.4244 -1.3943
 6504TIP3   OH241002   1.686   5.264  13.941  0.0550  0.2342 -0.1751
 6504TIP3    H141003   1.733   5.198  13.890 -0.0222  0.4730 -0.5643
 6504TIP3    H241004   1.691   5.343  13.887  2.1264  1.2039  1.2799
 6505TIP3   OH241005   5.175   5.315   4.979 -0.4501 -0.3222  0.3193
 6505TIP3    H141006   5.158   5.260   5.055  0.7736 -1.4724 -0.1930
 6505TIP3    H241007   5.154   5.404   5.008  1.2403 -0.5316  2.4254
 6506TIP3   OH241008   5.019   6.300  17.044 -0.0458  0.5257 -0.4214
 6506TIP3    H141009   4.953   6.370  17.052  0.4738  0.8512  1.3572
 6506TIP3    H241010   5.083   6.335  16.981 -0.6187  0.9638 -0.7772
 6507TIP3   OH241011   2.898   2.327  15.227  0.1831 -0.0811  0.2544
 6507TIP3    H141012   2.927   2.240  15.199 -3.6347 -2.0948  1.8747
 6507TIP3    H241013   2.929   2.334  15.317 -2.4222 -1.4273  1.3432
 6508TIP3   OH241014   4.196   1.426   1.911  0.2165  0.1846  0.5514
 6508TIP3    H141015   4.153   1.343   1.932  1.2747 -0.6943 -0.5716
 6508TIP3    H241016   4.280   1.422   1.958  0.9609 -0.1321 -0.7526
 6509TIP3   OH241017   0.791   4.986   6.211  0.2484  0.1830 -0.0315
 6509TIP3    H141018   0.834   5.072   6.210  0.9472 -0.1558  0.0341
 6509TIP3    H241019   0.825   4.943   6.290  1.3164 -0.8405 -1.0024
 6510TIP3   OH241020   0.649   3.707  13.406  0.0283 -0.3344 -0.1551
 6510TIP3    H141021   0.680   3.625  13.367 -0.5090 -0.9187  0.6227
 6510TIP3    H241022   0.587   3.742  13.342  0.2337 -0.5499 -0.4756
 6511TIP3   OH241023   2.324   5.683   2.730 -0.4036 -0.4014 -0.1637
 6511TIP3    H141024   2.384   5.617   2.698  1.1767  0.2672  1.2563
 6511TIP3    H241025   2.380   5.751   2.767 -1.9693  1.5247 -1.1266
 6512TIP3   OH241026   3.491   1.663  12.375  0.0593  0.4590 -0.3385
 6512TIP3    H141027   3.443   1.662  12.458  0.0083  1.9333 -0.3359
 6512TIP3    H241028   3.566   1.605  12.390 -2.5843 -3.5711 -0.9292
 6513TIP3   OH241029   2.735   0.107   0.933 -0.6283  0.2127  0.8214
 6513TIP3    H141030   2.658   0.090   0.879  0.4765  0.0458 -0.7940
 6513TIP3    H241031   2.800   0.141   0.871  0.4807  0.7175  2.2023
 6514TIP3   OH241032   0.780   5.117  14.370  0.3847  0.0685  0.1885
 6514TIP3    H141033   0.703   5.112  14.314 -0.6260 -3.8022  1.6135
 6514TIP3    H241034   0.786   5.209  14.395 -2.3215  0.9250 -1.8695
 6515TIP3   OH241035   0.022   0.966   5.598 -0.4795  0.6526 -0.5088
 6515TIP3    H141036   0.092   1.032   5.598 -0.7025  0.9158  0.3690
 6515TIP3    H241037  -0.017   0.973   5.686 -1.3228  0.2112 -0.8324
 6516TIP3   OH241038   5.062   5.011   5.998  0.2985  0.1807 -0.5215
 6516TIP3    H141039   4.985   5.063   6.024 -1.4803 -2.5086 -0.0615
 6516TIP3    H241040   5.089   5.050   5.915 -0.7057  2.0511 -0.0505
 6517TIP3   OH241041   2.727   5.063  12.916  0.5401  0.6531  0.1481
 6517TIP3    H141042   2.714   5.130  12.983 -0.3536 -0.8592  1.5574
 6517TIP3    H241043   2.741   4.982  12.965 -0.0782 -0.4983 -1.4969
 6518TIP3   OH241044   5.596   5.475   6.155 -0.2081  0.0907 -0.1212
 6518TIP3    H141045   5.633   5.389   6.174 -1.0650 -0.3345 -0.3165
 6518TIP3    H241046   5.507   5.471   6.190 -0.3421  0.8009 -0.3672
 6519TIP3   OH241047   2.095   5.553  16.959  0.0026  0.0057 -0.7919
 6519TIP3    H141048   2.128   5.631  17.003  0.4023 -0.6948  0.1908
 6519TIP3    H241049   2.107   5.571  16.866  0.0123  1.1425 -0.5798
 6520TIP3   OH241050   3.128   4.436  13.885  0.5466 -0.0929  0.6748
 6520TIP3    H141051   3.058   4.371  13.883  1.7190 -1.4077 -0.9418
 6520TIP3    H241052   3.152   4.443  13.977 -0.3685 -1.0955  1.0132
 6521TIP3   OH241053   5.099   0.344   0.614  0.2743 -0.6927  0.3801
 6521TIP3    H141054   5.041   0.403   0.662 -0.0481 -0.1939 -0.6023
 6521TIP3    H241055   5.048   0.317   0.538  1.1429 -0.6654 -0.2206
 6522TIP3   OH241056   1.615   3.047  16.641  0.4747 -0.2554  0.6487
 6522TIP3    H141057   1.687   2.984  16.635  0.6683  0.1038 -1.6267
 6522TIP3    H241058   1.651   3.128  16.605 -1.2990 -0.3259 -1.4980
 6523TIP3   OH241059   2.774   2.623   0.188 -0.0554 -0.5873 -0.4895
 6523TIP3    H141060   2.716   2.695   0.214  1.4383  0.6387 -0.4203
 6523TIP3    H241061   2.773   2.563   0.263  1.2973  1.0639  0.9224
 6524TIP3   OH241062   6.605   6.529   1.482 -0.3019 -0.1861  0.5679
 6524TIP3    H141063   6.677   6.581   1.445 -1.2141  0.3105 -0.5695
 6524TIP3    H241064   6.583   6.573   1.564 -0.5039  0.7552  0.0263
 6525TIP3   OH241065   0.193   1.799   3.460 -0.1041 -0.1452  0.6056
 6525TIP3    H141066   0.280   1.807   3.500 -0.5128  0.9820  1.3378
 6525TIP3    H241067   0.134   1.789   3.535 -0.6784 -0.0912  0.1635
 6526TIP3   OH241068   5.468   3.888   6.077 -0.2165 -0.1532  0.0335
 6526TIP3    H141069   5.426   3.853   5.999  1.1612 -0.3194 -0.6772
 6526TIP3    H241070   5.420   3.968   6.097 -1.9754 -1.2449  0.3418
 6527TIP3   OH241071   4.211   1.705  14.926 -0.3377 -0.1827  0.0903
 6527TIP3    H141072   4.176   1.776  14.872 -1.5461 -0.5112  0.4084
 6527TIP3    H241073   4.300   1.691  14.893 -0.2330  1.1794 -0.2667
 6528TIP3   OH241074   3.767   2.822  13.561  0.0622  0.0809 -0.3208
 6528TIP3    H141075   3.694   2.776  13.601  0.7163  0.7518  1.7751
 6528TIP3    H241076   3.738   2.913  13.554  0.4015  0.1969 -0.2349
 6529TIP3   OH241077   6.343   6.385  14.118 -0.1156  0.4556  0.5641
 6529TIP3    H141078   6.338   6.480  14.111 -0.0733  0.4479  0.4249
 6529TIP3    H241079   6.279   6.362  14.186  0.6265  0.6707  1.3507
 6530TIP3   OH241080   3.514   3.627  10.746  0.0702 -1.0153 -0.1232
 6530TIP3    H141081   3.469   3.554  10.701 -1.0292 -0.6550  0.3476
 6530TIP3    H241082   3.463   3.704  10.722  0.5603 -0.5595  0.2832
 6531TIP3   OH241083   3.582   6.126  15.938  0.6180  0.1090  0.1117
 6531TIP3    H141084   3.607   6.049  15.988  0.2192 -0.7677 -0.9761
 6531TIP3    H241085   3.518   6.171  15.993 -1.0547 -1.7083 -0.2419
 6532TIP3   OH241086   2.648   4.989   2.041 -0.0197  0.4784 -0.2885
 6532TIP3    H141087   2.620   4.938   2.118 -1.6755  2.4432  0.5176
 6532TIP3    H241088   2.665   4.923   1.974 -1.6372 -1.1910  0.8122
 6533TIP3   OH241089   3.510   6.053  15.677 -0.4293 -0.2417 -0.1966
 6533TIP3    H141090   3.511   6.086  15.767 -1.9627 -0.9711  0.1302
 6533TIP3    H241091   3.448   6.109  15.631 -2.0090 -1.6975  0.0225
 6534TIP3   OH241092   4.810   0.856   5.301  0.0929  0.4633  0.1285
 6534TIP3    H141093   4.880   0.892   5.247  0.4749 -0.0436  0.2788
 6534TIP3    H241094   4.824   0.894   5.388  0.9111 -0.5447  0.4651
 6535TIP3   OH241095   1.792   6.575  12.962 -0.2278 -0.0029  0.8594
 6535TIP3    H141096   1.860   6.525  12.917 -1.7175 -0.9051 -0.4920
 6535TIP3    H241097   1.828   6.593  13.049  1.3894 -1.1609  0.4654
 6536TIP3   OH241098   1.119   4.634  10.431  0.3904  0.3082 -0.5081
 6536TIP3    H141099   1.158   4.546  10.435  0.9604  0.5949  0.9582
 6536TIP3    H241100   1.194   4.693  10.432 -0.0260  0.8398 -0.2542
 6537TIP3   OH241101   4.089   1.635  15.630 -0.1440 -0.0657  0.0172
 6537TIP3    H141102   4.154   1.703  15.645  2.3229 -2.4497  0.9470
 6537TIP3    H241103   4.116   1.594  15.548  0.1690 -1.7068  0.9008
 6538TIP3   OH241104   3.211   3.698  13.068  0.4448 -0.0762 -0.3150
 6538TIP3    H141105   3.302   3.723  13.052  0.6816  0.2074  1.3069
 6538TIP3    H241106   3.216   3.620  13.123 -0.2971 -0.6054 -0.9762
 6539TIP3   OH241107   4.035   1.246   2.374 -0.0214  0.2505 -0.3863
 6539TIP3    H141108   4.071   1.264   2.461  1.4813 -1.7845 -0.4966
 6539TIP3    H241109   3.947   1.212   2.390  0.3522 -0.3890  0.3907
 6540TIP3   OH241110   0.709   6.785   0.305  0.2830 -0.0686 -0.1125
 6540TIP3    H141111   0.686   6.740   0.224 -1.4334 -0.2549  0.4346
 6540TIP3    H241112   0.688   6.877   0.288  0.9850  0.0661 -0.2496
 6541TIP3   OH241113   4.134   0.546   5.697 -0.5983 -0.8080  0.2893
 6541TIP3    H141114   4.198   0.608   5.662 -0.4769 -0.4110  1.2082
 6541TIP3    H241115   4.111   0.492   5.621  0.1725 -0.4071 -0.2532
 6542TIP3   OH241116   2.788   5.920   3.821  0.5565  0.3836  0.3430
 6542TIP3    H141117   2.778   5.886   3.732 -0.4375  1.0637  0.1752
 6542TIP3    H241118   2.698   5.932   3.852  0.8877  0.2670  1.4051
 6543TIP3   OH241119   1.570   1.218  11.386 -0.0763 -0.4414 -0.1736
 6543TIP3    H141120   1.609   1.233  11.300  0.6317  1.9373  0.4717
 6543TIP3    H241121   1.475   1.218  11.369  0.0522  0.0325 -0.9676
 6544TIP3   OH241122   2.637   1.977   5.485  0.3804  0.3738  0.0047
 6544TIP3    H141123   2.577   2.046   5.457  0.2118 -1.1412 -3.8913
 6544TIP3    H241124   2.724   2.014   5.470  0.4057  1.0031  1.5181
 6545TIP3   OH241125   1.899   6.586  14.894 -0.0491 -0.5030 -0.8999
 6545TIP3    H141126   1.934   6.611  14.980  0.5592 -2.5519 -0.5089
 6545TIP3    H241127   1.881   6.670  14.851  0.0027  0.5735  1.0607
 6546TIP3   OH241128   3.510   5.308  13.561  0.4315  0.4037 -0.1848
 6546TIP3    H141129   3.462   5.330  13.481  0.4287 -0.0563 -0.3077
 6546TIP3    H241130   3.482   5.220  13.583  1.7636 -0.1727 -0.6709
 6547TIP3   OH241131   5.063   5.583  13.415 -0.1115  0.0454 -0.3981
 6547TIP3    H141132   4.989   5.620  13.367 -0.1471 -0.5105 -0.7829
 6547TIP3    H241133   5.026   5.548  13.496 -0.0617  0.9236  0.0181
 6548TIP3   OH241134   5.438   4.044   1.237 -0.0672 -0.4296 -0.3310
 6548TIP3    H141135   5.421   3.959   1.197 -0.6476 -0.3377 -0.2853
 6548TIP3    H241136   5.513   4.079   1.189  0.8666 -1.4243  0.3503
 6549TIP3   OH241137   6.015   0.638  10.776 -0.6636  0.1466 -0.4976
 6549TIP3    H141138   6.039   0.730  10.764 -0.3111  0.1991  0.5313
 6549TIP3    H241139   5.922   0.641  10.802 -0.1245  0.3984  1.6216
 6550TIP3   OH241140   2.871   5.726   5.376  0.4504 -0.1451  1.0578
 6550TIP3    H141141   2.816   5.804   5.386  1.2424  0.4232  1.0775
 6550TIP3    H241142   2.816   5.654   5.407 -1.2560 -0.0028 -1.3910
 6551TIP3   OH241143   5.676   6.637  12.796  0.4817  0.0064 -0.1462
 6551TIP3    H141144   5.637   6.599  12.874 -0.0279  1.0600  0.1330
 6551TIP3    H241145   5.770   6.641  12.815  0.4072 -0.1099  0.2536
 6552TIP3   OH241146   3.850   3.625  12.294 -0.1138 -0.2860 -0.0787
 6552TIP3    H141147   3.937   3.653  12.267  0.1208 -0.0542  0.9002
 6552TIP3    H241148   3.793   3.652  12.222  0.7593 -1.4248 -1.2325
 6553TIP3   OH241149   3.307   6.464   5.969  0.4353  0.1198 -0.2376
 6553TIP3    H141150   3.375   6.405   5.938 -0.8476 -0.9246 -1.2069
 6553TIP3    H241151   3.348   6.515   6.038  2.1528 -0.5376 -0.7315
 6554TIP3   OH241152   1.972   0.462  13.590  0.5712  0.3540  0.0892
 6554TIP3    H141153   2.014   0.474  13.504 -1.1265 -0.3290 -0.8785
 6554TIP3    H241154   2.011   0.381  13.624  0.6436  0.1685 -0.4213
 6555TIP3   OH241155   5.663   0.009  12.240 -0.2331 -0.5290 -0.4827
 6555TIP3    H141156   5.615   0.050  12.169 -0.3076  0.1019 -0.0676
 6555TIP3    H241157   5.598  -0.008  12.308  0.3245  1.6685  0.6964
 6556TIP3   OH241158   0.498   3.003  15.787  1.0399 -0.4985 -0.0082
 6556TIP3    H141159   0.423   2.963  15.830  0.5579  0.2524 -0.1237
 6556TIP3    H241160   0.480   3.097  15.791  1.4604 -0.3675 -0.9719
 6557TIP3   OH241161   4.342   3.308   6.605 -0.0536  0.1153  0.0662
 6557TIP3    H141162   4.389   3.376   6.556  0.5211 -0.6737 -0.5143
 6557TIP3    H241163   4.331   3.237   6.542 -1.9740  0.2327  0.2211
 6558TIP3   OH241164   2.879   5.664   6.240 -0.0099 -0.1535  0.0009
 6558TIP3    H141165   2.959   5.716   6.234  0.0960 -0.4635 -2.0919
 6558TIP3    H241166   2.869   5.646   6.333  2.5984 -0.4738  0.3069
 6559TIP3   OH241167   5.451   5.475  14.458 -0.2493 -0.9863  0.4703
 6559TIP3    H141168   5.406   5.523  14.389  0.5968  0.8664  1.1566
 6559TIP3    H241169   5.380   5.444  14.515 -0.7864  0.9146  0.9157
 6560TIP3   OH241170   2.238   2.063  16.410  1.0736  0.0350 -0.1070
 6560TIP3    H141171   2.257   2.026  16.496 -0.4465 -1.3453 -0.3033
 6560TIP3    H241172   2.273   2.152  16.413  4.2156 -1.0933  0.6831
 6561TIP3   OH241173   1.804   2.796   1.681 -0.3157 -0.3993 -0.1882
 6561TIP3    H141174   1.855   2.755   1.750 -1.2447  0.4552  1.0409
 6561TIP3    H241175   1.869   2.836   1.623  0.4365 -0.0748  0.8616
 6562TIP3   OH241176   3.152   3.730   1.328  0.3560  0.1152  0.4011
 6562TIP3    H141177   3.203   3.772   1.259 -0.1244 -0.4611 -0.3171
 6562TIP3    H241178   3.191   3.643   1.338  0.2019  0.0677  0.6162
 6563TIP3   OH241179   1.688   1.632   5.608  0.4622  0.1281 -0.4847
 6563TIP3    H141180   1.748   1.568   5.568 -3.4569 -3.5433 -1.1213
 6563TIP3    H241181   1.737   1.666   5.683  3.8006 -1.5514 -1.6692
 6564TIP3   OH241182   5.805   2.194  11.084  0.2553 -0.1265  0.3298
 6564TIP3    H141183   5.803   2.110  11.039 -1.8205 -0.9692  1.8597
 6564TIP3    H241184   5.751   2.182  11.162  0.4818  2.4158  0.9904
 6565TIP3   OH241185   6.189   1.041   4.674 -0.0941  0.1907 -0.2525
 6565TIP3    H141186   6.109   1.092   4.666 -1.0401 -0.8499  1.8044
 6565TIP3    H241187   6.201   1.000   4.588 -2.5546 -0.6910 -0.2365
 6566TIP3   OH241188   3.227   3.671  12.270 -0.4405 -0.0938 -1.1471
 6566TIP3    H141189   3.161   3.603  12.284  0.0731 -0.0578  2.3196
 6566TIP3    H241190   3.310   3.624  12.266 -0.2843  0.1733 -1.0701
 6567TIP3   OH241191   1.024   6.269  16.734 -0.6060  0.7297  0.0954
 6567TIP3    H141192   0.952   6.284  16.795 -0.7780 -1.6783  0.6113
 6567TIP3    H241193   0.993   6.196  16.679  1.3425 -0.2620  0.2375
 6568TIP3   OH241194   5.024   3.284  12.060 -0.1307  0.2690  0.6349
 6568TIP3    H141195   5.081   3.224  12.108  0.3967 -0.1440 -0.4639
 6568TIP3    H241196   4.958   3.227  12.019 -0.9644  0.6788  1.3842
 6569TIP3   OH241197   3.515   1.249   4.468  0.3921  0.6254 -0.4854
 6569TIP3    H141198   3.434   1.292   4.495 -0.6928 -2.0122  0.8185
 6569TIP3    H241199   3.564   1.235   4.549  0.6967 -0.5605 -0.8565
 6570TIP3   OH241200   5.321   6.583  14.320 -0.3417 -0.2393  0.1040
 6570TIP3    H141201   5.262   6.591  14.395 -0.4304  0.1764 -0.0052
 6570TIP3    H241202   5.349   6.492  14.320 -1.4313 -0.5888 -0.1693
 6571TIP3   OH241203   0.915   5.066  16.972  0.3577  0.2721  0.2679
 6571TIP3    H141204   1.009   5.065  16.991  0.2911  1.3839  0.7190
 6571TIP3    H241205   0.909   5.101  16.883  0.3531  0.4340  0.3321
 6572TIP3   OH241206   2.774   5.578  14.861  0.0701 -0.8349  0.0716
 6572TIP3    H141207   2.699   5.636  14.875 -0.8018 -1.7905 -0.4678
 6572TIP3    H241208   2.833   5.627  14.804  0.8054  0.6939  2.0225
 6573TIP3   OH241209   2.082   6.702  10.377  0.3984  0.1417  0.7844
 6573TIP3    H141210   2.008   6.748  10.338  0.3519 -0.3834  0.2384
 6573TIP3    H241211   2.155   6.764  10.371 -0.0489  0.7569  1.5542
 6574TIP3   OH241212   2.381   6.119  15.452 -0.3266 -0.5333 -0.7984
 6574TIP3    H141213   2.299   6.115  15.502  0.2003  0.8863  0.2663
 6574TIP3    H241214   2.436   6.179  15.503  0.7282 -0.0911 -2.4087
 6575TIP3   OH241215   3.650   2.550   4.036 -0.1039 -0.3153  0.2956
 6575TIP3    H141216   3.645   2.473   4.092 -1.6807  0.1441  0.8107
 6575TIP3    H241217   3.744   2.572   4.034 -0.0120 -0.2443  2.8811
 6576TIP3   OH241218   1.586   4.303  11.126 -0.1191  0.0351 -0.0820
 6576TIP3    H141219   1.611   4.304  11.034 -2.4396  0.7085 -0.7609
 6576TIP3    H241220   1.614   4.217  11.158  0.8963 -0.1223 -1.3493
 6577TIP3   OH241221   0.900   2.225  14.853  0.1206  0.6473  0.1930
 6577TIP3    H141222   0.945   2.166  14.793 -0.3489  1.5107 -1.0406
 6577TIP3    H241223   0.823   2.176  14.882 -0.8224  0.9932 -1.6189
 6578TIP3   OH241224   1.770   6.513   6.099  0.4724 -0.3122  0.1659
 6578TIP3    H141225   1.817   6.535   6.179  1.0379 -1.5335  0.1864
 6578TIP3    H241226   1.824   6.446   6.056  0.8689  1.2177 -1.9003
 6579TIP3   OH241227   6.081   5.749  16.397 -0.1243  0.3368 -0.5702
 6579TIP3    H141228   5.997   5.788  16.373  0.4785  3.2364  1.5614
 6579TIP3    H241229   6.064   5.706  16.481  0.5337  1.1227 -0.0243
 6580TIP3   OH241230   0.481   6.316  11.263  0.6534  0.3860  0.2106
 6580TIP3    H141231   0.467   6.308  11.169  1.1324  0.1137  0.1549
 6580TIP3    H241232   0.568   6.355  11.271  0.5567  0.5391  0.5389
 6581TIP3   OH241233   6.561   6.183  13.735  0.4181 -0.0498  0.1922
 6581TIP3    H141234   6.563   6.101  13.685  0.1196  0.7365 -1.1629
 6581TIP3    H241235   6.653   6.208  13.744  0.6589 -1.4270  2.2175
 6582TIP3   OH241236   5.079   5.996  11.486 -0.3740  0.2305 -0.1472
 6582TIP3    H141237   5.029   6.071  11.520 -1.6991 -0.6846  0.0095
 6582TIP3    H241238   5.092   5.940  11.562  1.7416  0.8415  0.0175
 6583TIP3   OH241239   6.132   0.894  10.762  0.0978 -0.0186  0.0986
 6583TIP3    H141240   6.096   0.954  10.826  1.7943  1.0536  0.1201
 6583TIP3    H241241   6.185   0.949  10.704 -1.1261 -0.9986 -2.0733
 6584TIP3   OH241242   2.254   5.763  12.327  0.1413  0.5313 -0.3152
 6584TIP3    H141243   2.194   5.690  12.308 -0.6924  1.1488 -0.0979
 6584TIP3    H241244   2.261   5.764  12.422  0.2271  0.6737 -0.3224
 6585TIP3   OH241245   1.304   6.294  14.132 -0.8849 -0.0090  0.5128
 6585TIP3    H141246   1.319   6.221  14.192  2.7311 -0.1509 -0.3556
 6585TIP3    H241247   1.263   6.254  14.055  0.8795 -1.2011  0.1235
 6586TIP3   OH241248   6.269   5.174   4.865 -0.1000 -0.6323  0.2504
 6586TIP3    H141249   6.256   5.088   4.824 -3.3027 -0.4183  0.5077
 6586TIP3    H241250   6.279   5.154   4.958 -0.9434 -0.7875  0.3241
 6587TIP3   OH241251   4.091   3.561  14.392 -0.7568  0.3970  0.4549
 6587TIP3    H141252   4.010   3.532  14.435 -0.2136 -1.2430  0.4227
 6587TIP3    H241253   4.147   3.484  14.392  0.3339  1.1606 -0.6899
 6588TIP3   OH241254   4.864   4.353   6.804  1.0402  0.4644 -1.0120
 6588TIP3    H141255   4.801   4.419   6.835  0.8414  0.5711 -1.6251
 6588TIP3    H241256   4.873   4.371   6.711  0.5336 -0.7573 -1.3095
 6589TIP3   OH241257   6.356   6.366  15.995  0.0621 -0.1548  0.1645
 6589TIP3    H141258   6.371   6.426  16.068 -0.0687  0.0592  0.0164
 6589TIP3    H241259   6.262   6.352  15.994  0.1069 -0.4654  0.2778
 6590TIP3   OH241260   2.787   1.686  16.374 -0.0974  0.2578 -0.0093
 6590TIP3    H141261   2.801   1.666  16.281  0.9001 -0.2916  0.2478
 6590TIP3    H241262   2.858   1.641  16.419  0.5935  2.0999  0.8464
 6591TIP3   OH241263   3.013   1.652   2.744  0.2433 -0.2579  0.2894
 6591TIP3    H141264   3.056   1.734   2.767  1.8108 -1.0080  0.1964
 6591TIP3    H241265   3.033   1.639   2.651 -0.3929 -0.5157  0.1804
 6592TIP3   OH241266   5.766   1.530  16.633  0.1116 -0.2821  0.4093
 6592TIP3    H141267   5.822   1.608  16.640  1.1931 -1.0583  0.6553
 6592TIP3    H241268   5.734   1.516  16.722 -0.4558  0.1352  0.2767
 6593TIP3   OH241269   3.058   3.456  12.103  0.1086 -0.2293  0.4095
 6593TIP3    H141270   3.145   3.454  12.063 -0.5872 -0.3462 -1.1253
 6593TIP3    H241271   3.028   3.546  12.093 -0.6480 -0.5826 -0.6306
 6594TIP3   OH241272   2.489   1.302  14.346  0.1627 -0.0145  0.4762
 6594TIP3    H141273   2.394   1.291  14.342  0.1551 -0.6219  1.8280
 6594TIP3    H241274   2.510   1.358  14.271 -1.5713  2.3571  1.6381
 6595TIP3   OH241275   1.827   6.038  15.038 -0.5389 -0.3786 -0.0233
 6595TIP3    H141276   1.852   6.120  14.996  0.4877 -0.3393  0.6210
 6595TIP3    H241277   1.743   6.057  15.080 -0.3180  0.3366  0.0999
 6596TIP3   OH241278   4.168   3.102   1.238  0.1035 -0.1731 -0.7985
 6596TIP3    H141279   4.094   3.070   1.291  1.8085 -2.3554  0.4926
 6596TIP3    H241280   4.188   3.188   1.274 -0.7957 -0.2640 -0.0440
 6597TIP3   OH241281   1.305   1.172  14.652 -0.1599 -0.8002 -0.8010
 6597TIP3    H141282   1.369   1.183  14.581  1.0372 -2.6482 -0.0984
 6597TIP3    H241283   1.305   1.078  14.670  0.3915 -0.3137  2.3495
 6598TIP3   OH241284   6.388   2.420  11.744  0.3250  0.4486 -0.5220
 6598TIP3    H141285   6.430   2.482  11.804 -0.0482 -0.5527  0.8155
 6598TIP3    H241286   6.296   2.420  11.771  0.5575 -1.7055  0.4617
 6599TIP3   OH241287   1.144   0.840  16.634  0.5453  0.0813  0.1351
 6599TIP3    H141288   1.053   0.827  16.607  0.7955  0.9758 -1.1973
 6599TIP3    H241289   1.167   0.759  16.679 -0.9599 -0.0879  0.6529
 6600TIP3   OH241290   1.498   5.578  13.839 -0.2549  0.4495  0.2289
 6600TIP3    H141291   1.436   5.615  13.777 -2.0251 -1.1191  0.9439
 6600TIP3    H241292   1.557   5.526  13.785 -0.1739  1.1500 -0.3753
 6601TIP3   OH241293   3.247   5.748  16.423 -0.0496 -0.1055 -0.0189
 6601TIP3    H141294   3.290   5.761  16.339  1.5260 -1.3826  0.5330
 6601TIP3    H241295   3.263   5.828  16.472  0.3372  0.0447 -0.3952
 6602TIP3   OH241296   4.034   2.202  12.255 -0.1399  0.1587  0.0349
 6602TIP3    H141297   4.086   2.263  12.308  0.6533  0.0588 -0.6194
 6602TIP3    H241298   3.965   2.172  12.315  0.6529  0.1598  0.9832
 6603TIP3   OH241299   4.999   4.313   1.957 -0.4864  0.5046  0.5093
 6603TIP3    H141300   4.980   4.306   2.051  1.2496 -0.6866  0.8327
 6603TIP3    H241301   5.045   4.397   1.948  0.5521  0.0051  0.9896
 6604TIP3   OH241302   4.864   2.118  14.262  0.4363 -0.6730  0.5465
 6604TIP3    H141303   4.940   2.146  14.312  0.1502 -0.7455  1.0258
 6604TIP3    H241304   4.892   2.125  14.171  0.7365  0.1125  0.6903
 6605TIP3   OH241305   0.458   1.801   5.495  0.2024  0.3080 -0.1685
 6605TIP3    H141306   0.399   1.753   5.552  2.4347 -0.3810  1.7458
 6605TIP3    H241307   0.421   1.790   5.407 -2.0987 -0.5775  0.8333
 6606TIP3   OH241308   2.086   5.303  14.045  0.0706  0.4221 -0.3407
 6606TIP3    H141309   2.093   5.251  14.125 -0.2296  0.7046 -0.1242
 6606TIP3    H241310   2.005   5.353  14.057 -1.5977 -1.6626 -2.0747
 6607TIP3   OH241311   3.528   3.384   0.760 -0.2030 -0.1380 -0.3418
 6607TIP3    H141312   3.516   3.439   0.682  0.3909  0.8642  0.2518
 6607TIP3    H241313   3.546   3.446   0.830  4.3105 -1.1318 -0.3260
 6608TIP3   OH241314   1.532   0.414  12.949  0.0055  0.2438  1.0353
 6608TIP3    H141315   1.534   0.341  12.886  0.8980  0.4127  0.8508
 6608TIP3    H241316   1.460   0.470  12.919  0.2055  0.1483  0.3619
 6609TIP3   OH241317   4.688   4.000   1.804  0.2572 -0.1157 -0.3385
 6609TIP3    H141318   4.683   4.090   1.771  0.0358 -0.2065 -0.5557
 6609TIP3    H241319   4.694   3.946   1.725 -0.9579 -0.3873 -0.2666
 6610TIP3   OH241320   5.397   1.977   5.296  0.3953  0.2364 -0.0151
 6610TIP3    H141321   5.444   1.901   5.330  0.8450  0.6333  0.2750
 6610TIP3    H241322   5.425   1.984   5.205  1.5185  0.9169  0.3565
 6611TIP3   OH241323   5.166   3.860  10.536  0.0559  0.0243 -0.0184
 6611TIP3    H141324   5.232   3.791  10.535 -0.5282 -0.5576 -0.9925
 6611TIP3    H241325   5.083   3.813  10.524 -0.8609  0.4490  3.4945
 6612TIP3   OH241326   1.680   5.557  12.209 -0.1010  0.2316  0.3386
 6612TIP3    H141327   1.586   5.567  12.203  0.1975  2.6206 -1.9397
 6612TIP3    H241328   1.709   5.629  12.265  0.5380  1.0647 -1.0082
 6613TIP3   OH241329   1.765   6.348  12.003  0.4282 -0.0242  0.8971
 6613TIP3    H141330   1.693   6.352  12.065 -0.4282 -0.1209 -0.0686
 6613TIP3    H241331   1.824   6.281  12.038  0.0688  0.0764  1.7060
 6614TIP3   OH241332   2.014   4.064   4.183  0.2132  0.0776  0.0156
 6614TIP3    H141333   1.932   4.030   4.146  0.0564 -0.2731  0.6619
 6614TIP3    H241334   2.037   4.000   4.251 -0.4872  1.6241  1.8124
 6615TIP3   OH241335   0.105   4.292  13.257  0.3488 -0.8795  0.6314
 6615TIP3    H141336   0.058   4.223  13.211 -1.1858  0.8925 -0.6488
 6615TIP3    H241337   0.061   4.298  13.342  0.5217 -1.5071  0.7655
 6616TIP3   OH241338   5.033   2.365   1.263  0.7531  0.1041  0.4212
 6616TIP3    H141339   5.113   2.384   1.312 -0.1815  0.2633  1.9622
 6616TIP3    H241340   4.963   2.404   1.315 -0.2793  0.6216 -1.2694
 6617TIP3   OH241341   5.417   4.754   0.940  0.2689 -0.3622  0.1890
 6617TIP3    H141342   5.439   4.847   0.945  1.2295 -0.5262 -0.5477
 6617TIP3    H241343   5.331   4.747   0.981 -0.0308  0.9260 -0.1721
 6618TIP3   OH241344   5.046   0.900  11.470 -0.3261 -0.1333 -0.1577
 6618TIP3    H141345   5.102   0.923  11.544  0.3023 -1.2775 -0.2518
 6618TIP3    H241346   5.050   0.976  11.412  0.3530  0.1871  0.2983
 6619TIP3   OH241347   3.907   1.112   4.624 -0.2574 -0.1540  0.1418
 6619TIP3    H141348   3.985   1.056   4.631  1.2027  1.1230 -3.4218
 6619TIP3    H241349   3.940   1.193   4.585 -3.0559  1.4209  0.7965
 6620TIP3   OH241350   4.946   3.915   5.324  0.0675 -0.1281  0.7368
 6620TIP3    H141351   4.964   3.946   5.413 -2.0734  3.8822 -0.0036
 6620TIP3    H241352   4.943   3.995   5.271 -0.5156 -2.1913 -2.6367
 6621TIP3   OH241353   5.653   5.261  10.925  0.1896  0.3060 -0.5288
 6621TIP3    H141354   5.676   5.353  10.938  0.6623  0.5566 -2.7108
 6621TIP3    H241355   5.722   5.212  10.970 -0.6932  0.9581  1.6496
 6622TIP3   OH241356   3.186   6.431   3.680  0.0240 -0.6357 -0.3096
 6622TIP3    H141357   3.178   6.526   3.690  1.1640 -0.5764  0.2486
 6622TIP3    H241358   3.149   6.412   3.594  0.2536  0.3947 -0.6454
 6623TIP3   OH241359   0.339   4.889  16.377  0.2013 -0.1073  0.3006
 6623TIP3    H141360   0.381   4.853  16.455  0.3936 -2.7510 -0.9206
 6623TIP3    H241361   0.410   4.936  16.332 -0.2760  2.9576  2.3876
 6624TIP3   OH241362   3.863   5.160   3.775  0.4171 -0.1899 -0.3009
 6624TIP3    H141363   3.934   5.132   3.832 -1.3217 -2.5431  0.9014
 6624TIP3    H241364   3.822   5.233   3.822 -0.4598 -1.5459  1.1567
 6625TIP3   OH241365   6.360   0.477  16.316 -0.3313  0.6448 -0.1559
 6625TIP3    H141366   6.409   0.527  16.381  1.0249  0.8765 -1.3088
 6625TIP3    H241367   6.426   0.426  16.270 -1.6720 -2.5115  1.1466
 6626TIP3   OH241368   0.302   1.188  11.257  0.0043 -0.0712  0.6675
 6626TIP3    H141369   0.381   1.181  11.204 -1.2914 -0.0211 -1.3977
 6626TIP3    H241370   0.310   1.272  11.301  0.2961  0.8029 -0.9657
 6627TIP3   OH241371   3.815   0.424  11.798 -0.4522  0.6313  0.2319
 6627TIP3    H141372   3.827   0.330  11.811  1.0494  0.6290 -0.8670
 6627TIP3    H241373   3.770   0.432  11.714  0.8777  0.9035 -0.4794
 6628TIP3   OH241374   3.934   0.082  15.865  0.0990 -0.0850 -0.0802
 6628TIP3    H141375   3.929   0.009  15.802  0.3720 -1.4635  1.4225
 6628TIP3    H241376   3.966   0.156  15.813  1.6117 -1.5078 -1.3064
 6629TIP3   OH241377   4.178   2.970  10.956 -0.8328  0.4412 -0.0631
 6629TIP3    H141378   4.190   3.065  10.957  0.1475  0.3554  2.2910
 6629TIP3    H241379   4.118   2.953  11.029 -1.0650 -0.7545 -0.5081
 6630TIP3   OH241380   5.957   1.062  10.981  0.2392 -0.1740  0.3804
 6630TIP3    H141381   5.863   1.076  10.983  0.4570  1.5421  0.5977
 6630TIP3    H241382   5.993   1.134  11.034  1.6640 -0.7064  0.1754
 6631TIP3   OH241383   4.644   0.193   2.134 -0.3971 -0.3995 -0.5136
 6631TIP3    H141384   4.694   0.159   2.208  0.2844 -0.0631 -0.8104
 6631TIP3    H241385   4.576   0.247   2.174  1.0801  1.2809 -0.1546
 6632TIP3   OH241386   2.264   3.691   4.203  0.4243  0.6782 -0.7392
 6632TIP3    H141387   2.290   3.725   4.117 -2.8244  0.5273 -1.9308
 6632TIP3    H241388   2.168   3.700   4.204  0.3078  0.3102  2.7526
 6633TIP3   OH241389   5.209   4.488   4.120  0.0838 -0.2976 -0.1155
 6633TIP3    H141390   5.266   4.426   4.165 -0.1982  0.1677  0.9171
 6633TIP3    H241391   5.139   4.434   4.083  0.2802 -0.6799  0.0626
 6634TIP3   OH241392   2.385   6.504   2.450 -0.2273 -0.5094 -0.1781
 6634TIP3    H141393   2.315   6.444   2.477  0.2891 -1.0632 -0.0567
 6634TIP3    H241394   2.339   6.580   2.415 -0.8920 -0.5079  0.6845
 6635TIP3   OH241395   3.141   4.636  12.241  0.3443  0.1470 -0.5298
 6635TIP3    H141396   3.076   4.595  12.297 -0.1777 -0.0573 -1.2623
 6635TIP3    H241397   3.216   4.653  12.298 -0.2490  0.1361  0.2602
 6636TIP3   OH241398   5.264   2.607   0.899 -0.5985  0.0305 -0.4011
 6636TIP3    H141399   5.204   2.533   0.908  0.2171 -0.7656 -1.2605
 6636TIP3    H241400   5.225   2.661   0.829 -0.6605 -0.1264 -0.4879
 6637TIP3   OH241401   0.876   1.633  11.931 -0.3219  0.0339 -0.4943
 6637TIP3    H141402   0.823   1.710  11.950 -0.5139  0.4193 -2.4446
 6637TIP3    H241403   0.907   1.645  11.842  2.0489 -0.7783  0.1202
 6638TIP3   OH241404   1.377   3.311   6.124  0.4707 -0.4676 -0.3187
 6638TIP3    H141405   1.350   3.260   6.049 -0.5879  0.6069 -0.7056
 6638TIP3    H241406   1.452   3.263   6.161 -0.0165 -1.8578 -1.0800
 6639TIP3   OH241407   2.176   2.079  12.196 -0.1899 -0.0426  0.4242
 6639TIP3    H141408   2.149   2.168  12.176  1.5182 -0.0674 -2.4985
 6639TIP3    H241409   2.097   2.026  12.182 -1.0547  0.8912  1.6012
 6640TIP3   OH241410   3.728   3.444   5.087  0.1077 -0.2022  0.2905
 6640TIP3    H141411   3.823   3.452   5.098  0.8016 -3.1407 -2.1830
 6640TIP3    H241412   3.694   3.447   5.177  2.2079  2.8922  1.1737
 6641TIP3   OH241413   6.384   1.678  10.483 -0.2050  0.0684 -0.0030
 6641TIP3    H141414   6.405   1.751  10.425 -1.4540  1.2939  0.9757
 6641TIP3    H241415   6.292   1.659  10.465 -0.3888 -0.0611  0.9910
 6642TIP3   OH241416   5.654   6.749  13.936  0.3302  1.3416 -0.4413
 6642TIP3    H141417   5.673   6.811  14.007  0.9454  0.7297 -0.0554
 6642TIP3    H241418   5.731   6.691  13.934 -0.9764 -0.5179  0.4005
 6643TIP3   OH241419   3.203   1.845  16.044 -0.1890 -0.4766 -0.1063
 6643TIP3    H141420   3.279   1.899  16.065 -0.4444  0.0109 -0.4299
 6643TIP3    H241421   3.131   1.885  16.093  0.1360 -2.1740  1.9155
 6644TIP3   OH241422   2.213   2.277  16.979  0.2346 -0.6019  0.5481
 6644TIP3    H141423   2.188   2.307  16.892  0.5453  1.3826  1.0862
 6644TIP3    H241424   2.171   2.191  16.988  1.4244 -1.5579 -2.0833
 6645TIP3   OH241425   0.974   2.803  14.123  0.0577 -0.1447 -0.6872
 6645TIP3    H141426   1.056   2.768  14.088  1.2032 -0.4531  2.0389
 6645TIP3    H241427   0.924   2.726  14.148  0.5594  0.0504  1.0175
 6646TIP3   OH241428   6.541   5.055   5.112  0.4155 -0.2023  0.6285
 6646TIP3    H141429   6.562   5.145   5.137  1.3061 -0.2760  0.2023
 6646TIP3    H241430   6.446   5.052   5.110  0.3762  0.7323  0.6678
 6647TIP3   OH241431   1.883   3.716  15.015 -0.1706  0.1322  0.5897
 6647TIP3    H141432   1.946   3.775  14.973 -0.1970  0.4257  0.9528
 6647TIP3    H241433   1.816   3.701  14.949  0.8134 -1.0263 -0.1702
 6648TIP3   OH241434   3.442   0.696   4.704 -0.5984 -0.3024 -0.6747
 6648TIP3    H141435   3.433   0.777   4.654  0.0548  1.6120  2.0767
 6648TIP3    H241436   3.380   0.706   4.777 -0.2624 -2.1340 -0.0866
 6649TIP3   OH241437   2.241   6.720   0.927  0.2482  0.4221 -0.0526
 6649TIP3    H141438   2.240   6.793   0.989 -0.6049 -0.7162  1.3322
 6649TIP3    H241439   2.213   6.759   0.844  1.1615  1.9317  0.3141
 6650TIP3   OH241440   6.462   6.437   0.195  0.1863 -0.1319  0.2038
 6650TIP3    H141441   6.453   6.520   0.241  0.3198 -1.1009  2.0366
 6650TIP3    H241442   6.530   6.389   0.242  1.1793 -0.7329 -1.7131
 6651TIP3   OH241443   2.514   5.240  16.813 -0.3357  1.1498  0.0431
 6651TIP3    H141444   2.522   5.307  16.880  2.1815  1.4756 -0.4762
 6651TIP3    H241445   2.569   5.168  16.844  0.9044  1.3222 -1.6384
 6652TIP3   OH241446   1.060   0.441  10.974  0.2641 -0.5072 -0.2901
 6652TIP3    H141447   1.025   0.495  11.045  2.2991 -0.1726  0.5316
 6652TIP3    H241448   1.098   0.504  10.913  3.0870 -0.9152  0.9083
 6653TIP3   OH241449   3.287   5.292  14.468 -0.0438  0.2726  0.6921
 6653TIP3    H141450   3.375   5.283  14.504  0.5607  0.3905 -0.6749
 6653TIP3    H241451   3.271   5.209  14.423 -0.9454 -0.0314  1.5310
 6654TIP3   OH241452   6.193   1.197   0.184 -0.4894  0.1942  0.1299
 6654TIP3    H141453   6.209   1.216   0.276 -0.9240  0.4829  0.1448
 6654TIP3    H241454   6.241   1.265   0.137  0.2654 -0.3308  0.1251
 6655TIP3   OH241455   3.588   6.322   3.240 -0.3823 -0.3958  0.3391
 6655TIP3    H141456   3.538   6.303   3.160 -0.0240 -1.8305  0.4220
 6655TIP3    H241457   3.634   6.404   3.221 -1.3086 -0.0313 -0.4303
 6656TIP3   OH241458   3.935   3.991   6.137 -0.0339 -0.4495 -0.2457
 6656TIP3    H141459   4.021   3.952   6.151 -0.6663 -1.3641  1.3810
 6656TIP3    H241460   3.887   3.973   6.218 -0.8551  2.4759  0.0215
 6657TIP3   OH241461   5.606   3.539  16.101  0.0633 -0.3554 -1.0097
 6657TIP3    H141462   5.586   3.566  16.012  1.2372 -1.6362 -1.6998
 6657TIP3    H241463   5.699   3.517  16.099  0.1929 -0.0513  0.6254
 6658TIP3   OH241464   6.470   5.592   5.094 -0.4487  0.6027 -0.3259
 6658TIP3    H141465   6.554   5.547   5.080 -0.8981  0.2425 -1.9807
 6658TIP3    H241466   6.409   5.521   5.116 -0.0209  1.0204  2.7186
 6659TIP3   OH241467   6.744   3.976   4.589  0.3475 -0.0338  0.4185
 6659TIP3    H141468   6.776   3.909   4.530 -0.1125 -1.3550  1.6231
 6659TIP3    H241469   6.820   4.000   4.642  0.2011 -0.5931  0.8903
 6660TIP3   OH241470   5.418   3.407  16.968 -0.3848 -0.7542 -0.1544
 6660TIP3    H141471   5.413   3.371  17.056  1.3366  1.5660  0.9996
 6660TIP3    H241472   5.510   3.398  16.943 -1.0563 -2.6180 -2.3763
 6661TIP3   OH241473   0.516   0.625  10.593 -0.4993  0.2613 -0.7111
 6661TIP3    H141474   0.503   0.716  10.563 -2.7492 -0.6447 -2.8547
 6661TIP3    H241475   0.512   0.573  10.513  0.4975 -1.7792  0.4962
 6662TIP3   OH241476   3.625   0.896  15.102  0.9096  0.4210 -0.8153
 6662TIP3    H141477   3.629   0.980  15.149 -1.2235 -0.2618  0.7764
 6662TIP3    H241478   3.534   0.889  15.074  0.9452 -1.4962 -0.5923
 6663TIP3   OH241479   6.057   3.470  11.329  0.0468 -0.6113 -0.0429
 6663TIP3    H141480   6.051   3.552  11.378 -1.6376 -0.4247 -0.5013
 6663TIP3    H241481   5.988   3.476  11.263 -0.0437 -2.3479 -0.1568
 6664TIP3   OH241482   2.011   5.281   2.907  0.0752 -0.2971 -0.8037
 6664TIP3    H141483   2.036   5.364   2.865 -0.0893  0.7196  0.9765
 6664TIP3    H241484   1.917   5.291   2.924  0.2097 -0.4955  0.1193
 6665TIP3   OH241485   0.333   0.783  16.625  0.3940  0.0082 -0.4288
 6665TIP3    H141486   0.379   0.850  16.675 -0.8578  0.6890 -0.1566
 6665TIP3    H241487   0.248   0.774  16.668 -1.6235  2.1711 -3.5556
 6666TIP3   OH241488   2.228   4.719  11.075 -0.5559 -0.1516 -0.2696
 6666TIP3    H141489   2.317   4.752  11.059 -0.4413 -0.9552 -1.3909
 6666TIP3    H241490   2.210   4.742  11.166 -0.2168  2.3480 -0.7756
 6667TIP3   OH241491   2.773   5.667   3.296 -0.1933  0.0438 -0.1416
 6667TIP3    H141492   2.854   5.712   3.274  1.2606 -2.7914 -1.0616
 6667TIP3    H241493   2.790   5.625   3.380 -1.6254  1.3415  0.8547
 6668TIP3   OH241494   6.518   1.406  14.084  0.1515  0.2852 -0.2697
 6668TIP3    H141495   6.424   1.419  14.082  0.2323  0.8222 -0.5976
 6668TIP3    H241496   6.545   1.440  14.170  0.0022 -0.2075 -0.0235
 6669TIP3   OH241497   2.712   1.372  13.752  0.5731 -0.1230 -0.5104
 6669TIP3    H141498   2.683   1.306  13.690  0.7338  0.1218 -0.8478
 6669TIP3    H241499   2.791   1.335  13.792 -0.5495 -1.0963  0.9182
 6670TIP3   OH241500   6.603   4.198  12.321  0.0198  0.0104 -0.0215
 6670TIP3    H141501   6.580   4.107  12.302  0.9091 -0.8402  2.5576
 6670TIP3    H241502   6.697   4.195  12.339  0.1556  1.5476 -0.3637
 6671TIP3   OH241503   2.403   2.673  16.541  0.3625  1.0818 -0.2476
 6671TIP3    H141504   2.484   2.643  16.583  0.5418  1.3969 -0.3616
 6671TIP3    H241505   2.403   2.631  16.456 -0.2023  0.1222  0.2122
 6672TIP3   OH241506   1.769   2.253  13.533  0.0505  0.2423  0.4787
 6672TIP3    H141507   1.683   2.288  13.555  0.1647  0.2360  0.9359
 6672TIP3    H241508   1.831   2.320  13.564  0.1905  0.5616 -0.4390
 6673TIP3   OH241509   3.888   1.307  15.114  0.0531 -0.1244  0.1531
 6673TIP3    H141510   3.953   1.375  15.100 -0.2887 -0.0155 -1.0112
 6673TIP3    H241511   3.815   1.352  15.156 -0.1397  0.2223 -0.5432
 6674TIP3   OH241512   5.308   5.230   2.131  0.5929  0.0671  0.1346
 6674TIP3    H141513   5.318   5.309   2.077  0.7187 -0.5655 -0.7806
 6674TIP3    H241514   5.370   5.242   2.202  1.3624  0.3241 -0.5690
 6675TIP3   OH241515   1.094   2.839  12.370  0.5291  0.5742  0.3964
 6675TIP3    H141516   1.182   2.874  12.383  0.4475  0.9605 -0.0576
 6675TIP3    H241517   1.085   2.770  12.435  1.4673 -0.0214 -0.0996
 6676TIP3   OH241518   4.809   5.359   1.006  0.8035 -0.4981  0.3969
 6676TIP3    H141519   4.882   5.301   1.029  0.2449 -1.3770  0.0285
 6676TIP3    H241520   4.771   5.384   1.090  0.8705 -0.9081  0.5526
 6677TIP3   OH241521   1.166   2.564  16.312 -0.1676  0.5718  0.5962
 6677TIP3    H141522   1.252   2.594  16.282 -0.3688  1.4637  0.9158
 6677TIP3    H241523   1.181   2.530  16.400 -0.1275  0.6351  0.6131
 6678TIP3   OH241524   4.776   6.219   4.194  0.9543  0.4196 -0.2441
 6678TIP3    H141525   4.810   6.166   4.123  0.2659  0.3303 -0.5115
 6678TIP3    H241526   4.819   6.304   4.183 -0.3373  0.9299 -1.7527
 6679TIP3   OH241527   3.773   2.512   3.530 -0.4964  0.2380 -0.1424
 6679TIP3    H141528   3.829   2.588   3.548  0.9956 -0.5328 -1.2710
 6679TIP3    H241529   3.738   2.487   3.615 -0.0708  1.4763  0.4191
 6680TIP3   OH241530   1.997   1.654  15.762  0.0536  0.3044  0.1099
 6680TIP3    H141531   1.982   1.561  15.748 -1.1804  0.1653  1.9144
 6680TIP3    H241532   1.968   1.696  15.681 -2.1266 -0.6977  0.3068
 6681TIP3   OH241533   6.270   5.721  15.514  0.0953  0.1481  0.4600
 6681TIP3    H141534   6.180   5.729  15.546  0.5912  1.4449  1.6100
 6681TIP3    H241535   6.301   5.811  15.506  0.6091 -0.1896 -2.0290
 6682TIP3   OH241536   2.229   4.170   0.473  0.1123 -0.2638  0.3681
 6682TIP3    H141537   2.201   4.088   0.432  0.0403 -0.9701  1.7726
 6682TIP3    H241538   2.214   4.156   0.566  0.6356  1.1538  0.6841
 6683TIP3   OH241539   3.171   2.967  15.095  0.7982 -0.0136 -0.0507
 6683TIP3    H141540   3.230   2.927  15.031  0.5722 -0.6621  0.1449
 6683TIP3    H241541   3.227   2.984  15.171  0.3180 -2.6358  0.9770
 6684TIP3   OH241542   6.215   5.078  14.940 -0.1250  0.7416 -0.1067
 6684TIP3    H141543   6.226   5.058  15.033 -0.6733  2.2033  0.2900
 6684TIP3    H241544   6.156   5.153  14.938  0.2430  1.0253 -1.6212
 6685TIP3   OH241545   0.002   0.377  13.135 -0.3375 -0.3812  0.4644
 6685TIP3    H141546   0.084   0.418  13.161 -0.5280 -0.4876  1.2432
 6685TIP3    H241547  -0.058   0.450  13.119 -0.0360 -0.2969 -0.3082
 6686TIP3   OH241548   2.616   1.454  16.020 -0.6481 -0.0949  0.4876
 6686TIP3    H141549   2.596   1.524  15.957  0.8491 -0.2137 -0.1738
 6686TIP3    H241550   2.531   1.413  16.038 -1.1310 -0.1267 -1.5479
 6687TIP3   OH241551   3.091   4.702   1.186  0.3038 -0.3772 -0.5394
 6687TIP3    H141552   3.032   4.709   1.260  0.8585  0.3555 -0.1542
 6687TIP3    H241553   3.178   4.718   1.223  0.5259  0.6522 -1.4530
 6688TIP3   OH241554   1.050   1.009  14.754 -0.2167 -0.3628 -0.0425
 6688TIP3    H141555   0.963   1.034  14.785 -0.3039 -0.9123  0.1706
 6688TIP3    H241556   1.041   0.916  14.732  0.4725 -0.5800  0.5616
 6689TIP3   OH241557   0.371   1.559   2.629  0.2989  0.6814  0.6539
 6689TIP3    H141558   0.393   1.536   2.719 -0.5152  1.4054  1.0458
 6689TIP3    H241559   0.330   1.645   2.635  0.3626  0.8007 -0.4267
 6690TIP3   OH241560   6.784   0.230  11.383 -0.0980  0.4439  0.3702
 6690TIP3    H141561   6.692   0.257  11.377 -0.5961 -1.2932 -0.4233
 6690TIP3    H241562   6.804   0.194  11.297  0.9293 -0.3904  0.9382
 6691TIP3   OH241563   4.670   4.084   0.928 -0.0617  0.0789  0.1156
 6691TIP3    H141564   4.730   4.018   0.895 -1.1306 -1.1328  0.5156
 6691TIP3    H241565   4.656   4.143   0.854  0.7975 -0.1983 -0.2860
 6692TIP3   OH241566   4.862   2.917  12.998 -0.0243  0.4532 -0.0096
 6692TIP3    H141567   4.787   2.959  13.038 -0.7705 -0.3774 -0.4989
 6692TIP3    H241568   4.938   2.965  13.032 -0.6915  0.5413  1.4339
 6693TIP3   OH241569   5.699   0.719  17.077  0.0500  0.0303 -0.3424
 6693TIP3    H141570   5.657   0.658  17.137  1.1829 -0.5829 -0.1393
 6693TIP3    H241571   5.642   0.720  16.999 -0.2188 -0.9387 -0.1697
 6694TIP3   OH241572   3.378   3.601  11.238  0.0639  0.0292 -0.2552
 6694TIP3    H141573   3.323   3.528  11.267  0.8660 -0.5488 -0.1521
 6694TIP3    H241574   3.376   3.596  11.143 -0.4960  0.3474 -0.2639
 6695TIP3   OH241575   5.860   2.253   3.145 -0.5524  0.2494  0.2055
 6695TIP3    H141576   5.872   2.319   3.076 -0.4633  1.0943  1.0024
 6695TIP3    H241577   5.839   2.173   3.098  1.4595  0.3193 -0.9071
 6696TIP3   OH241578   4.898   2.770  15.866  0.3966 -0.4958  0.1999
 6696TIP3    H141579   4.986   2.752  15.834  0.9330 -2.8359  2.6544
 6696TIP3    H241580   4.845   2.776  15.786  2.6057  0.1752 -1.3099
 6697TIP3   OH241581   3.604   2.637  11.330  0.8296  0.3761  0.4591
 6697TIP3    H141582   3.563   2.590  11.258  0.2370  0.1541  0.9282
 6697TIP3    H241583   3.595   2.729  11.307 -0.5394  0.3646  0.8523
 6698TIP3   OH241584   1.568   1.200   0.222 -0.1431  0.3059  0.0987
 6698TIP3    H141585   1.506   1.174   0.290 -0.7280 -0.2575 -0.6165
 6698TIP3    H241586   1.582   1.119   0.171 -0.3448  0.8907 -0.9169
 6699TIP3   OH241587   0.211   2.301  11.031 -0.6075 -0.3777 -0.2953
 6699TIP3    H141588   0.234   2.341  10.947 -2.3369  0.1994 -0.5441
 6699TIP3    H241589   0.190   2.375  11.088 -0.2782 -0.8046  0.3990
 6700TIP3   OH241590   2.476   1.914  12.888 -0.6334  0.8244  0.1412
 6700TIP3    H141591   2.548   1.969  12.858 -1.8708  2.1419 -0.5399
 6700TIP3    H241592   2.449   1.865  12.810 -0.3680  0.1754  0.4431
 6701TIP3   OH241593   6.542   0.383  11.999 -0.4344 -0.3030 -0.2395
 6701TIP3    H141594   6.562   0.474  11.979  0.7719 -0.7988 -1.4017
 6701TIP3    H241595   6.613   0.355  12.058 -0.4451 -0.6730 -0.3999
 6702TIP3   OH241596   4.568   4.731   5.480 -0.4719 -0.0810 -0.3755
 6702TIP3    H141597   4.482   4.755   5.516 -0.3913 -0.9897  0.4570
 6702TIP3    H241598   4.578   4.639   5.503 -0.0855 -0.5047 -2.1098
 6703TIP3   OH241599   6.030   2.646  10.918 -0.6174  0.2083  0.4596
 6703TIP3    H141600   6.099   2.628  10.981  0.1417 -0.0801 -0.4325
 6703TIP3    H241601   5.985   2.724  10.951  0.2949  0.5394  0.9164
 6704TIP3   OH241602   2.008   4.358  13.849  0.3354  0.0619 -0.3822
 6704TIP3    H141603   2.012   4.355  13.754  0.4808 -0.4009 -0.3632
 6704TIP3    H241604   2.046   4.275  13.878 -1.5961 -0.7393  0.0249
 6705TIP3   OH241605   4.086   0.676   0.669  0.0015  0.0087 -0.2622
 6705TIP3    H141606   4.149   0.722   0.724  0.4707  0.1499 -0.8942
 6705TIP3    H241607   4.034   0.624   0.729  0.3090  0.3855  0.3367
 6706TIP3   OH241608   2.848   4.825  13.951 -0.3292  0.4983 -0.1174
 6706TIP3    H141609   2.915   4.817  14.019 -0.3527  1.3778  0.0134
 6706TIP3    H241610   2.840   4.919  13.935  0.4487  0.2754 -2.1258
 6707TIP3   OH241611   4.609   2.425   1.490 -0.6382  0.2458  0.1118
 6707TIP3    H141612   4.520   2.408   1.520 -0.1156 -1.3049  0.9041
 6707TIP3    H241613   4.642   2.339   1.464  0.8444  0.6906  0.4404
 6708TIP3   OH241614   5.857   1.576   4.939 -0.4673 -0.9127  0.3785
 6708TIP3    H141615   5.914   1.518   4.889 -1.2847 -0.3833 -1.2530
 6708TIP3    H241616   5.810   1.519   4.999 -0.3980 -1.7726 -0.3759
 6709TIP3   OH241617   6.713   1.691   5.735 -0.3526  0.1325  0.1761
 6709TIP3    H141618   6.630   1.654   5.705  0.2844 -1.0020 -0.2696
 6709TIP3    H241619   6.692   1.733   5.818 -1.6030  0.9268 -0.5077
 6710TIP3   OH241620   1.904   3.966  16.306 -0.2949  0.2257  0.4705
 6710TIP3    H141621   1.886   3.877  16.277  0.0126 -0.0007  0.9684
 6710TIP3    H241622   1.921   3.958  16.400 -0.5931  0.8540  0.5818
 6711TIP3   OH241623   6.217   4.119   2.442 -0.2207  0.4852  0.1572
 6711TIP3    H141624   6.127   4.125   2.410 -1.5527  0.8087  3.5582
 6711TIP3    H241625   6.225   4.029   2.473  0.8857  0.2758 -0.6804
 6712TIP3   OH241626   0.022   4.071  15.763  0.0612 -0.1449  0.1035
 6712TIP3    H141627   0.067   4.015  15.700  0.7343 -0.1462  0.5782
 6712TIP3    H241628   0.066   4.055  15.846 -0.6680  0.0271  0.5379
 6713TIP3   OH241629   1.613   6.428  15.045  0.0536  0.0271  0.0235
 6713TIP3    H141630   1.532   6.417  15.095  0.5891 -1.4634  0.5964
 6713TIP3    H241631   1.589   6.490  14.976 -1.4875 -0.1489  0.3556
 6714TIP3   OH241632   1.470   1.317  13.038 -0.1016  0.5646  0.0172
 6714TIP3    H141633   1.381   1.337  13.009 -0.1849  0.5602  0.2678
 6714TIP3    H241634   1.504   1.400  13.071 -0.4136  0.3257  0.9642
 6715TIP3   OH241635   3.278   4.034   0.368 -0.4073  0.4602  0.4558
 6715TIP3    H141636   3.249   4.082   0.445 -2.1583  2.4561 -1.3342
 6715TIP3    H241637   3.206   4.043   0.306  1.4838  0.0759 -1.9138
 6716TIP3   OH241638   3.779   0.826   2.810  0.2885 -0.6659 -0.5165
 6716TIP3    H141639   3.828   0.892   2.859  0.2867  0.0913 -1.5035
 6716TIP3    H241640   3.757   0.759   2.875 -0.4507  0.6943  0.6927
 6717TIP3   OH241641   1.810   6.709  11.742 -0.5118  0.0645 -0.4734
 6717TIP3    H141642   1.883   6.723  11.682  1.9842 -2.5009  1.6863
 6717TIP3    H241643   1.768   6.628  11.711  0.7401 -1.2271  1.0551
 6718TIP3   OH241644   3.126   5.695   4.118 -0.4318 -0.2317  0.4020
 6718TIP3    H141645   3.148   5.648   4.038 -1.3862 -0.8023  0.4673
 6718TIP3    H241646   3.204   5.748   4.137  0.3107 -1.1042 -0.1578
 6719TIP3   OH241647   5.563   0.751  14.986  0.4828  0.0734 -0.0525
 6719TIP3    H141648   5.496   0.727  15.050  0.8432 -0.8224  0.0007
 6719TIP3    H241649   5.619   0.674  14.980  2.0587  1.1265  0.5899
 6720TIP3   OH241650   5.262   1.498   1.783 -0.0392  0.1749 -0.1237
 6720TIP3    H141651   5.280   1.592   1.785  0.5181  0.0750 -0.2929
 6720TIP3    H241652   5.240   1.476   1.873  1.0051  0.2539  0.1685
 6721TIP3   OH241653   5.255   2.620  12.945 -0.0905 -0.2644  0.3230
 6721TIP3    H141654   5.266   2.659  13.032  0.8370 -0.5864  0.3631
 6721TIP3    H241655   5.330   2.652  12.895 -0.9483  0.4234 -0.5589
 6722TIP3   OH241656   1.425   1.077   3.199  0.2604  0.2284  0.5693
 6722TIP3    H141657   1.420   1.165   3.162  3.2603  0.3575  0.2594
 6722TIP3    H241658   1.418   1.019   3.124 -0.8316  0.1826  0.6818
 6723TIP3   OH241659   4.025   1.011   0.994 -0.1167 -0.0379 -0.0475
 6723TIP3    H141660   4.045   0.961   0.915  0.2376 -0.1167  0.0892
 6723TIP3    H241661   3.954   0.963   1.036 -0.7859  0.3846 -0.6704
 6724TIP3   OH241662   6.767   2.253   5.376 -0.5808 -0.2407  0.0384
 6724TIP3    H141663   6.802   2.229   5.290 -0.2540  1.0377 -0.2093
 6724TIP3    H241664   6.677   2.221   5.374 -1.5412  2.2573 -1.9450
 6725TIP3   OH241665   1.355   0.302  15.787  0.1321 -0.0760  0.4229
 6725TIP3    H141666   1.281   0.361  15.775  0.3546 -0.0519 -1.0412
 6725TIP3    H241667   1.375   0.307  15.880 -1.7042 -0.0912  0.8620
 6726TIP3   OH241668   4.532   5.803   4.343 -0.2948  0.3923 -0.1582
 6726TIP3    H141669   4.479   5.809   4.423  0.6925  1.6555  0.4238
 6726TIP3    H241670   4.536   5.893   4.310 -0.2693 -0.0374 -1.3673
 6727TIP3   OH241671   4.545   2.224  12.912 -0.1569  0.6117  0.0377
 6727TIP3    H141672   4.608   2.290  12.885 -0.3818  0.7786 -0.0859
 6727TIP3    H241673   4.598   2.152  12.947  0.0292  1.6727  2.0608
 6728TIP3   OH241674   3.154   6.176  11.824  0.7612 -0.6313  0.0818
 6728TIP3    H141675   3.068   6.134  11.818 -1.1166  2.4625  2.3151
 6728TIP3    H241676   3.169   6.210  11.736 -1.5875  0.8818  0.1665
 6729TIP3   OH241677   3.876   3.678   5.736 -0.1765 -0.7219 -0.1114
 6729TIP3    H141678   3.920   3.746   5.788 -1.1973 -2.1744  2.8905
 6729TIP3    H241679   3.935   3.662   5.663  0.7438  2.3781 -0.1797
 6730TIP3   OH241680   5.468   0.443   1.425  0.0808  0.1431 -0.4490
 6730TIP3    H141681   5.464   0.510   1.493 -0.2344 -0.3721  0.0543
 6730TIP3    H241682   5.440   0.488   1.345  3.3155  1.5577 -0.9486
 6731TIP3   OH241683   2.560   0.637  16.782  0.1792 -0.4304 -0.5497
 6731TIP3    H141684   2.469   0.665  16.780  0.1348 -0.5965 -0.9395
 6731TIP3    H241685   2.564   0.571  16.852  0.5378  1.3843  1.2121
 6732TIP3   OH241686   5.270   6.441   3.635 -0.2801  0.0586  0.3418
 6732TIP3    H141687   5.248   6.458   3.543 -0.8596  2.6999  0.8877
 6732TIP3    H241688   5.364   6.422   3.634 -0.0012  1.3118 -0.6957
 6733TIP3   OH241689   0.123   3.471   1.279 -0.0368  0.6049 -0.0808
 6733TIP3    H141690   0.033   3.481   1.248 -0.2641  1.1226  0.7378
 6733TIP3    H241691   0.175   3.466   1.199 -0.8269 -0.0902 -0.5687
 6734TIP3   OH241692   3.055   4.584  14.853  0.2507  0.4933  0.1672
 6734TIP3    H141693   3.001   4.517  14.810  0.1805 -0.5381  1.7509
 6734TIP3    H241694   3.057   4.657  14.791 -1.4159 -0.1634 -0.7412
 6735TIP3   OH241695   0.135   4.267   3.895  0.0693  0.4260 -0.3240
 6735TIP3    H141696   0.088   4.242   3.975  2.6957 -0.7527  0.9646
 6735TIP3    H241697   0.165   4.356   3.912 -0.1719  0.5238 -0.4046
 6736TIP3   OH241698   6.327   2.677   6.038  0.1449 -0.1951  0.2383
 6736TIP3    H141699   6.292   2.603   5.988 -1.0722  0.3111  0.2936
 6736TIP3    H241700   6.321   2.649   6.129  1.6293 -0.8153  0.1606
 6737TIP3   OH241701   1.338   3.260   5.535 -0.6067  0.0200  0.1661
 6737TIP3    H141702   1.300   3.348   5.538  1.2632  0.9516 -1.6567
 6737TIP3    H241703   1.384   3.255   5.451 -3.0993 -3.7851 -1.2850
 6738TIP3   OH241704   3.768   1.518  16.289  0.5438  0.2008  0.3816
 6738TIP3    H141705   3.737   1.547  16.374 -1.2729 -0.2893 -0.0581
 6738TIP3    H241706   3.762   1.422  16.292  0.3835  0.1785 -0.3050
 6739TIP3   OH241707   6.491   1.305   5.713  0.5093  0.2069  0.0128
 6739TIP3    H141708   6.563   1.288   5.774  0.7482 -0.0239 -0.3312
 6739TIP3    H241709   6.414   1.268   5.756  0.4758  1.0080  0.6707
 6740TIP3   OH241710   1.948   0.938  17.216  0.4086  0.2640 -0.5498
 6740TIP3    H141711   1.951   0.876  17.288  1.1229  1.7775  0.7594
 6740TIP3    H241712   1.855   0.942  17.193  0.2940 -0.9393 -0.3870
 6741TIP3   OH241713   1.973   1.220  16.189  0.9001  0.1391 -0.3185
 6741TIP3    H141714   1.959   1.181  16.103  0.9731 -0.1540 -0.2008
 6741TIP3    H241715   2.055   1.269  16.181  1.1320 -0.2401 -0.2985
 6742TIP3   OH241716   3.777   4.441  14.858 -0.3744 -0.8020  0.2667
 6742TIP3    H141717   3.838   4.514  14.868 -1.5528  0.5662 -1.6612
 6742TIP3    H241718   3.823   4.378  14.803 -0.6651  0.2674 -1.2637
 6743TIP3   OH241719   4.730   2.208   0.148 -0.7084  0.0235  0.0666
 6743TIP3    H141720   4.710   2.124   0.190  1.1059 -1.5419 -1.9413
 6743TIP3    H241721   4.778   2.257   0.214  0.3296 -1.5439  0.5444
 6744TIP3   OH241722   1.351   1.347   3.171 -0.2418  0.2470 -0.8012
 6744TIP3    H141723   1.273   1.402   3.162  0.2617  1.1367  0.0158
 6744TIP3    H241724   1.360   1.333   3.265 -0.3938 -1.3187 -1.0020
 6745TIP3   OH241725   2.175   5.393  14.388  0.4886  0.6569  0.3876
 6745TIP3    H141726   2.249   5.422  14.335 -0.4838  2.7619  0.0787
 6745TIP3    H241727   2.209   5.387  14.477  1.8324 -1.7408 -0.2128
 6746TIP3   OH241728   3.869   0.172   3.574 -0.3571  0.2960 -0.8174
 6746TIP3    H141729   3.930   0.245   3.580 -0.3365  0.2075  0.2720
 6746TIP3    H241730   3.865   0.136   3.663  0.5823 -1.8078 -1.5592
 6747TIP3   OH241731   6.105   4.839  17.090 -0.1169 -0.8949  0.2098
 6747TIP3    H141732   6.128   4.928  17.064 -0.6713 -1.1706 -1.3637
 6747TIP3    H241733   6.179   4.809  17.143  1.2491 -0.3596 -1.3077
 6748TIP3   OH241734   0.706   6.061   6.198 -1.0343  0.4181  0.1645
 6748TIP3    H141735   0.628   6.114   6.183 -0.8584  0.7267  0.3372
 6748TIP3    H241736   0.761   6.076   6.121  0.1690  2.5308  1.3552
 6749TIP3   OH241737   0.763   0.624   4.590 -0.2011  0.6034 -0.1580
 6749TIP3    H141738   0.841   0.607   4.536  0.7636 -0.1243  1.3847
 6749TIP3    H241739   0.741   0.539   4.628 -0.7311  1.1284  0.7458
 6750TIP3   OH241740   2.369   3.601  14.643 -0.4866 -0.1187  0.7173
 6750TIP3    H141741   2.279   3.592  14.611  0.0540  1.2661 -1.3972
 6750TIP3    H241742   2.408   3.514  14.630 -1.5358 -0.8156  1.9222
 6751TIP3   OH241743   1.571   3.833  13.974 -0.8435 -0.0849  0.3458
 6751TIP3    H141744   1.595   3.912  14.022  1.2424 -0.3658 -0.1224
 6751TIP3    H241745   1.529   3.777  14.039 -1.3639  0.9740  0.9428
 6752TIP3   OH241746   3.983   1.364  12.933 -0.3815 -0.0499 -0.4891
 6752TIP3    H141747   3.922   1.306  12.889 -0.9706 -0.8172  1.2455
 6752TIP3    H241748   4.063   1.312  12.944 -0.4201 -0.0549 -0.2051
 6753TIP3   OH241749   1.977   5.477   2.527 -0.2216  0.2703 -0.6111
 6753TIP3    H141750   2.022   5.485   2.443 -1.4974 -1.3144 -1.5095
 6753TIP3    H241751   1.933   5.392   2.522 -1.0958  0.5694  1.2961
 6754TIP3   OH241752   2.027   0.976  10.565 -0.2059  0.3185 -0.4165
 6754TIP3    H141753   2.096   1.031  10.603  0.2156 -0.5710  0.1196
 6754TIP3    H241754   1.992   0.926  10.638 -1.2063  0.5128 -0.7430
 6755TIP3   OH241755   1.507   4.032  10.939  0.4392 -0.2532  0.1926
 6755TIP3    H141756   1.542   4.119  10.921 -1.9954  0.7050 -0.4276
 6755TIP3    H241757   1.516   4.021  11.033 -0.7110  1.4351  0.5447
 6756TIP3   OH241758   4.740   4.158   1.482 -0.0295 -0.1627 -0.1598
 6756TIP3    H141759   4.751   4.225   1.415 -1.5184  0.4524  0.1736
 6756TIP3    H241760   4.690   4.089   1.438 -0.4424 -0.0485  0.1275
 6757TIP3   OH241761   2.634   0.184   2.088 -0.0835  0.4371  0.6804
 6757TIP3    H141762   2.719   0.156   2.055  0.4059  1.0201  1.4223
 6757TIP3    H241763   2.654   0.256   2.148 -0.9633 -0.4159  2.0507
 6758TIP3   OH241764   4.162   0.972   4.678 -0.1186  0.6644  0.3884
 6758TIP3    H141765   4.195   1.017   4.755 -0.1649 -0.5806  1.1638
 6758TIP3    H241766   4.216   0.893   4.672  0.2850  1.0143 -1.2058
 6759TIP3   OH241767   2.155   4.195   3.578 -0.1545  0.1465  0.2475
 6759TIP3    H141768   2.097   4.224   3.508 -0.0262  0.5455  0.3015
 6759TIP3    H241769   2.122   4.109   3.603 -1.0654  0.5921  0.6429
 6760TIP3   OH241770   2.452   0.008  15.626 -0.5791 -0.1010 -0.0407
 6760TIP3    H141771   2.510   0.009  15.549 -1.3463 -1.1576 -0.6597
 6760TIP3    H241772   2.503   0.051  15.695 -0.2052  1.6537 -1.3496
 6761TIP3   OH241773   5.891   4.466   2.686 -0.1946 -0.2109 -0.3846
 6761TIP3    H141774   5.881   4.513   2.603  1.3852 -0.1762 -0.5831
 6761TIP3    H241775   5.938   4.386   2.663 -0.6304 -0.6951  0.3405
 6762TIP3   OH241776   4.965   2.985   2.589 -0.3742 -0.7537 -0.2544
 6762TIP3    H141777   4.931   3.022   2.670 -1.5329 -0.1847 -0.9787
 6762TIP3    H241778   5.021   3.054   2.553  1.3582 -1.5617  0.7674
 6763TIP3   OH241779   6.028   2.870  12.845  0.2852 -0.0795  0.5175
 6763TIP3    H141780   5.974   2.895  12.920  0.5215 -0.7288  0.9076
 6763TIP3    H241781   6.018   2.943  12.784 -1.1849 -0.2741  0.4932
 6764TIP3   OH241782   3.202   6.048  14.696 -0.1335 -0.7125  0.1232
 6764TIP3    H141783   3.242   6.080  14.777 -0.3766  1.5914 -0.6110
 6764TIP3    H241784   3.261   6.076  14.626  0.0893 -2.6872 -0.5561
 6765TIP3   OH241785   0.319   3.865   3.179  0.1240 -0.2560 -0.2139
 6765TIP3    H141786   0.408   3.847   3.209 -0.1807  0.1976  1.0066
 6765TIP3    H241787   0.271   3.785   3.200 -0.4651  0.6331  2.1314
 6766TIP3   OH241788   2.420   3.163   0.471  0.2922 -0.2754  0.2901
 6766TIP3    H141789   2.340   3.214   0.462  0.1403 -0.4482  0.6826
 6766TIP3    H241790   2.429   3.119   0.386  0.4541  0.4337 -0.0726
 6767TIP3   OH241791   0.616   1.841   0.618 -0.3166  0.0946 -0.7672
 6767TIP3    H141792   0.528   1.840   0.656 -0.7452  1.1493 -1.6811
 6767TIP3    H241793   0.653   1.924   0.647  0.2213 -0.1422 -0.7694
 6768TIP3   OH241794   1.738   6.783   3.287 -0.2776 -0.1079 -0.3289
 6768TIP3    H141795   1.714   6.875   3.289 -0.6329 -0.1830 -0.9344
 6768TIP3    H241796   1.669   6.741   3.235  0.2130 -0.6091 -0.5853
 6769TIP3   OH241797   0.296   1.277   4.493 -0.1466  0.7407  0.3079
 6769TIP3    H141798   0.266   1.340   4.559  0.3516 -0.1073  1.3805
 6769TIP3    H241799   0.224   1.273   4.429 -0.8084  1.3132  0.9989
 6770TIP3   OH241800   1.092   2.116  15.259  0.1817 -0.1686  0.1921
 6770TIP3    H141801   1.047   2.033  15.273 -1.3905  0.1813 -2.1675
 6770TIP3    H241802   1.021   2.181  15.257  0.9818  0.7094 -1.5101
 6771TIP3   OH241803   1.598   0.080  11.535 -0.2517 -0.1011  0.9077
 6771TIP3    H141804   1.643   0.146  11.482 -0.8847 -0.1730  0.2703
 6771TIP3    H241805   1.563   0.018  11.472  0.4580 -1.1462  1.5101
 6772TIP3   OH241806   0.973   1.859   5.280  0.2106  0.1161 -0.2854
 6772TIP3    H141807   0.935   1.848   5.192 -0.8131 -0.2534  0.1805
 6772TIP3    H241808   1.067   1.851   5.267 -0.0116 -1.5559 -1.1351
 6773TIP3   OH241809   6.462   4.296   2.470 -0.6039  0.0385 -0.0117
 6773TIP3    H141810   6.401   4.223   2.480 -1.0893  0.3633 -0.5389
 6773TIP3    H241811   6.406   4.374   2.464 -0.3013  0.1484 -2.6404
 6774TIP3   OH241812   2.734   0.712  15.292 -0.4453  0.4991  0.3496
 6774TIP3    H141813   2.657   0.723  15.348 -1.5712  0.1503 -1.0636
 6774TIP3    H241814   2.748   0.798  15.253 -1.3671  0.1120 -0.8986
 6775TIP3   OH241815   3.085   3.962  13.593 -0.7706  0.2849  0.0618
 6775TIP3    H141816   3.114   3.901  13.525  0.2194  0.4693  0.2955
 6775TIP3    H241817   3.123   3.927  13.674 -2.3425 -0.2079  0.6277
 6776TIP3   OH241818   3.230   4.787  12.015  0.4031 -0.1568  0.0276
 6776TIP3    H141819   3.210   4.753  12.102 -2.8313  0.7013 -0.2349
 6776TIP3    H241820   3.299   4.852  12.029 -1.1811  1.1745  2.2727
 6777TIP3   OH241821   0.603   2.323   0.759 -0.0037 -0.2917 -0.3529
 6777TIP3    H141822   0.598   2.376   0.839 -1.3607 -1.2324  0.2211
 6777TIP3    H241823   0.516   2.285   0.750  0.3596 -0.8196 -1.8670
 6778TIP3   OH241824   6.062   4.062   4.455 -0.0991 -0.3753  0.1035
 6778TIP3    H141825   6.092   4.145   4.490 -2.1166  0.6524 -0.4868
 6778TIP3    H241826   6.142   4.008   4.450  1.2056  1.4099  0.7122
 6779TIP3   OH241827   6.049   3.368  12.221 -0.3412 -0.5905 -0.3864
 6779TIP3    H141828   6.013   3.288  12.182 -0.8912  1.1532 -3.8257
 6779TIP3    H241829   5.980   3.433  12.210  0.7363  0.8137  0.7360
 6780TIP3   OH241830   0.038   3.255  13.112 -0.1036  0.2917  0.0371
 6780TIP3    H141831   0.038   3.284  13.021  2.6911  0.5487  0.0363
 6780TIP3    H241832   0.040   3.335  13.164  2.9740  0.2742  0.1313
 6781TIP3   OH241833   5.534   4.710  14.562  0.0067 -0.2727  0.0668
 6781TIP3    H141834   5.452   4.664  14.583 -0.4267  0.0515 -0.8560
 6781TIP3    H241835   5.547   4.770  14.635 -0.8643  0.0482 -0.0283
 6782TIP3   OH241836   2.645   3.370  15.518 -0.2288  0.5658 -0.1414
 6782TIP3    H141837   2.624   3.326  15.601 -0.8021 -0.1578 -0.6630
 6782TIP3    H241838   2.569   3.425  15.501  0.9514  2.7430  1.0994
 6783TIP3   OH241839   0.163   0.134   4.342 -0.3491 -0.0115  0.0232
 6783TIP3    H141840   0.178   0.107   4.433  2.3929 -1.0901 -0.6595
 6783TIP3    H241841   0.180   0.228   4.342  1.1496 -0.2689  0.3703
 6784TIP3   OH241842   4.625   4.054   6.125  0.0647 -0.0918  0.3409
 6784TIP3    H141843   4.709   4.056   6.171  0.9490  0.0422 -1.2066
 6784TIP3    H241844   4.636   4.114   6.051 -0.6064 -1.6883 -1.1483
 6785TIP3   OH241845   4.080   3.477  13.418  0.0500 -0.1128 -0.0677
 6785TIP3    H141846   4.173   3.484  13.397  0.1322  0.4754  0.4509
 6785TIP3    H241847   4.038   3.452  13.336  0.2602  2.9029 -1.2316
 6786TIP3   OH241848   4.531   1.496   1.076  1.1161  0.3329 -0.1526
 6786TIP3    H141849   4.490   1.448   1.148 -1.5979  1.9236 -0.5146
 6786TIP3    H241850   4.478   1.575   1.066  2.0489  0.7032 -3.1875
 6787TIP3   OH241851   5.355   1.717   4.698 -0.0263 -0.0800 -0.2141
 6787TIP3    H141852   5.350   1.798   4.747  0.7343  0.1502 -0.5043
 6787TIP3    H241853   5.423   1.732   4.632 -0.4218 -0.6774 -0.7811
 6788TIP3   OH241854   4.082   6.829   3.511 -0.1153  0.2724 -0.1216
 6788TIP3    H141855   4.016   6.898   3.502 -1.2136 -0.6587  0.4696
 6788TIP3    H241856   4.165   6.876   3.523 -0.6660  1.4693 -0.8422
 6789TIP3   OH241857   5.127   3.467   1.507 -0.0046 -0.2005  0.6745
 6789TIP3    H141858   5.142   3.390   1.451  0.3118  0.8463 -0.7352
 6789TIP3    H241859   5.035   3.460   1.532  0.5174 -2.1377  2.3410
 6790TIP3   OH241860   1.446   6.705   0.568 -0.5772 -0.0921  0.2526
 6790TIP3    H141861   1.505   6.651   0.514 -1.5546  1.6252 -2.7760
 6790TIP3    H241862   1.386   6.642   0.608  2.8069 -1.8595  3.0726
 6791TIP3   OH241863   1.135   4.670   1.223 -0.0450 -0.2996 -0.1021
 6791TIP3    H141864   1.173   4.736   1.281 -1.2512  0.3327  0.0044
 6791TIP3    H241865   1.160   4.586   1.261  1.0099  0.0945  0.0972
 6792TIP3   OH241866   3.028   4.965   5.410  0.1433  0.0405 -0.3492
 6792TIP3    H141867   2.969   4.996   5.479  0.0531  0.1117 -0.4563
 6792TIP3    H241868   3.063   4.882   5.443 -1.2013 -0.7971 -0.9249
 6793TIP3   OH241869   2.199   4.126   1.690 -0.1155 -0.1423 -0.1594
 6793TIP3    H141870   2.131   4.063   1.669  0.3136 -1.0663  1.1454
 6793TIP3    H241871   2.276   4.073   1.710  0.0906  0.7347  1.5490
 6794TIP3   OH241872   6.117   4.863   1.188  0.2988 -0.3393  0.2339
 6794TIP3    H141873   6.128   4.871   1.093 -0.2985 -1.8733  0.0055
 6794TIP3    H241874   6.197   4.819   1.217  1.3996  1.8842  0.7735
 6795TIP3   OH241875   1.029   2.315   4.197  0.2511 -0.7239 -0.0345
 6795TIP3    H141876   1.102   2.264   4.232 -0.3438 -0.6436  1.3827
 6795TIP3    H241877   0.954   2.291   4.251 -0.3591  0.6082 -0.2358
 6796TIP3   OH241878   1.958   0.844  11.373 -0.1763  0.3767 -0.1204
 6796TIP3    H141879   1.930   0.755  11.350  1.5269 -0.0835 -0.6377
 6796TIP3    H241880   1.966   0.843  11.468  0.1919 -0.1756 -0.1468
 6797TIP3   OH241881   1.179   2.398   3.004  0.4872 -0.2683 -0.2195
 6797TIP3    H141882   1.185   2.413   2.910 -0.2973  0.0661 -0.2221
 6797TIP3    H241883   1.245   2.332   3.022  0.5152 -0.4709 -1.0425
 6798TIP3   OH241884   4.460   3.955  16.227 -0.2654 -0.1464  0.0069
 6798TIP3    H141885   4.397   4.008  16.275 -0.5694 -1.1583  0.7571
 6798TIP3    H241886   4.482   3.884  16.287  0.4137 -0.6664 -0.8367
 6799TIP3   OH241887   6.260   5.433   5.222  0.2753  0.4998 -0.3043
 6799TIP3    H141888   6.230   5.375   5.292  0.1499  0.9826  0.0463
 6799TIP3    H241889   6.235   5.521   5.252  3.3881  1.1405  0.7784
 6800TIP3   OH241890   2.992   2.285  14.835  0.6179 -0.0294  0.8309
 6800TIP3    H141891   2.915   2.314  14.885 -0.9795  0.1025 -1.5109
 6800TIP3    H241892   2.992   2.190  14.843  0.8315  0.0431  1.6963
 6801TIP3   OH241893   2.650   5.091   4.696 -0.7984 -0.5096 -0.8199
 6801TIP3    H141894   2.675   4.999   4.691  0.2741 -0.2722 -0.0749
 6801TIP3    H241895   2.641   5.109   4.790 -0.8957  0.1799 -0.9510
 6802TIP3   OH241896   3.604   1.673   0.040 -0.3693  0.2787 -0.4946
 6802TIP3    H141897   3.594   1.678  -0.055 -1.6291 -1.3236 -0.4809
 6802TIP3    H241898   3.514   1.671   0.074 -0.0293 -2.4252  0.4920
 6803TIP3   OH241899   0.537   4.248   0.649 -0.2793  0.4130  0.1379
 6803TIP3    H141900   0.550   4.180   0.583 -0.2807  0.2163  0.3385
 6803TIP3    H241901   0.622   4.289   0.659 -0.5515  1.2342 -0.8471
 6804TIP3   OH241902   4.333   6.368   4.214 -0.0358 -0.5969 -0.4752
 6804TIP3    H141903   4.356   6.327   4.297 -2.3957 -2.0518 -0.4382
 6804TIP3    H241904   4.354   6.461   4.226 -0.2400 -0.7851  1.7041
 6805TIP3   OH241905   2.178   1.928  12.523 -0.9366 -0.7819  0.0444
 6805TIP3    H141906   2.162   2.023  12.526  0.9315 -0.4309  2.1387
 6805TIP3    H241907   2.168   1.905  12.431 -3.7979  0.9587 -0.2152
 6806TIP3   OH241908   3.891   6.633   0.147 -0.0407  0.4964  0.1235
 6806TIP3    H141909   3.984   6.628   0.170  0.3013  1.6443 -0.8973
 6806TIP3    H241910   3.879   6.566   0.080 -0.1120 -0.1222  0.7518
 6807TIP3   OH241911   4.719   0.577  13.973 -0.1690 -0.0319  0.5187
 6807TIP3    H141912   4.649   0.527  13.932  0.5537  0.7391 -1.7712
 6807TIP3    H241913   4.800   0.530  13.950  0.4284  1.5638 -0.8280
 6808TIP3   OH241914   4.212   4.906  15.818 -0.4971 -0.2960  0.1049
 6808TIP3    H141915   4.222   4.908  15.913 -0.0783 -0.5677  0.0667
 6808TIP3    H241916   4.118   4.892  15.805 -0.8312  1.4358  0.4601
 6809TIP3   OH241917   2.519   5.365  11.723  0.5037 -0.0333  0.3960
 6809TIP3    H141918   2.611   5.359  11.697  0.2403 -1.4290 -0.3047
 6809TIP3    H241919   2.479   5.422  11.658  0.6831 -0.2029  0.1360
 6810TIP3   OH241920   0.111   1.706   2.477  0.4665  0.6945 -0.0709
 6810TIP3    H141921   0.171   1.750   2.416 -0.3821  0.3728 -1.1593
 6810TIP3    H241922   0.141   1.615   2.478  1.2373  0.9340  0.9669
 6811TIP3   OH241923   2.329   1.998   6.039  0.3519 -0.1877 -0.1680
 6811TIP3    H141924   2.362   1.949   5.963 -1.2256  0.6067 -1.4302
 6811TIP3    H241925   2.234   1.993   6.031  0.1529  0.6630  1.2929
 6812TIP3   OH241926   0.493   1.101  13.813  0.3185  0.6453 -0.2751
 6812TIP3    H141927   0.413   1.154  13.805  0.5847  1.1881  0.5351
 6812TIP3    H241928   0.557   1.145  13.758 -0.0598 -0.0647 -1.3163
 6813TIP3   OH241929   4.987   2.167  13.686  0.0849  0.2146  0.3864
 6813TIP3    H141930   5.077   2.186  13.712  1.4322 -1.9903 -2.2181
 6813TIP3    H241931   4.958   2.101  13.749 -0.2813  1.8531  2.0347
 6814TIP3   OH241932   3.420   4.042   1.511 -0.3138  0.2310 -0.1890
 6814TIP3    H141933   3.415   3.955   1.549 -1.0145 -0.1027 -1.0017
 6814TIP3    H241934   3.411   4.028   1.416  2.6268  0.8989 -0.6796
 6815TIP3   OH241935   2.214   5.480   4.701 -0.2625 -0.3731  0.2123
 6815TIP3    H141936   2.295   5.468   4.650 -1.2101 -0.1387 -1.4089
 6815TIP3    H241937   2.243   5.476   4.792  1.9332  1.8568 -0.2711
 6816TIP3   OH241938   0.927   6.153  17.175 -0.4129  0.5968 -0.5338
 6816TIP3    H141939   0.990   6.221  17.197 -1.9668  2.2687 -0.9543
 6816TIP3    H241940   0.867   6.151  17.249  0.2929 -1.2161  0.0202
 6817TIP3   OH241941   3.762   4.466   5.923 -0.3346  0.1690 -0.1697
 6817TIP3    H141942   3.673   4.469   5.886 -0.1391  3.4010 -0.6369
 6817TIP3    H241943   3.760   4.528   5.995  1.0260 -1.3911  1.3055
 6818TIP3   OH241944   0.011   5.802  10.623  0.3072 -0.4866  0.4534
 6818TIP3    H141945   0.034   5.891  10.648 -0.4433 -0.1697  0.0276
 6818TIP3    H241946   0.028   5.797  10.529  2.0183 -1.3335  0.7686
 6819TIP3   OH241947   1.333   3.114  13.303  0.2047 -0.4070  0.1929
 6819TIP3    H141948   1.354   3.105  13.397 -2.5438 -1.8509  0.7485
 6819TIP3    H241949   1.238   3.109  13.299  0.2071  0.3949 -2.6544
 6820TIP3   OH241950   6.757   3.666  11.355  0.4406  0.4611  0.3651
 6820TIP3    H141951   6.777   3.573  11.349 -0.9751  0.2236 -2.6562
 6820TIP3    H241952   6.686   3.672  11.418 -0.5560 -0.7752 -0.5878
 6821TIP3   OH241953   5.021   1.937  14.626  0.2864 -0.9427 -0.6226
 6821TIP3    H141954   4.926   1.931  14.616  0.0374  1.2918 -0.2335
 6821TIP3    H241955   5.049   1.850  14.653 -2.0082 -1.0638  1.7137
 6822TIP3   OH241956   3.839   1.143   5.066 -0.0316  0.1605  0.1599
 6822TIP3    H141957   3.870   1.141   4.976 -0.5237 -0.6894  0.0014
 6822TIP3    H241958   3.842   1.236   5.090  3.2942  0.1210  0.4188
 6823TIP3   OH241959   5.181   2.106   3.164 -0.1074  0.1747  0.5820
 6823TIP3    H141960   5.217   2.069   3.083 -0.4038  0.6314  0.2388
 6823TIP3    H241961   5.171   2.030   3.221  0.5760 -0.0880  0.3775
 6824TIP3   OH241962   2.121   2.215   1.948  0.0275 -0.2453 -0.1770
 6824TIP3    H141963   2.041   2.218   2.001  2.9070  1.2303  4.7873
 6824TIP3    H241964   2.122   2.299   1.902 -1.0741 -0.0649  0.1122
 6825TIP3   OH241965   5.927   5.184  14.438 -0.2015  0.1553  0.0759
 6825TIP3    H141966   5.842   5.159  14.401  0.1490  0.9271 -1.2830
 6825TIP3    H241967   5.905   5.235  14.516 -0.9392 -1.8181  1.2448
 6826TIP3   OH241968   6.705   1.349   1.776 -0.1271  0.2131 -0.5026
 6826TIP3    H141969   6.790   1.359   1.821  1.3465 -1.0718 -2.8013
 6826TIP3    H241970   6.698   1.255   1.760 -3.6369 -0.2529  2.4027
 6827TIP3   OH241971   5.883   2.915  15.798 -0.1222  0.8009 -0.3176
 6827TIP3    H141972   5.816   2.883  15.738 -0.0653  1.4910 -0.7567
 6827TIP3    H241973   5.951   2.848  15.797  0.6186  1.5266 -2.2621
 6828TIP3   OH241974   1.618   6.636   1.444  0.3039  0.2969 -0.4821
 6828TIP3    H141975   1.700   6.676   1.472  0.4410  0.8079 -1.5491
 6828TIP3    H241976   1.633   6.612   1.352 -0.8777  0.8068 -0.8327
 6829TIP3   OH241977   3.803   1.987   3.303  0.5115 -0.0412 -0.4625
 6829TIP3    H141978   3.851   1.905   3.316  0.2938  0.0216  0.8982
 6829TIP3    H241979   3.853   2.052   3.351 -0.9318  0.0181  1.0487
 6830TIP3   OH241980   6.105   6.085   5.070 -0.2958  0.3037  0.0957
 6830TIP3    H141981   6.014   6.105   5.049 -0.4864 -0.8099 -0.2101
 6830TIP3    H241982   6.156   6.147   5.018 -0.8793  0.9652  0.3036
 6831TIP3   OH241983   1.837   6.253   5.957 -0.7058 -0.0485 -0.0143
 6831TIP3    H141984   1.855   6.261   5.864 -2.1274 -1.7347 -0.4919
 6831TIP3    H241985   1.753   6.206   5.962 -0.5779 -0.1805  2.1107
 6832TIP3   OH241986   2.092   6.527  16.970 -0.0399  0.4127  0.0410
 6832TIP3    H141987   1.998   6.530  16.950  0.0114  1.9093 -0.0930
 6832TIP3    H241988   2.102   6.449  17.025 -1.2778 -0.0333 -0.3242
 6833TIP3   OH241989   5.568   2.699   6.716 -0.1369 -0.0793 -0.4254
 6833TIP3    H141990   5.486   2.744   6.697  0.9683  1.6977 -1.2661
 6833TIP3    H241991   5.579   2.638   6.643 -0.0785  0.6290 -1.0211
 6834TIP3   OH241992   5.164   4.140   5.800 -0.0484  0.6859  0.4061
 6834TIP3    H141993   5.248   4.172   5.765 -1.2446  1.9227 -1.5008
 6834TIP3    H241994   5.115   4.220   5.820 -0.4849 -0.0245  2.3662
 6835TIP3   OH241995   2.195   3.461  13.057 -0.1756  0.2689  0.3658
 6835TIP3    H141996   2.201   3.434  13.148 -2.6685 -0.8340  0.2908
 6835TIP3    H241997   2.241   3.391  13.008  0.1163  0.2375  0.6799
 6836TIP3   OH241998   3.318   5.578   0.101 -0.3187  0.0351 -0.0813
 6836TIP3    H141999   3.395   5.557   0.154  1.1400 -0.0941 -2.1312
 6836TIP3    H242000   3.302   5.671   0.119  0.3645  0.0855  0.3284
 6837TIP3   OH242001   1.347   3.287  15.150  0.0592 -0.0354 -0.0764
 6837TIP3    H142002   1.345   3.356  15.083  1.1518  0.8981  0.8168
 6837TIP3    H242003   1.364   3.207  15.101  3.9075  0.9931 -0.7650
 6838TIP3   OH242004   5.197   2.407  11.602 -0.3050  0.9062 -0.1850
 6838TIP3    H142005   5.167   2.399  11.692  0.1429 -0.5053 -0.1359
 6838TIP3    H242006   5.290   2.428  11.609 -0.0104 -0.2854 -0.2875
 6839TIP3   OH242007   5.594   4.577  17.130  0.0888  0.6956  0.0515
 6839TIP3    H142008   5.688   4.597  17.124 -0.1867  1.8136 -0.8865
 6839TIP3    H242009   5.551   4.647  17.081 -1.3160  0.7424  1.2604
 6840TIP3   OH242010   4.193   6.554  12.215 -0.8660  0.1120 -0.4222
 6840TIP3    H142011   4.258   6.565  12.146 -0.1686 -1.6047 -0.0872
 6840TIP3    H242012   4.161   6.643  12.233  2.0642  1.1784  0.0794
 6841TIP3   OH242013   1.644   2.245  16.411 -0.1130  0.0667  0.1305
 6841TIP3    H142014   1.647   2.293  16.494  3.2301 -0.0486  0.2209
 6841TIP3    H242015   1.643   2.313  16.344  2.7501  0.4252  0.2974
 6842TIP3   OH242016   3.028   1.386  15.531  0.4260 -0.1653  0.2280
 6842TIP3    H142017   3.017   1.420  15.443  2.2077  0.8829  0.3654
 6842TIP3    H242018   2.976   1.306  15.533 -1.0334  0.6994 -1.2139
 6843TIP3   OH242019   1.817   1.737   0.822  0.3623 -0.0746  0.1381
 6843TIP3    H142020   1.833   1.738   0.727 -2.2632 -0.1097 -0.3561
 6843TIP3    H242021   1.813   1.644   0.845 -1.8941 -0.1403 -0.3185
 6844TIP3   OH242022   1.576   1.521  11.293 -0.2332  0.3610  0.0418
 6844TIP3    H142023   1.598   1.467  11.217  0.7621  1.2364 -0.3143
 6844TIP3    H242024   1.572   1.459  11.366 -0.2699 -0.3535 -0.5575
 6845TIP3   OH242025   4.964   6.397  16.733  0.1189 -0.5323 -0.0777
 6845TIP3    H142026   4.963   6.304  16.755 -0.9439 -0.5580 -0.1611
 6845TIP3    H242027   5.052   6.426  16.757  1.1457 -1.9694 -1.8509
 6846TIP3   OH242028   6.119   0.020  16.837  0.1769 -0.2454 -0.2931
 6846TIP3    H142029   6.085  -0.019  16.918  0.7593  0.6118  0.3811
 6846TIP3    H242030   6.121  -0.053  16.775 -0.1573 -0.9476  0.4955
 6847TIP3   OH242031   1.290   5.161   4.277  0.1770  0.1000  0.3799
 6847TIP3    H142032   1.276   5.100   4.350  1.3702  1.8250  2.1578
 6847TIP3    H242033   1.210   5.213   4.275  0.0727 -0.0598  0.3334
 6848TIP3   OH242034   6.131   1.684   6.833 -0.4176  0.2621  0.5292
 6848TIP3    H142035   6.147   1.769   6.792 -1.8399 -0.2716 -1.2281
 6848TIP3    H242036   6.065   1.701   6.900  0.2032  0.7371  1.0290
 6849TIP3   OH242037   0.927   4.605   2.285  0.7189 -0.1319 -0.6328
 6849TIP3    H142038   0.931   4.694   2.320  0.7519 -0.3281 -0.1179
 6849TIP3    H242039   0.928   4.549   2.363 -2.4436 -0.5368 -0.7597
 6850TIP3   OH242040   5.556   0.043  15.968 -0.4567 -0.2708 -0.0195
 6850TIP3    H142041   5.539   0.018  15.877 -0.2508  0.6308 -0.3219
 6850TIP3    H242042   5.528   0.134  15.973 -0.0015 -0.1617  0.6942
 6851TIP3   OH242043   2.206   0.904   3.005  0.0558 -0.5303 -0.0111
 6851TIP3    H142044   2.287   0.930   3.047 -0.4898 -0.1332  0.8161
 6851TIP3    H242045   2.173   0.831   3.057 -0.7625  0.1407  0.4437
 6852TIP3   OH242046   2.653   1.282  12.582 -1.0354 -0.1648  0.2562
 6852TIP3    H142047   2.618   1.225  12.651 -3.0991  0.2069 -0.4282
 6852TIP3    H242048   2.655   1.369  12.621 -1.4162 -0.0907  0.1097
 6853TIP3   OH242049   6.603   2.568   5.574  0.4025  0.3512 -0.0648
 6853TIP3    H142050   6.657   2.510   5.520  2.0313  1.0769  0.7127
 6853TIP3    H242051   6.611   2.654   5.533  0.5518  0.6402  0.5677
 6854TIP3   OH242052   1.871   3.740  15.361 -0.1313  0.2339  0.0743
 6854TIP3    H142053   1.837   3.654  15.334 -0.8005  0.5007  0.0535
 6854TIP3    H242054   1.876   3.735  15.457  0.1572  0.0520  0.0508
 6855TIP3   OH242055   4.289   3.979  12.636  0.2619 -0.3251 -0.9533
 6855TIP3    H142056   4.298   3.916  12.565 -0.0758 -2.4555  0.7778
 6855TIP3    H242057   4.373   3.975  12.682 -0.3300 -0.7829  0.1244
 6856TIP3   OH242058   2.056   3.980  12.754  0.0163  0.4749  0.0287
 6856TIP3    H142059   1.981   4.039  12.766  0.1477  0.7174 -0.3278
 6856TIP3    H242060   2.047   3.949  12.664  0.5682  0.8253 -0.1530
 6857TIP3   OH242061   1.541   6.633  12.839  0.0552 -0.5771 -0.1378
 6857TIP3    H142062   1.622   6.609  12.883 -0.4553 -1.2291  0.4581
 6857TIP3    H242063   1.521   6.721  12.872  1.2842  0.2248 -1.4105
 6858TIP3   OH242064   4.231   5.274  15.335  0.3361 -0.1818 -0.0318
 6858TIP3    H142065   4.319   5.308  15.319  0.2720 -0.0372 -0.0758
 6858TIP3    H242066   4.190   5.272  15.248  0.3569 -0.4199 -0.0367
 6859TIP3   OH242067   1.682   3.566   5.525  0.7698  0.6931 -0.0881
 6859TIP3    H142068   1.777   3.563   5.510  0.4468  0.4821 -2.3764
 6859TIP3    H242069   1.663   3.487   5.574  1.9384  1.4291  1.6438
 6860TIP3   OH242070   0.307   5.553   5.421 -0.2304  0.4473 -0.3413
 6860TIP3    H142071   0.365   5.535   5.347 -0.1096  0.5039 -0.2604
 6860TIP3    H242072   0.271   5.468   5.444  0.3184  0.3025  0.0210
 6861TIP3   OH242073   5.212   3.382   0.335 -0.5157 -0.1054  0.2690
 6861TIP3    H142074   5.279   3.322   0.301 -0.8100 -0.4353  0.2686
 6861TIP3    H242075   5.232   3.389   0.429 -0.4422 -0.1539  0.2570
 6862TIP3   OH242076   5.116   1.698  17.211  0.3504  0.0678 -0.2389
 6862TIP3    H142077   5.125   1.790  17.236 -1.2370  0.1091  0.2851
 6862TIP3    H242078   5.124   1.650  17.294  2.1404 -0.3855 -0.6237
 6863TIP3   OH242079   1.155   5.956   3.192 -0.2756  0.0934  0.4788
 6863TIP3    H142080   1.236   5.949   3.243 -0.9921 -1.4837  1.4609
 6863TIP3    H242081   1.113   6.035   3.225  0.3040  0.2736  0.8048
 6864TIP3   OH242082   6.213   4.981   3.912  0.1510 -0.1201 -0.2216
 6864TIP3    H142083   6.307   5.000   3.919  0.1033 -0.1822  0.6734
 6864TIP3    H242084   6.188   4.953   3.999 -0.8758  0.6193 -0.2667
 6865TIP3   OH242085   1.403   3.501  10.552  0.0378 -0.0612 -0.0024
 6865TIP3    H142086   1.376   3.449  10.629 -0.5227  0.6051  0.2609
 6865TIP3    H242087   1.394   3.440  10.479  1.7473 -1.0822  0.5819
 6866TIP3   OH242088   4.207   4.292  13.618 -0.2773 -0.1634  0.5439
 6866TIP3    H142089   4.156   4.326  13.691 -1.7116 -1.7243  0.3270
 6866TIP3    H242090   4.161   4.213  13.590  1.3311 -0.7090 -0.7886
 6867TIP3   OH242091   2.367   4.676  11.545 -0.2080 -0.0060  0.0071
 6867TIP3    H142092   2.375   4.730  11.624 -0.7441  1.2344 -0.7571
 6867TIP3    H242093   2.411   4.594  11.567  0.3000  0.6003  1.3352
 6868TIP3   OH242094   3.037   1.441   4.787 -0.7994  0.2064  0.1527
 6868TIP3    H142095   2.977   1.401   4.850 -1.0938 -0.0552 -0.2931
 6868TIP3    H242096   3.123   1.408   4.813 -1.1067 -1.2919 -0.6175
 6869TIP3   OH242097   5.137   0.657  12.890  0.1678  0.2014  0.1125
 6869TIP3    H142098   5.048   0.659  12.854 -0.0731  2.5062  0.6553
 6869TIP3    H242099   5.187   0.606  12.826 -1.2108  0.2421 -1.0598
 6870TIP3   OH242100   4.331   0.994   6.343 -0.5239  0.2832  0.0871
 6870TIP3    H142101   4.418   1.029   6.323  0.1798 -0.3671  1.8534
 6870TIP3    H242102   4.322   1.004   6.438 -2.1643 -0.1706  0.0082
 6871TIP3   OH242103   0.510   3.012  16.529  0.4407 -0.4882  0.3946
 6871TIP3    H142104   0.437   2.959  16.562 -0.8846 -0.9701 -2.8907
 6871TIP3    H242105   0.571   2.948  16.492  1.1220  0.0725  0.5292
 6872TIP3   OH242106   6.542   1.132   2.569 -0.1276  0.3169  0.2430
 6872TIP3    H142107   6.520   1.039   2.569  0.1289  0.2550  0.2507
 6872TIP3    H242108   6.496   1.168   2.493 -0.4535  0.2397  0.4005
 6873TIP3   OH242109   6.404   4.859   1.159 -0.7710 -0.5343  0.1766
 6873TIP3    H142110   6.422   4.844   1.252  0.4183  0.9511  0.2258
 6873TIP3    H242111   6.488   4.884   1.122 -1.4344 -0.1059 -1.1041
 6874TIP3   OH242112   1.866   0.491  17.221 -0.5697 -0.2722 -0.4597
 6874TIP3    H142113   1.939   0.461  17.275  0.1472  3.5056  0.9803
 6874TIP3    H242114   1.792   0.495  17.282 -0.1793  2.3609 -0.0281
 6875TIP3   OH242115   4.042   3.433  12.815  0.1374 -0.2591 -0.2770
 6875TIP3    H142116   4.091   3.357  12.846  0.6679 -0.0811 -0.6790
 6875TIP3    H242117   4.099   3.476  12.752  0.5906  1.4918  1.2205
 6876TIP3   OH242118   2.227   0.207   0.023 -0.1530  0.6931 -0.2348
 6876TIP3    H142119   2.240   0.123  -0.020  2.0472  1.7944 -1.8876
 6876TIP3    H242120   2.184   0.185   0.106 -0.9033 -1.8797 -1.2078
 6877TIP3   OH242121   3.410   0.155   2.208  0.4974  0.1114  0.1512
 6877TIP3    H142122   3.399   0.202   2.290  0.8014  0.9504 -0.2697
 6877TIP3    H242123   3.503   0.167   2.186  0.2564  0.5320 -0.6787
 6878TIP3   OH242124   0.786   4.963   3.012  0.2100  0.3696 -0.1004
 6878TIP3    H142125   0.775   4.918   3.096  1.0752  1.3648  0.5667
 6878TIP3    H242126   0.697   4.978   2.981 -0.1735  1.1663  1.2916
 6879TIP3   OH242127   3.289   5.094  16.106 -0.4395 -0.0149  0.3873
 6879TIP3    H142128   3.197   5.120  16.098 -0.7023 -0.5917  1.3489
 6879TIP3    H242129   3.319   5.136  16.186 -0.4627 -1.4299  1.1814
 6880TIP3   OH242130   3.048   2.747   2.151 -0.4765 -0.1517  0.3184
 6880TIP3    H142131   3.106   2.711   2.218 -0.7336  2.5901  2.1925
 6880TIP3    H242132   2.961   2.720   2.178 -0.3654 -1.7388 -0.7974
 6881TIP3   OH242133   6.746   6.553   4.067  0.2609  0.2598  0.0606
 6881TIP3    H142134   6.787   6.619   4.122 -1.5067  2.5411 -1.1489
 6881TIP3    H242135   6.779   6.571   3.979  0.5423 -1.1746 -0.1431
 6882TIP3   OH242136   0.433   1.510  14.623 -0.6123 -0.2739  0.0149
 6882TIP3    H142137   0.514   1.495  14.575 -0.7932 -0.1606 -0.3288
 6882TIP3    H242138   0.451   1.477  14.711 -0.5262 -1.1631 -0.3300
 6883TIP3   OH242139   0.640   2.030   5.020 -0.0442 -0.5720 -0.1341
 6883TIP3    H142140   0.615   1.941   4.993  2.2024 -1.5378  0.7600
 6883TIP3    H242141   0.584   2.048   5.096 -0.5541 -1.1946 -0.3549
 6884TIP3   OH242142   4.407   1.363   2.844 -0.5321  0.1125  0.1755
 6884TIP3    H142143   4.388   1.404   2.929 -0.7097  1.6105 -0.5604
 6884TIP3    H242144   4.440   1.276   2.867 -1.4783  0.1200  1.7448
 6885TIP3   OH242145   4.719   1.358   4.245  0.5859 -0.0418  0.4477
 6885TIP3    H142146   4.773   1.281   4.224  0.9175  0.2093  0.3840
 6885TIP3    H242147   4.759   1.430   4.196 -0.7678 -0.1654 -0.8921
 6886TIP3   OH242148   6.639   2.626   0.722 -0.2562  0.3146  0.3516
 6886TIP3    H142149   6.595   2.711   0.730 -0.6911  0.3197 -1.4746
 6886TIP3    H242150   6.700   2.638   0.649 -0.3008 -0.9294  0.0879
 6887TIP3   OH242151   1.464   4.319   0.445  0.1145  0.0657 -0.0552
 6887TIP3    H142152   1.372   4.298   0.459 -0.1231 -0.6334 -2.2490
 6887TIP3    H242153   1.466   4.359   0.358  2.1871 -2.3781 -1.2454
 6888TIP3   OH242154   5.307   5.970  14.606  0.2641 -0.3934  0.2873
 6888TIP3    H142155   5.263   5.906  14.550 -2.3093 -1.1844  2.9807
 6888TIP3    H242156   5.316   5.926  14.690  1.0869  1.7999  1.4187
 6889TIP3   OH242157   4.362   5.807   3.637 -0.2007  0.1140 -1.1646
 6889TIP3    H142158   4.341   5.751   3.712  2.6733 -1.0208 -1.0919
 6889TIP3    H242159   4.301   5.779   3.568 -0.5711 -1.2723 -0.2996
 6890TIP3   OH242160   5.130   4.136  16.850  0.2314 -0.0225  0.0846
 6890TIP3    H142161   5.198   4.191  16.811  0.4705  0.7928  1.5740
 6890TIP3    H242162   5.171   4.098  16.928 -0.8026 -0.0652  0.6269
 6891TIP3   OH242163   4.006   1.906   6.061  0.9141  0.5667 -0.2393
 6891TIP3    H142164   3.936   1.878   6.120  1.0273  1.1166  0.1679
 6891TIP3    H242165   3.996   1.850   5.983 -0.1433  0.8113 -0.2985
 6892TIP3   OH242166   3.424   4.364   2.823  0.1092 -0.1397 -0.4254
 6892TIP3    H142167   3.351   4.383   2.883 -0.4427 -1.3573 -0.6831
 6892TIP3    H242168   3.432   4.269   2.824  0.3821 -0.1560 -1.9391
 6893TIP3   OH242169   3.111   5.773  13.673  0.1520 -0.0867 -0.0354
 6893TIP3    H142170   3.049   5.846  13.668 -0.7012 -0.6168  1.9919
 6893TIP3    H242171   3.059   5.699  13.705  1.0497 -1.5600 -1.7798
 6894TIP3   OH242172   0.132   4.072  16.898 -0.2880  0.9002 -0.1428
 6894TIP3    H142173   0.067   4.020  16.851  0.5089  1.1044 -1.5354
 6894TIP3    H242174   0.132   4.157  16.853  1.1916  0.7744 -0.4356
 6895TIP3   OH242175   0.856   6.528   1.932  0.5328 -0.0987  0.2517
 6895TIP3    H142176   0.844   6.551   2.024 -0.4809 -0.9464  0.3578
 6895TIP3    H242177   0.810   6.444   1.923  1.4123 -0.4825 -0.8161
 6896TIP3   OH242178   1.109   1.985   5.011 -0.7219 -0.1569 -0.2407
 6896TIP3    H142179   1.198   1.954   4.992 -0.6410 -1.5642  2.0258
 6896TIP3    H242180   1.062   1.975   4.929  0.9502 -0.3368 -1.2349
 6897TIP3   OH242181   1.359   4.649   3.062 -0.2452  0.2436 -0.3072
 6897TIP3    H142182   1.376   4.733   3.104 -1.9532  0.4009  0.1586
 6897TIP3    H242183   1.373   4.584   3.130  1.3937  0.0798 -0.7525
 6898TIP3   OH242184   1.003   3.185   2.769  0.1480  0.6683  0.1041
 6898TIP3    H142185   1.009   3.097   2.731  2.3394  0.5536  0.5774
 6898TIP3    H242186   0.990   3.243   2.694 -2.0300 -0.0766 -0.1482
 6899TIP3   OH242187   5.918   5.528  13.822 -0.3060 -0.1730  0.0135
 6899TIP3    H142188   5.918   5.564  13.733 -0.5542  0.2210  0.1727
 6899TIP3    H242189   5.992   5.570  13.865 -0.1780 -0.3739 -0.0071
 6900TIP3   OH242190   4.529   0.769   4.897  0.4155  1.0797 -0.3452
 6900TIP3    H142191   4.592   0.834   4.927  0.4243  1.0989 -0.4064
 6900TIP3    H242192   4.529   0.702   4.966  1.8083  0.1928 -1.1625
 6901TIP3   OH242193   5.962   2.252   5.244 -0.0609 -0.0066  0.6643
 6901TIP3    H142194   6.043   2.204   5.261 -0.7730 -1.2548  0.6702
 6901TIP3    H242195   5.945   2.238   5.151 -1.7066 -2.1712  1.2012
 6902TIP3   OH242196   0.779   6.509   4.851 -0.5317 -0.6704  0.2271
 6902TIP3    H142197   0.806   6.585   4.903  0.4777 -1.3180  0.6893
 6902TIP3    H242198   0.702   6.476   4.896 -1.6697  0.7251 -0.6256
 6903TIP3   OH242199   2.417   2.709   3.900 -0.1665  0.0367 -0.1577
 6903TIP3    H142200   2.387   2.800   3.897 -0.7379 -0.0541  1.5170
 6903TIP3    H242201   2.338   2.657   3.908  0.2439 -0.4439  1.0153
 6904TIP3   OH242202   2.395   2.929   2.529 -0.1955 -0.0692 -0.4496
 6904TIP3    H142203   2.391   2.890   2.616 -1.9457 -0.4304 -0.6491
 6904TIP3    H242204   2.425   3.019   2.544 -0.2910 -0.1888  0.4964
 6905TIP3   OH242205   4.953   3.093  16.643  0.1932  0.5229 -0.0625
 6905TIP3    H142206   5.030   3.036  16.648  1.2683  1.7408 -1.7163
 6905TIP3    H242207   4.889   3.052  16.701  1.8451 -0.8999  0.8450
 6906TIP3   OH242208   2.715   6.103  15.249  0.4116 -0.3970  0.7305
 6906TIP3    H142209   2.806   6.077  15.265  1.5267  2.2822 -0.6392
 6906TIP3    H242210   2.701   6.180  15.304 -0.5500  0.0798 -0.1431
 6907TIP3   OH242211   5.577   0.514  14.564 -0.2902 -0.2545 -0.3332
 6907TIP3    H142212   5.489   0.511  14.601  0.1719  2.7178  1.3364
 6907TIP3    H242213   5.631   0.465  14.625 -0.4428 -0.2602 -0.2042
 6908TIP3   OH242214   6.136   5.197   4.457  0.0556 -0.3281 -0.5094
 6908TIP3    H142215   6.090   5.163   4.380 -0.4076 -0.5030 -0.1638
 6908TIP3    H242216   6.224   5.161   4.450 -0.0380 -0.5010 -0.8566
 6909TIP3   OH242217   6.745   0.217  14.309 -0.6484 -0.7151 -0.2456
 6909TIP3    H142218   6.740   0.306  14.343 -1.9777 -1.5002  1.8163
 6909TIP3    H242219   6.839   0.199  14.304 -0.2894  1.2715 -2.2285
 6910TIP3   OH242220   6.709   4.272  14.736 -0.1726 -0.2147 -0.0277
 6910TIP3    H142221   6.722   4.187  14.778  1.8754 -1.0915 -2.1871
 6910TIP3    H242222   6.621   4.267  14.699 -0.7743 -0.6419  1.3622
 6911TIP3   OH242223   0.220   3.930  14.955 -1.0318  0.2650  0.3452
 6911TIP3    H142224   0.314   3.911  14.948 -1.0297  0.4922 -0.2805
 6911TIP3    H242225   0.179   3.872  14.892 -1.1715  1.2129 -0.4550
 6912TIP3   OH242226   4.193   0.615  15.438 -0.6193  0.0463  0.0545
 6912TIP3    H142227   4.252   0.550  15.400 -1.8369 -0.0129 -1.8729
 6912TIP3    H242228   4.111   0.568  15.452 -1.7964  1.2613 -2.1623
 6913TIP3   OH242229   4.988   1.571   1.714  0.2671 -0.0086 -0.2489
 6913TIP3    H142230   5.037   1.623   1.650  0.7923  2.0975  1.7195
 6913TIP3    H242231   5.055   1.520   1.759  0.1504 -0.0535 -0.1264
 6914TIP3   OH242232   2.484   2.430   2.997 -0.5787 -0.2301  0.1759
 6914TIP3    H142233   2.518   2.390   2.917 -0.7229 -0.4833  0.2390
 6914TIP3    H242234   2.392   2.403   2.999 -1.3060  1.9065 -0.9433
 6915TIP3   OH242235   6.572   4.104  16.500  0.2218 -0.0989  0.7898
 6915TIP3    H142236   6.543   4.184  16.543  0.7213  0.1485  0.6717
 6915TIP3    H242237   6.653   4.128  16.456  1.4205 -1.1090  2.3329
 6916TIP3   OH242238   1.889   4.718   1.649 -0.0813 -0.5298 -0.2479
 6916TIP3    H142239   1.908   4.634   1.608  0.8825 -1.1982  1.5069
 6916TIP3    H242240   1.973   4.749   1.681 -0.5833  0.6469 -0.0170
 6917TIP3   OH242241   1.950   0.378  14.967 -0.3702 -0.0314  0.5397
 6917TIP3    H142242   1.860   0.397  14.995  0.3086  2.3597  1.3972
 6917TIP3    H242243   2.004   0.434  15.023  1.7317 -1.8972  0.5049
 6918TIP3   OH242244   6.435   2.833   1.768 -0.7461  0.4114  0.5993
 6918TIP3    H142245   6.472   2.871   1.847 -2.3240 -0.6490  1.8999
 6918TIP3    H242246   6.505   2.776   1.734 -0.3304  0.2423  1.6990
 6919TIP3   OH242247   4.255   1.104  14.107 -0.4393  0.0846 -0.5818
 6919TIP3    H142248   4.229   1.026  14.057  0.4116 -0.5990  0.0178
 6919TIP3    H242249   4.339   1.130  14.070  1.2524 -1.6511  1.7245
 6920TIP3   OH242250   4.397   2.189   3.351  0.0202 -0.7396  0.5153
 6920TIP3    H142251   4.306   2.180   3.380  0.0316 -2.2149  0.1791
 6920TIP3    H242252   4.446   2.205   3.432 -0.4890 -0.2598  0.7399
 6921TIP3   OH242253   0.671   1.717  16.041 -0.6788 -0.1081  0.2082
 6921TIP3    H142254   0.733   1.759  16.101  1.8947  0.2531 -2.4998
 6921TIP3    H242255   0.596   1.775  16.040 -0.0089  0.8409  1.6580
 6922TIP3   OH242256   5.550   4.024  12.704  0.4189  0.1060 -0.4181
 6922TIP3    H142257   5.606   4.095  12.735  0.4671  0.4831 -1.3278
 6922TIP3    H242258   5.550   3.960  12.775 -2.0102  2.2635  1.7298
 6923TIP3   OH242259   1.289   0.189  15.172  0.1978 -0.1510 -0.0834
 6923TIP3    H142260   1.302   0.147  15.087 -0.3253 -1.6066  0.5241
 6923TIP3    H242261   1.373   0.180  15.217  0.7572  1.4051 -0.7324
 6924TIP3   OH242262   0.589   1.127  13.438 -0.4777  0.0831 -0.5630
 6924TIP3    H142263   0.655   1.156  13.502 -1.0072 -0.1027  0.0804
 6924TIP3    H242264   0.517   1.189  13.449  0.7368  2.2260 -3.3954
 6925TIP3   OH242265   1.885   3.366  13.277 -0.2217 -0.0758 -0.0493
 6925TIP3    H142266   1.939   3.445  13.280  2.0748 -1.4275 -2.1796
 6925TIP3    H242267   1.876   3.340  13.369  1.9610  0.7784  0.4822
 6926TIP3   OH242268   3.390   2.691   2.990 -0.1813  0.0691  0.3236
 6926TIP3    H142269   3.319   2.711   2.928  1.6014  0.1426 -1.8068
 6926TIP3    H242270   3.450   2.765   2.981  0.7335 -0.5601  1.2078
 6927TIP3   OH242271   2.950   5.972  13.525 -0.4369 -0.0006  0.0064
 6927TIP3    H142272   2.891   6.047  13.523 -1.0288 -0.4432  0.4030
 6927TIP3    H242273   2.945   5.934  13.437 -0.4346  0.1944 -0.0776
 6928TIP3   OH242274   5.673   0.533   4.805 -0.6095 -0.5521  0.2007
 6928TIP3    H142275   5.691   0.625   4.785 -0.8736  0.1025  2.7071
 6928TIP3    H242276   5.752   0.486   4.777  0.3746  0.7330  0.7317
 6929TIP3   OH242277   2.761   4.940  14.996  0.4258 -0.1253  0.1323
 6929TIP3    H142278   2.799   4.883  15.063  0.4635  0.8012  0.9268
 6929TIP3    H242279   2.695   4.991  15.043 -1.0299 -0.9074 -0.9879
 6930TIP3   OH242280   6.406   3.110   1.487  0.0611 -0.0476 -0.0837
 6930TIP3    H142281   6.327   3.086   1.438 -1.0928 -0.2287  1.7673
 6930TIP3    H242282   6.467   3.141   1.420 -0.0476 -3.6234 -2.0883
 6931TIP3   OH242283   6.255   4.971  14.395  0.8573  0.0625  0.0257
 6931TIP3    H142284   6.247   5.023  14.475  0.3978  1.5224 -0.9248
 6931TIP3    H242285   6.177   4.992  14.344  0.4908 -1.8440 -0.2797
 6932TIP3   OH242286   3.392   3.562  14.657 -0.4370  0.6247 -0.2265
 6932TIP3    H142287   3.457   3.572  14.588 -0.5505 -0.9792 -0.6129
 6932TIP3    H242288   3.310   3.544  14.610 -0.9034  1.3169  0.2921
 6933TIP3   OH242289   2.153   3.589   3.525 -0.1054 -0.2232  0.2674
 6933TIP3    H142290   2.141   3.533   3.602 -1.3357  0.9913  1.0098
 6933TIP3    H242291   2.184   3.672   3.561 -1.8479  0.7530 -0.3757
 6934TIP3   OH242292   3.658   3.681   6.410  0.2394  0.2736 -0.1783
 6934TIP3    H142293   3.640   3.589   6.391  1.0706 -0.0608  0.5522
 6934TIP3    H242294   3.668   3.685   6.505 -2.4881  1.6396  0.1427
 6935TIP3   OH242295   1.800   6.625   2.573 -0.0850  0.0486  0.2153
 6935TIP3    H142296   1.803   6.666   2.487  0.5200 -0.2283  0.0951
 6935TIP3    H242297   1.775   6.534   2.555 -0.7293  0.1860  0.4092
 6936TIP3   OH242298   4.909   1.562   2.816  0.6915 -0.0293  0.1262
 6936TIP3    H142299   4.900   1.469   2.794  0.3905 -0.0754  0.4226
 6936TIP3    H242300   4.847   1.575   2.889 -0.8459  0.8755 -1.2665
 6937TIP3   OH242301   5.123   5.685   5.468  0.4617  0.0615  0.0772
 6937TIP3    H142302   5.191   5.736   5.513  0.6447  0.1284 -0.2704
 6937TIP3    H242303   5.116   5.726   5.381  2.3439 -1.9523 -1.1448
 6938TIP3   OH242304   3.162   5.780   6.701 -0.2067 -0.1401  0.4810
 6938TIP3    H142305   3.247   5.771   6.743 -0.4804 -0.3998  0.9911
 6938TIP3    H242306   3.099   5.773   6.773 -0.6620 -0.0685  0.0935
 6939TIP3   OH242307   0.449   3.015   6.236 -0.5056 -0.4709 -0.0006
 6939TIP3    H142308   0.377   3.063   6.276 -0.5685  3.0677 -3.7256
 6939TIP3    H242309   0.407   2.944   6.188 -1.1331 -0.5242  0.6260
 6940TIP3   OH242310   6.226   2.108   5.059  0.8207 -0.0032 -0.8375
 6940TIP3    H142311   6.263   2.173   5.119 -0.2095 -0.8624  0.7915
 6940TIP3    H242312   6.196   2.037   5.116  0.3034 -1.1079 -2.4296
 6941TIP3   OH242313   3.748   1.799  14.711 -0.7406 -0.7608 -0.5348
 6941TIP3    H142314   3.723   1.751  14.790  0.1483 -0.2699  0.0627
 6941TIP3    H242315   3.819   1.746  14.673 -0.3612 -0.3871 -0.3532
 6942TIP3   OH242316   0.349   4.225  17.221  0.0471  0.5417 -0.0921
 6942TIP3    H142317   0.353   4.294  17.287 -0.0982  0.9926 -0.5484
 6942TIP3    H242318   0.307   4.266  17.146 -1.0175 -0.3466  0.0001
 6943TIP3   OH242319   6.701   1.222   3.243 -0.0664 -0.7192  0.7327
 6943TIP3    H142320   6.728   1.213   3.152  2.4493  0.9273  1.2188
 6943TIP3    H242321   6.722   1.137   3.282  1.7663 -0.4521  0.4049
 6944TIP3   OH242322   6.230   3.252   3.283  0.0864 -0.1159 -1.1408
 6944TIP3    H142323   6.246   3.293   3.368 -1.9931 -0.1439 -0.6803
 6944TIP3    H242324   6.317   3.232   3.249  0.9699 -0.0384  0.9451
 6945TIP3   OH242325   2.625   2.852  11.750  0.1321  0.4144 -0.5610
 6945TIP3    H142326   2.599   2.793  11.679 -0.4361 -0.0030 -0.0124
 6945TIP3    H242327   2.584   2.815  11.828 -0.5597  1.7614 -0.2707
 6946TIP3   OH242328   2.135   0.493   2.156  0.7018 -0.0697  0.1650
 6946TIP3    H142329   2.045   0.467   2.138  1.1024 -1.8577  0.5627
 6946TIP3    H242330   2.126   0.570   2.213 -0.5768 -0.3983  0.4493
 6947TIP3   OH242331   3.357   2.477   6.799  0.0369 -0.0558 -0.2443
 6947TIP3    H142332   3.388   2.562   6.828  2.4856 -1.2128  0.8281
 6947TIP3    H242333   3.268   2.471   6.833 -0.1003  1.9391 -0.1450
 6948TIP3   OH242334   0.981   4.457   4.438 -0.7543  0.6679  0.2754
 6948TIP3    H142335   0.957   4.550   4.441 -0.0660  0.8347  1.9492
 6948TIP3    H242336   1.070   4.454   4.474  0.0821 -0.4188 -1.7492
 6949TIP3   OH242337   2.447   6.150   5.135 -0.2308  0.3891  0.0088
 6949TIP3    H142338   2.374   6.089   5.143 -1.7956  2.1088 -0.3523
 6949TIP3    H242339   2.471   6.147   5.042  1.9134 -2.0080  0.5470
 6950TIP3   OH242340   2.880   1.160  11.761  0.4283 -0.0121 -0.3859
 6950TIP3    H142341   2.954   1.106  11.736  0.6549  0.0150  0.1980
 6950TIP3    H242342   2.808   1.098  11.774 -0.3085  0.1427 -3.1228
 6951TIP3   OH242343   4.594   3.238   5.642  0.0213 -0.5258 -0.2124
 6951TIP3    H142344   4.576   3.145   5.637 -2.3213 -0.2653  1.6715
 6951TIP3    H242345   4.683   3.244   5.675  0.3021 -2.0798 -0.6291
 6952TIP3   OH242346   1.999   6.002  15.865  0.2413  0.0473  0.0093
 6952TIP3    H142347   1.917   6.011  15.817  1.2617  0.9041 -1.6694
 6952TIP3    H242348   2.009   6.084  15.913  0.1612 -0.0186  0.1383
 6953TIP3   OH242349   1.265   0.207   5.293 -0.1483 -0.4108 -0.0319
 6953TIP3    H142350   1.321   0.131   5.308 -0.2462 -0.7050 -1.0605
 6953TIP3    H242351   1.234   0.231   5.380  2.8069  0.7615  0.8270
 6954TIP3   OH242352   2.289   0.506  12.431 -0.1440  0.3716  0.1338
 6954TIP3    H142353   2.213   0.448  12.426  1.0677 -1.3900  0.9399
 6954TIP3    H242354   2.353   0.466  12.373  1.0519  0.3466  1.4048
 6955TIP3   OH242355   1.528   0.865  13.403 -0.1523 -0.0803 -0.4336
 6955TIP3    H142356   1.475   0.920  13.460  0.3285  0.3167 -0.3686
 6955TIP3    H242357   1.568   0.801  13.461  0.8429  0.7185 -0.2319
 6956TIP3   OH242358   1.687   5.868   0.722 -0.2937 -0.3437  0.1843
 6956TIP3    H142359   1.647   5.819   0.793 -0.3939  1.1584  1.2269
 6956TIP3    H242360   1.770   5.824   0.706 -1.2567 -2.0272 -0.3182
 6957TIP3   OH242361   1.283   2.845  12.919  0.1652  0.6673 -0.4441
 6957TIP3    H142362   1.349   2.853  12.988  2.1733  0.2900 -2.2180
 6957TIP3    H242363   1.312   2.905  12.850 -1.2947  0.4026 -1.3379
 6958TIP3   OH242364   4.403   5.705   1.012 -0.3034  0.1096 -0.1078
 6958TIP3    H142365   4.345   5.667   1.078 -1.5562  0.0591 -1.1973
 6958TIP3    H242366   4.347   5.718   0.935  0.7943  1.4356 -0.7242
 6959TIP3   OH242367   0.407   4.130  14.428  0.4320 -0.1256 -0.0084
 6959TIP3    H142368   0.317   4.131  14.461  0.2612 -1.0032 -0.4047
 6959TIP3    H242369   0.460   4.109  14.505  0.1605 -0.9013 -0.0185
 6960TIP3   OH242370   1.614   0.485  11.300  0.5648  0.0640  0.1265
 6960TIP3    H142371   1.632   0.559  11.242  0.0131 -1.5248 -2.2070
 6960TIP3    H242372   1.523   0.497  11.326 -0.1677 -0.7274 -1.8445
 6961TIP3   OH242373   4.233   4.483   1.845 -0.1110  0.6666  0.1437
 6961TIP3    H142374   4.144   4.449   1.831  0.2384 -0.8367  1.2852
 6961TIP3    H242375   4.227   4.530   1.929  0.6164 -1.3231  1.3675
 6962TIP3   OH242376   1.074   5.641   1.563  0.1751 -0.4628 -0.3510
 6962TIP3    H142377   0.985   5.675   1.549 -0.8955 -2.3464  1.3177
 6962TIP3    H242378   1.078   5.563   1.509  0.8026 -0.4068 -0.3842
 6963TIP3   OH242379   4.768   5.104   3.200 -0.1868  0.5348 -0.2288
 6963TIP3    H142380   4.792   5.173   3.262 -1.3354 -0.7763  1.7740
 6963TIP3    H242381   4.674   5.117   3.186 -0.4604 -0.7246  0.3494
 6964TIP3   OH242382   3.352   3.997  14.282  0.1237 -0.2200 -0.2935
 6964TIP3    H142383   3.267   4.039  14.295  0.0857  0.0008 -1.1450
 6964TIP3    H242384   3.331   3.915  14.237  0.3662 -0.0747 -0.6786
 6965TIP3   OH242385   0.239   6.517  12.225 -0.1351 -0.1540  0.0395
 6965TIP3    H142386   0.221   6.586  12.289 -1.8366  0.5075 -1.0972
 6965TIP3    H242387   0.202   6.549  12.144  0.3901 -1.7699 -0.8884
 6966TIP3   OH242388   5.140   5.657  14.735 -0.1243  0.5504  0.1655
 6966TIP3    H142389   5.231   5.684  14.727 -0.4293  1.7162  0.3257
 6966TIP3    H242390   5.137   5.602  14.813  0.1677  1.9228  1.1964
 6967TIP3   OH242391   4.580   4.056  15.793  0.0656  0.4922  0.2524
 6967TIP3    H142392   4.502   4.017  15.753  0.4499 -0.4953  0.4342
 6967TIP3    H242393   4.560   4.150  15.798  0.5203  0.9462 -3.5703
 6968TIP3   OH242394   3.849   0.777   0.067  0.1953  0.2424 -0.4927
 6968TIP3    H142395   3.777   0.749   0.124  1.7293  0.4365  1.6616
 6968TIP3    H242396   3.921   0.720   0.090  0.6592 -0.2482 -2.9470
 6969TIP3   OH242397   0.546   0.694   1.499 -0.5491 -0.4779 -0.4384
 6969TIP3    H142398   0.458   0.718   1.528 -0.1734  0.1045  0.2455
 6969TIP3    H242399   0.535   0.668   1.407 -1.1290  1.4657 -0.9479
 6970TIP3   OH242400   2.604   0.924  16.528 -0.0752 -0.5412  0.3217
 6970TIP3    H142401   2.518   0.882  16.519  0.0876 -1.3852  2.1846
 6970TIP3    H242402   2.651   0.899  16.449 -0.5846 -2.4659  0.5735
 6971TIP3   OH242403   5.866   1.296   3.904  0.2428 -0.3281 -0.6453
 6971TIP3    H142404   5.864   1.290   3.999 -1.3155 -1.8654 -0.7173
 6971TIP3    H242405   5.778   1.327   3.880  0.4055 -0.5781 -1.6054
 6972TIP3   OH242406   2.923   6.249  17.095  0.1958  1.4037 -0.6507
 6972TIP3    H142407   2.899   6.339  17.075 -2.9225  0.3860 -2.1074
 6972TIP3    H242408   2.840   6.200  17.092  1.8724 -1.7028 -1.0525
 6973TIP3   OH242409   3.897   1.289  15.772 -0.2151 -0.1677  0.8203
 6973TIP3    H142410   3.957   1.235  15.719 -0.5339  1.5424 -1.4175
 6973TIP3    H242411   3.949   1.365  15.797 -1.1834  1.0029 -0.5668
 6974TIP3   OH242412   0.441   2.445   1.798  0.6562 -0.0245  0.0559
 6974TIP3    H142413   0.480   2.516   1.748  0.6453  1.9894  2.7112
 6974TIP3    H242414   0.355   2.432   1.758  0.8277  1.1361 -0.7486
 6975TIP3   OH242415   5.431   1.626   6.217 -0.1375  0.5724  0.1105
 6975TIP3    H142416   5.468   1.699   6.266 -1.2441  0.8216  0.5982
 6975TIP3    H242417   5.458   1.643   6.126 -0.0156  1.3564  0.2822
 6976TIP3   OH242418   6.619   2.659   3.316 -0.7880  0.1321  0.4979
 6976TIP3    H142419   6.614   2.611   3.398  1.1879 -3.3701 -1.2120
 6976TIP3    H242420   6.580   2.600   3.251  1.5858  0.7928 -1.7154
 6977TIP3   OH242421   6.413   0.252  11.804 -0.3021 -0.2264  0.2063
 6977TIP3    H142422   6.465   0.288  11.876  1.1119 -1.9551  0.1162
 6977TIP3    H242423   6.463   0.273  11.725 -0.6212 -0.4164 -0.0477
 6978TIP3   OH242424   3.085   5.529   2.168 -0.1232 -0.1633 -0.4957
 6978TIP3    H142425   3.018   5.462   2.151 -1.3702  0.4961  1.4594
 6978TIP3    H242426   3.046   5.585   2.236  2.3038  0.4123  0.5335
 6979TIP3   OH242427   6.139   3.201  14.920  0.2020  0.3848 -0.6356
 6979TIP3    H142428   6.110   3.223  14.831 -0.7727 -1.4310 -0.8244
 6979TIP3    H242429   6.063   3.220  14.975 -0.7055 -2.2642 -0.8132
 6980TIP3   OH242430   5.935   1.108  14.282 -0.1271  0.3924 -0.3153
 6980TIP3    H142431   5.874   1.173  14.247 -1.0385 -0.0952  0.3454
 6980TIP3    H242432   5.880   1.035  14.310  0.5954  0.6072  1.7963
 6981TIP3   OH242433   4.233   1.505   5.049 -0.1144 -0.1398  0.2319
 6981TIP3    H142434   4.236   1.434   5.113  1.7053  0.1997  0.5752
 6981TIP3    H242435   4.322   1.541   5.048 -0.2278  0.2357 -2.0812
 6982TIP3   OH242436   1.230   3.211   2.915  0.0297 -0.3576 -0.0517
 6982TIP3    H142437   1.156   3.180   2.861  0.3150 -0.4890 -0.3718
 6982TIP3    H242438   1.227   3.306   2.908  1.7009 -0.4035 -2.5650
 6983TIP3   OH242439   2.254   4.883  11.724 -0.5754  0.2871 -0.3515
 6983TIP3    H142440   2.339   4.925  11.734 -0.0479 -0.3433 -1.8648
 6983TIP3    H242441   2.225   4.908  11.637 -0.5269 -1.9233 -1.0586
 6984TIP3   OH242442   5.571   2.286   5.164  0.1921  0.3286  0.0560
 6984TIP3    H142443   5.602   2.360   5.113 -1.1546  1.0163  0.1777
 6984TIP3    H242444   5.505   2.323   5.223  0.3867 -0.7588  1.0019
 6985TIP3   OH242445   3.665   2.450   3.058 -0.4501  0.1048 -0.0292
 6985TIP3    H142446   3.645   2.537   3.092  0.9956  0.8632 -1.0036
 6985TIP3    H242447   3.671   2.462   2.963 -0.4812 -1.1045 -0.2009
 6986TIP3   OH242448   0.659   5.518   1.980 -0.4119 -0.6801 -0.2351
 6986TIP3    H142449   0.743   5.557   2.002 -0.6190  1.5772 -2.8317
 6986TIP3    H242450   0.681   5.442   1.926 -0.0479 -0.6721 -0.0986
 6987TIP3   OH242451   2.991   5.670   0.622  0.5505  0.0718 -0.4342
 6987TIP3    H142452   2.925   5.717   0.570  0.6465  1.3520  0.5637
 6987TIP3    H242453   3.035   5.738   0.672  0.6125 -1.0963  1.1762
 6988TIP3   OH242454   5.199   6.254   2.738 -0.5974 -0.4756 -0.1140
 6988TIP3    H142455   5.247   6.220   2.663 -0.0725  1.8127 -0.9092
 6988TIP3    H242456   5.107   6.236   2.718 -0.3414 -1.5222 -0.3941
 6989TIP3   OH242457   2.448   3.289   4.972 -0.1252  0.4794  0.4963
 6989TIP3    H142458   2.396   3.226   5.022  0.2888 -0.3993 -0.1462
 6989TIP3    H242459   2.388   3.325   4.908  0.1675 -0.9529 -0.6157
 6990TIP3   OH242460   0.172   5.610   0.754  0.5572  0.3576 -0.5510
 6990TIP3    H142461   0.107   5.630   0.821 -0.9225 -1.4271 -1.3588
 6990TIP3    H242462   0.165   5.682   0.692 -0.3046  0.4616 -0.3557
 6991TIP3   OH242463   1.525   1.088  10.684 -0.2657 -0.5149  0.7772
 6991TIP3    H142464   1.579   1.115  10.611 -1.8442  2.8620  0.6610
 6991TIP3    H242465   1.558   1.002  10.708  3.5978  0.3667 -0.6639
 6992TIP3   OH242466   4.097   1.841   0.838 -0.2312  0.5482 -0.2312
 6992TIP3    H142467   4.089   1.801   0.925 -0.3618  0.4359 -0.2944
 6992TIP3    H242468   4.085   1.767   0.777 -1.5248  0.8530 -0.3717
 6993TIP3   OH242469   5.948   2.654   1.781  0.1197  0.5625  0.0494
 6993TIP3    H142470   5.934   2.601   1.859  0.3538  0.0454 -0.2603
 6993TIP3    H242471   6.042   2.672   1.779  0.1186  0.5536 -0.1285
 6994TIP3   OH242472   1.380   2.994   5.574  0.3341  0.3096  0.0453
 6994TIP3    H142473   1.366   3.088   5.562 -0.6181  0.3379  1.2648
 6994TIP3    H242474   1.379   2.981   5.669 -0.9717 -1.1251 -0.1255
 6995TIP3   OH242475   0.657   1.062  16.490 -0.2148  0.0449  0.0124
 6995TIP3    H142476   0.575   1.070  16.538 -0.7251 -0.4137 -0.7533
 6995TIP3    H242477   0.630   1.046  16.399  0.7114 -1.6785  0.0052
 6996TIP3   OH242478   3.188   6.295  12.932 -0.2986 -0.3651 -0.5106
 6996TIP3    H142479   3.129   6.220  12.937  0.1523 -0.6879  0.1563
 6996TIP3    H242480   3.266   6.263  12.887  0.1144 -0.4561  0.2537
 6997TIP3   OH242481   0.058   1.495  16.512 -0.1098  0.1251  0.2057
 6997TIP3    H142482   0.020   1.466  16.595 -0.7691 -0.9079 -0.4304
 6997TIP3    H242483   0.082   1.586  16.527 -0.0038 -0.1075  1.5991
 6998TIP3   OH242484   3.558   5.274   4.261  0.0874  0.3857 -0.4158
 6998TIP3    H142485   3.483   5.226   4.224 -0.8587  1.0138  0.6282
 6998TIP3    H242486   3.584   5.335   4.193  0.4651 -0.6832 -1.2628
 6999TIP3   OH242487   2.830   5.788  11.207  0.1165 -0.1519  0.3764
 6999TIP3    H142488   2.762   5.734  11.246  0.1496  0.0808  0.7606
 6999TIP3    H242489   2.812   5.877  11.238  0.9660 -0.1844  1.0228
 7000TIP3   OH242490   2.428   5.123   1.341 -0.3211 -0.0249  0.1078
 7000TIP3    H142491   2.446   5.215   1.363 -0.1980 -0.5272  2.3909
 7000TIP3    H242492   2.512   5.079   1.356 -0.3507 -0.5186 -1.0898
 7001TIP3   OH242493   6.818   5.929   2.185  0.6880  0.1841  0.3348
 7001TIP3    H142494   6.837   5.867   2.255  0.3758 -1.2357 -0.7826
 7001TIP3    H242495   6.902   5.939   2.139  0.5978  0.1098  0.1527
 7002TIP3   OH242496   4.331   4.289   4.172  0.3875 -0.4078  0.3548
 7002TIP3    H142497   4.239   4.265   4.159 -0.2966  2.3237 -0.6553
 7002TIP3    H242498   4.351   4.261   4.262 -0.9179 -2.3731  0.0986
 7003TIP3   OH242499   6.321   6.677  13.540 -0.0391  0.1088 -0.4940
 7003TIP3    H142500   6.304   6.718  13.624 -1.2420 -0.1615 -0.5923
 7003TIP3    H242501   6.240   6.631  13.518  0.4178 -0.2248 -1.5729
 7004TIP3   OH242502   6.069   4.379  13.533 -0.0675  0.1649 -0.1387
 7004TIP3    H142503   6.116   4.448  13.486 -0.1056 -0.3255 -0.9104
 7004TIP3    H242504   6.047   4.419  13.617  2.1685  0.2415  0.4821
 7005TIP3   OH242505   1.987   1.250  11.682  0.1249  0.2086 -0.3295
 7005TIP3    H142506   1.931   1.185  11.724 -0.7545  1.4946  0.5542
 7005TIP3    H242507   2.047   1.278  11.751 -1.0029  1.9684  0.0076
 7006TIP3   OH242508   3.150   2.653   5.077 -0.5696 -0.5260 -0.2840
 7006TIP3    H142509   3.201   2.733   5.071 -4.0242  1.9212 -0.1534
 7006TIP3    H242510   3.118   2.638   4.988 -1.2476 -0.7619 -0.0125
 7007TIP3   OH242511   0.277   4.375  10.939 -0.3103 -0.0349  0.4933
 7007TIP3    H142512   0.235   4.460  10.953 -2.3342 -0.9053  0.1548
 7007TIP3    H242513   0.289   4.370  10.844 -1.2852 -0.5812  0.3882
 7008TIP3   OH242514   5.245   6.086   3.235  0.5007  0.2708  0.1355
 7008TIP3    H142515   5.235   5.996   3.204 -0.0688  0.5200 -0.4253
 7008TIP3    H242516   5.224   6.140   3.159  1.8779  0.8832  0.1572
 7009TIP3   OH242517   3.496   5.677   1.246 -0.0944  0.1483  0.2790
 7009TIP3    H142518   3.485   5.605   1.184 -3.1391  0.1897  0.6147
 7009TIP3    H242519   3.430   5.662   1.313  0.9028  1.8975  1.7727
 7010TIP3   OH242520   3.149   5.261   1.869  0.3567  0.0270 -0.7521
 7010TIP3    H142521   3.149   5.204   1.792  2.6576  1.6530 -2.0861
 7010TIP3    H242522   3.240   5.262   1.899 -0.0273  1.3038  0.5353
 7011TIP3   OH242523   0.101   5.022  12.147 -0.3470 -0.1601  0.1332
 7011TIP3    H142524   0.029   5.037  12.207 -0.2997 -1.3234  0.5172
 7011TIP3    H242525   0.157   4.959  12.193 -1.9374 -3.7006 -2.3187
 7012TIP3   OH242526   3.247   4.891   1.415  0.1211  0.5450 -0.0956
 7012TIP3    H142527   3.313   4.949   1.377 -1.6121  2.7121  0.0278
 7012TIP3    H242528   3.285   4.864   1.499  1.2878  0.8654 -0.4942
 7013TIP3   OH242529   0.530   2.006   1.283 -0.1284 -0.5588 -0.8202
 7013TIP3    H142530   0.585   2.080   1.257  0.1139 -0.4167  0.0898
 7013TIP3    H242531   0.489   1.977   1.201 -0.6335  0.9120 -1.1226
 7014TIP3   OH242532   4.864   1.298   0.607  0.0988 -0.3771  0.2832
 7014TIP3    H142533   4.875   1.365   0.540  1.0253 -0.3505  0.4484
 7014TIP3    H242534   4.827   1.223   0.560 -0.7560  0.1784  0.0640
 7015TIP3   OH242535   1.181   1.851  13.898 -0.0501 -0.6599  0.5836
 7015TIP3    H142536   1.107   1.893  13.855 -0.4822 -1.6662  0.3149
 7015TIP3    H242537   1.202   1.775  13.842  0.7162 -0.7983  1.0372
 7016TIP3   OH242538   4.426   2.566   3.913 -0.0844 -1.2148 -0.0430
 7016TIP3    H142539   4.402   2.474   3.907  0.4719 -1.3486 -0.3042
 7016TIP3    H242540   4.411   2.589   4.005 -0.6174 -1.4485 -0.0683
 7017TIP3   OH242541   4.582   1.541   4.602  0.3479 -0.3047 -0.3268
 7017TIP3    H142542   4.606   1.601   4.531  2.2412  1.1251  1.3657
 7017TIP3    H242543   4.597   1.593   4.682  1.6285 -2.8557  1.2206
 7018TIP3   OH242544   1.839   4.287   2.485 -0.2346 -0.3140 -1.0299
 7018TIP3    H142545   1.782   4.329   2.549  1.9251 -0.5732  1.1934
 7018TIP3    H242546   1.791   4.209   2.457 -0.0821 -1.9181  2.6743
 7019TIP3   OH242547   5.023   0.519   6.479 -0.4519  0.0971 -0.7422
 7019TIP3    H142548   4.988   0.608   6.474 -0.8699 -0.0985 -1.2826
 7019TIP3    H242549   4.973   0.477   6.549  0.6008  0.6587  0.3968
 7020TIP3   OH242550   1.369   2.717   1.613 -0.7775  0.2090  0.0292
 7020TIP3    H142551   1.428   2.642   1.600  0.5465  1.5387 -2.7666
 7020TIP3    H242552   1.422   2.792   1.586 -2.6465  1.9424  0.9881
 7021TIP3   OH242553   2.889   2.192  14.128 -0.4418  0.1179  0.0723
 7021TIP3    H142554   2.911   2.285  14.118  0.1503  0.0668  0.8076
 7021TIP3    H242555   2.973   2.147  14.124 -0.7032 -0.3646 -0.0157
 7022TIP3   OH242556   4.198   0.093   1.018  0.3647 -0.0538  0.0063
 7022TIP3    H142557   4.266   0.148   1.056 -0.4349  0.4581  0.7358
 7022TIP3    H242558   4.136   0.077   1.089 -0.8210  0.3709 -0.8741
 7023TIP3   OH242559   0.206   4.414   1.718  0.3363  0.4190 -0.5626
 7023TIP3    H142560   0.136   4.366   1.761  0.8221  0.4837  0.3384
 7023TIP3    H242561   0.265   4.439   1.790  0.8011  1.1545 -1.1845
 7024TIP3   OH242562   6.623   4.906  12.123  0.4006  0.3024  0.6468
 7024TIP3    H142563   6.565   4.864  12.187  0.6251  0.5967  1.0527
 7024TIP3    H242564   6.648   4.988  12.165 -0.9766  1.4242 -0.6088
 7025TIP3   OH242565   5.492   1.638   2.982  0.1702  0.2254  0.7185
 7025TIP3    H142566   5.499   1.605   2.892 -1.3826  2.1244 -0.1924
 7025TIP3    H242567   5.403   1.675   2.987  1.0225  2.2783  2.2683
 7026TIP3   OH242568   2.302   4.457  15.269 -0.4628 -0.0024 -0.1070
 7026TIP3    H142569   2.356   4.389  15.310  0.0503  1.3042  1.4945
 7026TIP3    H242570   2.212   4.431  15.289 -0.2801 -0.3605  0.2850
 7027TIP3   OH242571   1.024   5.020  14.328  0.3229  0.3985  0.5500
 7027TIP3    H142572   1.081   5.095  14.346 -1.4999  1.6051  1.6185
 7027TIP3    H242573   0.935   5.054  14.339 -0.5606 -1.9973  1.4415
 7028TIP3   OH242574   2.231   4.253   2.296 -0.3632  0.0395 -0.3267
 7028TIP3    H142575   2.293   4.310   2.250 -0.8092 -0.2858 -1.3471
 7028TIP3    H242576   2.209   4.301   2.376  0.6500  0.4767 -0.2986
 7029TIP3   OH242577   3.753   3.166  15.948  0.1671 -0.5135  0.3004
 7029TIP3    H142578   3.696   3.240  15.931  0.8638 -0.1316 -0.5039
 7029TIP3    H242579   3.705   3.090  15.914 -0.4753 -0.4151  0.9764
 7030TIP3   OH242580   5.897   0.746  13.724  0.0680  0.4126 -0.0528
 7030TIP3    H142581   5.802   0.732  13.721  0.1442 -0.1947  0.1712
 7030TIP3    H242582   5.907   0.833  13.764 -0.4084  0.7899 -0.7329
 7031TIP3   OH242583   1.035   1.831  14.134  0.4580 -0.1680 -0.1646
 7031TIP3    H142584   1.105   1.850  14.071  0.6171  0.2628  0.1335
 7031TIP3    H242585   0.957   1.820  14.080  0.8764 -1.3549 -0.5569
 7032TIP3   OH242586   5.060   6.364  14.836 -0.0584  0.1539 -0.0655
 7032TIP3    H142587   4.979   6.326  14.803  0.2391 -1.1411  0.6371
 7032TIP3    H242588   5.079   6.316  14.916  1.2540  0.6327 -0.0506
 7033TIP3   OH242589   6.663   1.293  12.733 -0.6318  0.5611  0.0307
 7033TIP3    H142590   6.678   1.220  12.672 -3.1802  0.6280 -0.7728
 7033TIP3    H242591   6.625   1.362  12.680 -1.6549  1.1328  1.4325
 7034TIP3   OH242592   0.372   4.889   1.475  0.4239 -0.6232  0.2716
 7034TIP3    H142593   0.391   4.804   1.516 -0.1164 -1.3056 -0.8199
 7034TIP3    H242594   0.364   4.868   1.382 -0.8632  0.4418  0.1218
 7035TIP3   OH242595   5.064   3.469   5.944  0.1244 -0.1933  0.0606
 7035TIP3    H142596   5.004   3.451   6.017  0.2599 -2.0579 -0.2317
 7035TIP3    H242597   5.039   3.556   5.913 -0.6835  0.1674  1.6030
 7036TIP3   OH242598   2.908   4.704  14.262  0.8742  0.1255 -0.6365
 7036TIP3    H142599   2.872   4.741  14.343 -3.8573 -1.2698 -1.7469
 7036TIP3    H242600   2.936   4.616  14.286 -0.3701 -0.2308 -0.4151
 7037TIP3   OH242601   0.554   3.308  10.541 -0.0089 -0.3605  0.1537
 7037TIP3    H142602   0.484   3.359  10.498  2.5150  4.6211  1.1368
 7037TIP3    H242603   0.526   3.302  10.632 -0.5134 -1.2260 -0.0487
 7038TIP3   OH242604   4.089   0.632   1.740  0.5257 -0.1577 -0.1616
 7038TIP3    H142605   3.998   0.661   1.753  0.7671  0.3824  0.3617
 7038TIP3    H242606   4.128   0.636   1.828  0.8336 -1.1735 -0.2396
 7039TIP3   OH242607   2.764   3.946  15.036  0.4197  0.6428  0.4910
 7039TIP3    H142608   2.771   3.964  15.130 -1.0415 -0.1334  0.7728
 7039TIP3    H242609   2.735   4.030  14.999 -1.2601  0.3671  1.0810
 7040TIP3   OH242610   3.578   0.430   2.293 -0.6784  0.0058 -0.1999
 7040TIP3    H142611   3.619   0.346   2.273 -1.3739 -0.3504 -0.1719
 7040TIP3    H242612   3.520   0.411   2.367  0.7500  0.9709  1.2391
 7041TIP3   OH242613   1.423   5.149  13.981 -0.5083  0.0658  0.0824
 7041TIP3    H142614   1.416   5.139  13.886  1.3059 -0.1026 -0.0713
 7041TIP3    H242615   1.502   5.202  13.994 -0.1080 -0.8329  1.5220
 7042TIP3   OH242616   5.482   3.150   4.539 -0.0923  0.4823  0.0285
 7042TIP3    H142617   5.507   3.205   4.613 -0.2063  0.0102  0.4180
 7042TIP3    H242618   5.514   3.198   4.462  1.9455 -0.0444  0.4894
 7043TIP3   OH242619   2.095   5.496  10.595  0.7320  0.0212 -0.3450
 7043TIP3    H142620   2.063   5.566  10.538 -3.1220  1.0386  2.6456
 7043TIP3    H242621   2.047   5.418  10.565  2.1987 -0.5463 -1.3031
 7044TIP3   OH242622   1.325   0.523   1.225 -0.3307 -0.1380 -0.3689
 7044TIP3    H142623   1.388   0.558   1.162 -0.7593  0.8606 -0.2617
 7044TIP3    H242624   1.282   0.451   1.178 -0.1312  0.1237 -0.9590
 7045TIP3   OH242625   1.380   0.099   0.155  0.4766  0.0606  0.2341
 7045TIP3    H142626   1.365   0.109   0.249  2.9988  0.2678  0.6879
 7045TIP3    H242627   1.399   0.188   0.125 -1.0530  0.1168 -0.6741
 7046TIP3   OH242628   2.439   0.559  15.210  0.4418 -0.2112 -0.3534
 7046TIP3    H142629   2.388   0.626  15.165 -0.9744 -1.7535 -1.1732
 7046TIP3    H242630   2.432   0.581  15.303 -1.6100 -0.2644 -0.4610
 7047TIP3   OH242631   0.982   6.273  11.113 -0.4389 -0.0326  0.0715
 7047TIP3    H142632   0.938   6.194  11.143  0.2449 -0.1476  0.8193
 7047TIP3    H242633   1.048   6.290  11.180  0.8252 -0.0221 -1.1326
 7048TIP3   OH242634   3.313   5.101   5.673  0.0664  0.2071  0.2459
 7048TIP3    H142635   3.272   5.158   5.608 -0.3648 -0.5511 -0.1618
 7048TIP3    H242636   3.240   5.061   5.720  0.2689 -1.4989 -0.7855
 7049TIP3   OH242637   0.402   0.862  16.318 -0.0458  0.2971 -0.1687
 7049TIP3    H142638   0.364   0.900  16.239  0.7079  1.0661 -0.1663
 7049TIP3    H242639   0.423   0.772  16.294 -0.5848  0.2848 -0.5868
 7050TIP3   OH242640   2.396   3.874  13.566  0.3246  0.2232 -0.4312
 7050TIP3    H142641   2.307   3.858  13.597  0.4369  1.4073  0.5508
 7050TIP3    H242642   2.386   3.891  13.472 -0.2726 -1.2690 -0.6666
 7051TIP3   OH242643   1.010   3.274  16.472 -0.3542  0.6221 -0.4661
 7051TIP3    H142644   0.959   3.218  16.415  2.2796 -2.6035  0.0584
 7051TIP3    H242645   0.953   3.291  16.547 -1.8695  0.2457 -1.4914
 7052TIP3   OH242646   3.594   2.699  16.625 -0.5845 -0.2273  0.1414
 7052TIP3    H142647   3.663   2.676  16.688  0.1126  0.9689 -0.1633
 7052TIP3    H242648   3.517   2.716  16.679 -0.3122 -0.3428  0.5761
 7053TIP3   OH242649   4.848   3.621   0.282 -0.6867 -0.4674  0.1702
 7053TIP3    H142650   4.768   3.662   0.249 -1.0334  1.3703  2.9512
 7053TIP3    H242651   4.919   3.668   0.238 -1.1313 -0.1563 -0.2220
 7054TIP3   OH242652   6.650   4.967   5.737  0.0927 -0.1794 -0.6475
 7054TIP3    H142653   6.581   4.970   5.672 -0.0245  3.0494 -0.5237
 7054TIP3    H242654   6.605   4.948   5.819 -0.1803 -1.1747 -1.0174
 7055TIP3   OH242655   6.813   3.360  15.660 -0.2161  0.5151  0.0710
 7055TIP3    H142656   6.808   3.454  15.678  0.9581  0.5534  0.2586
 7055TIP3    H242657   6.756   3.320  15.726  0.1829  1.0254  0.7375
 7056TIP3   OH242658   3.688   4.226   4.491 -0.1755 -0.0523 -0.1153
 7056TIP3    H142659   3.612   4.264   4.446 -1.3722 -1.5352  0.5454
 7056TIP3    H242660   3.669   4.132   4.493  0.9461 -0.2770  1.4411
 7057TIP3   OH242661   5.396   3.791  16.316  0.3436 -0.7216  0.0646
 7057TIP3    H142662   5.420   3.846  16.390  0.1834 -1.2419  0.5109
 7057TIP3    H242663   5.302   3.773  16.329  0.2340 -0.5391 -0.4478
 7058TIP3   OH242664   6.160   2.508   5.922 -0.6101  0.3636  0.1684
 7058TIP3    H142665   6.114   2.457   5.989 -1.1859 -0.5088 -0.8750
 7058TIP3    H242666   6.106   2.500   5.844  0.6748  0.3600 -0.7451
 7059TIP3   OH242667   2.744   5.608   1.654 -0.7174 -0.1331  0.3571
 7059TIP3    H142668   2.754   5.571   1.566  0.9848 -1.0269  0.8871
 7059TIP3    H242669   2.816   5.571   1.705 -1.5738  0.4708  2.1150
 7060TIP3   OH242670   6.698   2.140  14.027  0.0836  0.1228  0.6753
 7060TIP3    H142671   6.747   2.077  13.975  1.1196  1.7440 -0.3876
 7060TIP3    H242672   6.745   2.146  14.110  0.6577  0.3478  0.3348
 7061TIP3   OH242673   4.835   4.912   1.088 -0.5330 -0.2108 -0.0406
 7061TIP3    H142674   4.816   4.931   1.180  0.6029 -1.0691  0.4005
 7061TIP3    H242675   4.920   4.952   1.072 -1.4899  1.4664 -1.2685
 7062TIP3   OH242676   0.846   1.136   4.492 -0.4448  0.3007 -0.5973
 7062TIP3    H142677   0.906   1.079   4.539 -1.1347 -0.1560 -0.2561
 7062TIP3    H242678   0.764   1.130   4.540 -0.6278  1.3270 -0.7453
 7063TIP3   OH242679   0.140   0.116  16.123  0.5089  0.1218 -0.0324
 7063TIP3    H142680   0.225   0.088  16.156  0.3526 -0.6940 -0.2896
 7063TIP3    H242681   0.160   0.190  16.065  0.8853  0.8524  1.0173
 7064TIP3   OH242682   2.355   2.508   3.629  0.1995 -0.1157  0.2314
 7064TIP3    H142683   2.434   2.456   3.618  0.6222  0.6621 -0.5838
 7064TIP3    H242684   2.333   2.501   3.722  1.9281  0.6381  0.7256
 7065TIP3   OH242685   2.344   1.748   4.118  0.2530  0.1863 -0.6486
 7065TIP3    H142686   2.253   1.774   4.105 -0.0586 -0.6254 -0.1552
 7065TIP3    H242687   2.387   1.772   4.036  0.1112  2.6393 -0.1012
 7066TIP3   OH242688   4.555   1.331  14.479 -0.3930  0.3691  0.6267
 7066TIP3    H142689   4.558   1.271  14.554 -1.1692  2.0749  2.1051
 7066TIP3    H242690   4.471   1.313  14.437 -0.9438  0.8567  1.4846
 7067TIP3   OH242691   4.219   5.637  14.959  0.0929 -0.5615  0.0687
 7067TIP3    H142692   4.245   5.722  14.925 -0.5303 -0.4973 -0.2533
 7067TIP3    H242693   4.187   5.655  15.048 -0.4787 -0.3860 -0.1680
 7068TIP3   OH242694   5.736   3.698   0.498  0.7386 -0.2281  0.8071
 7068TIP3    H142695   5.681   3.769   0.467 -0.9500 -1.7092  0.2512
 7068TIP3    H242696   5.811   3.741   0.538  0.0350  1.8332  0.0155
 7069TIP3   OH242697   0.000   0.366   1.799 -0.0926  0.0071 -0.3338
 7069TIP3    H142698  -0.048   0.331   1.874 -0.0301  0.9036  0.1296
 7069TIP3    H242699   0.059   0.294   1.773 -1.2550 -0.9006 -0.5622
 7070TIP3   OH242700   4.391   0.990   1.087 -0.2384 -0.5518  0.1218
 7070TIP3    H142701   4.464   0.958   1.141 -0.2385  0.8292  0.9785
 7070TIP3    H242702   4.397   1.085   1.091 -1.8255 -0.4070 -0.1705
 7071TIP3   OH242703   2.409   2.399   2.701  0.7302  0.3877  0.0607
 7071TIP3    H142704   2.340   2.337   2.678  0.7874  0.2665  0.2172
 7071TIP3    H242705   2.363   2.479   2.726  0.6561  0.3964 -0.1017
 7072TIP3   OH242706   5.598   5.711  15.050  0.0596  0.2432  0.4252
 7072TIP3    H142707   5.693   5.700  15.047  0.0100  0.1522 -1.4611
 7072TIP3    H242708   5.563   5.622  15.037 -0.2750  0.5610 -0.9664
 7073TIP3   OH242709   4.659   5.753   4.817  0.3972  0.0841  0.2052
 7073TIP3    H142710   4.753   5.734   4.823  0.7914  1.1738 -1.7031
 7073TIP3    H242711   4.622   5.677   4.772  0.7011  0.4048 -0.6221
 7074TIP3   OH242712   2.774   6.800   4.091  0.1637 -0.3791 -0.3106
 7074TIP3    H142713   2.790   6.733   4.158 -0.2126 -0.2244 -0.0588
 7074TIP3    H242714   2.860   6.816   4.052  0.2545 -1.0113 -0.3803
 7075TIP3   OH242715   3.336   2.182  15.636  0.1313  0.2143 -0.5138
 7075TIP3    H142716   3.248   2.171  15.671  0.7443 -1.1610  0.6783
 7075TIP3    H242717   3.392   2.133  15.695  2.2595  3.9243  0.9279
 7076TIP3   OH242718   6.465   1.691  13.120 -0.1332 -0.1571 -0.3668
 7076TIP3    H142719   6.527   1.644  13.064 -0.2720  0.1827 -0.8128
 7076TIP3    H242720   6.385   1.695  13.069 -0.6867 -1.0012  0.3876
 7077TIP3   OH242721   1.782   4.551   5.262 -0.0591 -0.6392  0.3707
 7077TIP3    H142722   1.727   4.511   5.194 -0.4901  0.5495 -0.0108
 7077TIP3    H242723   1.870   4.517   5.244  0.7520  2.7659 -3.5132
 7078TIP3   OH242724   1.494   5.855  16.145  0.2680 -0.4318 -0.0181
 7078TIP3    H142725   1.588   5.850  16.133  0.3401  0.8009 -0.0809
 7078TIP3    H242726   1.466   5.926  16.088 -0.8686 -1.5233 -0.8737
 7079TIP3   OH242727   5.474   6.360   4.914  0.8507 -0.4672 -0.3165
 7079TIP3    H142728   5.549   6.326   4.962 -0.0589 -1.6132  0.3377
 7079TIP3    H242729   5.438   6.429   4.970  0.7299 -0.7104 -0.0970
 7080TIP3   OH242730   4.084   5.897   5.850 -0.1215 -0.2413 -0.2667
 7080TIP3    H142731   4.098   5.882   5.944 -0.3377  0.4864 -0.1087
 7080TIP3    H242732   4.126   5.823   5.807  0.4461 -0.3079  0.3872
 7081TIP3   OH242733   2.700   5.613   4.801 -0.4657  0.0757  0.0072
 7081TIP3    H142734   2.613   5.603   4.839 -0.9175 -0.9690 -1.2429
 7081TIP3    H242735   2.721   5.526   4.767  1.8919 -0.2209  1.9520
 7082TIP3   OH242736   3.203   0.515   1.994 -0.6329  0.5358 -0.6845
 7082TIP3    H142737   3.158   0.587   1.949 -1.1313  0.5136 -0.2217
 7082TIP3    H242738   3.272   0.489   1.932 -0.1544  1.6976 -0.6838
 7083TIP3   OH242739   2.103   1.173  11.174 -0.4669  0.0414  0.1805
 7083TIP3    H142740   2.166   1.153  11.104 -0.5756 -1.4157  0.4697
 7083TIP3    H242741   2.139   1.250  11.217 -0.1917  0.7362 -1.2227
 7084TIP3   OH242742   4.159   6.219   0.591  0.7112 -0.1874  0.6149
 7084TIP3    H142743   4.232   6.194   0.534  0.3400  0.6210 -0.2471
 7084TIP3    H242744   4.201   6.262   0.665  1.1125  0.8726 -0.1864
 7085TIP3   OH242745   6.328   1.242  13.604  0.2607  0.2109 -0.0895
 7085TIP3    H142746   6.276   1.227  13.683 -0.7285  0.3273 -0.7011
 7085TIP3    H242747   6.269   1.223  13.532  0.3086  2.5856 -0.8670
 7086TIP3   OH242748   1.712   2.829   0.003  0.0147 -0.3301 -0.9332
 7086TIP3    H142749   1.675   2.910  -0.032 -0.2816 -0.3832 -0.7438
 7086TIP3    H242750   1.798   2.855   0.036  0.4343 -0.3447 -1.9832
 7087TIP3   OH242751   6.183   1.783   1.420 -0.0274 -0.8948 -0.1789
 7087TIP3    H142752   6.225   1.852   1.368 -0.2208 -0.8527 -0.2798
 7087TIP3    H242753   6.091   1.787   1.396 -0.3047 -0.1924  0.9176
 7088TIP3   OH242754   3.593   0.096   3.641  0.0777  0.2554  0.1524
 7088TIP3    H142755   3.577   0.017   3.589  0.2408 -0.5859  1.3442
 7088TIP3    H242756   3.685   0.118   3.623 -0.3774  1.0972 -1.3595
 7089TIP3   OH242757   1.754   4.933   0.910 -0.0043  0.1108 -0.1342
 7089TIP3    H142758   1.698   4.856   0.907 -0.1507  0.1912  0.4623
 7089TIP3    H242759   1.694   5.006   0.927  0.2563  0.2219  0.3306
 7090TIP3   OH242760   0.707   0.788  14.498 -0.0692  0.5265 -0.2100
 7090TIP3    H142761   0.784   0.732  14.489  0.5320  1.4188 -0.7380
 7090TIP3    H242762   0.725   0.863  14.442 -1.6325  0.4194 -0.9231
 7091TIP3   OH242763   6.523   3.720   2.125 -0.4639  0.4657 -0.2543
 7091TIP3    H142764   6.583   3.788   2.156 -1.6170  0.6527  1.7490
 7091TIP3    H242765   6.454   3.767   2.079  0.1547  0.3756 -1.3006
 7092TIP3   OH242766   5.807   5.217   5.666  0.3488  0.1824  0.0782
 7092TIP3    H142767   5.848   5.130   5.666 -0.1580 -0.0790  1.1134
 7092TIP3    H242768   5.880   5.278   5.669  0.7179 -0.2710  1.5833
 7093TIP3   OH242769   4.237   5.526  12.282 -0.0143 -0.0086  0.0194
 7093TIP3    H142770   4.281   5.580  12.348  1.2321  0.1701 -0.9226
 7093TIP3    H242771   4.151   5.565  12.273  0.9611  2.0961 -0.8875
 7094TIP3   OH242772   4.657   5.119  15.024  0.1346  0.0697 -0.3764
 7094TIP3    H142773   4.742   5.163  15.018 -0.4955  1.3388 -0.4313
 7094TIP3    H242774   4.593   5.190  15.018 -0.9041 -0.6609  1.3008
 7095TIP3   OH242775   0.964   5.292  15.682 -0.3260  0.0102 -0.2407
 7095TIP3    H142776   1.047   5.295  15.635  0.2317 -0.0831  0.7142
 7095TIP3    H242777   0.958   5.376  15.725 -0.8814  0.1294 -0.5413
 7096TIP3   OH242778   4.701   6.523  16.752 -0.1096 -0.0029 -0.0274
 7096TIP3    H142779   4.699   6.594  16.688 -0.5967 -0.7673 -0.8952
 7096TIP3    H242780   4.791   6.490  16.747 -0.1633 -0.1071 -0.3899
 7097TIP3   OH242781   2.514   5.513   0.470  0.0084 -0.0555 -0.0091
 7097TIP3    H142782   2.607   5.513   0.492  0.1622 -2.0688 -0.4205
 7097TIP3    H242783   2.470   5.518   0.555  0.5587 -1.9602  0.4435
 7098TIP3   OH242784   2.925   3.644   6.156  0.3639 -0.0318  0.4661
 7098TIP3    H142785   2.891   3.733   6.171 -0.1359  0.0621 -1.0196
 7098TIP3    H242786   2.868   3.609   6.087  1.6276 -0.8740 -0.1713
 7099TIP3   OH242787   1.973   4.788  15.172  0.1041 -0.1293  0.6011
 7099TIP3    H142788   1.984   4.829  15.086  0.9053 -1.3679  0.0940
 7099TIP3    H242789   1.953   4.862  15.231  2.4614  1.1740 -0.0844
 7100TIP3   OH242790   6.735   0.803   4.665 -0.7701 -0.0023 -0.5106
 7100TIP3    H142791   6.823   0.833   4.684 -0.0910 -0.5487 -2.5181
 7100TIP3    H242792   6.698   0.871   4.609 -1.3635 -0.1358 -0.2911
 7101TIP3   OH242793   2.326   0.820  14.847 -0.4100  0.1862 -0.1990
 7101TIP3    H142794   2.320   0.871  14.928  1.2231  0.1535 -0.0263
 7101TIP3    H242795   2.390   0.867  14.793 -1.5645  0.2839 -1.5575
 7102TIP3   OH242796   0.174   3.685   1.056 -0.3177 -0.3130 -0.6633
 7102TIP3    H142797   0.083   3.712   1.044 -0.5529  0.1734  1.7194
 7102TIP3    H242798   0.173   3.590   1.048 -1.0871 -0.3317 -0.3916
 7103TIP3   OH242799   5.071   5.407   5.441 -0.0536  0.0559 -0.2409
 7103TIP3    H142800   5.149   5.362   5.474 -1.0957  0.1764  2.6559
 7103TIP3    H242801   5.088   5.500   5.458 -1.0369  0.0300  1.0182
 7104TIP3   OH242802   1.064   4.058   4.288  0.8714  0.7158  0.2333
 7104TIP3    H142803   1.057   4.147   4.322 -0.5349  0.9929 -0.7072
 7104TIP3    H242804   1.139   4.061   4.228  0.7233  1.3277  0.0685
 7105TIP3   OH242805   1.185   4.448   5.940 -0.3580  0.5120 -0.6962
 7105TIP3    H142806   1.134   4.371   5.966 -0.1560  0.8771  0.8814
 7105TIP3    H242807   1.245   4.463   6.013 -1.3351  2.9874 -0.2839
 7106TIP3   OH242808   0.215   3.522   2.740 -0.1511  0.6328 -0.0869
 7106TIP3    H142809   0.282   3.517   2.672 -1.6776 -1.6486 -1.5610
 7106TIP3    H242810   0.260   3.496   2.820  0.6729 -1.5351 -1.1653
 7107TIP3   OH242811   5.405   1.356   6.252  0.3439 -0.0535 -0.1087
 7107TIP3    H142812   5.385   1.445   6.221  0.0902  0.2084  0.7873
 7107TIP3    H242813   5.494   1.340   6.222  0.2175  0.3150 -0.7014
 7108TIP3   OH242814   1.912   1.344  15.479  0.3278  0.1076 -0.0402
 7108TIP3    H142815   1.975   1.380  15.417 -0.6006  2.9457  0.5219
 7108TIP3    H242816   1.827   1.372  15.446 -0.3215  0.0560  1.4973
 7109TIP3   OH242817   3.735   0.450  12.058 -0.5358  0.8635  0.0761
 7109TIP3    H142818   3.759   0.450  11.965 -1.8952  2.9778 -0.3460
 7109TIP3    H242819   3.639   0.448  12.058 -0.7016 -4.2830  1.6241
 7110TIP3   OH242820   0.666   5.108   5.459 -0.4626 -0.6380  0.6592
 7110TIP3    H142821   0.599   5.123   5.392  0.2516  0.9966  0.2714
 7110TIP3    H242822   0.730   5.177   5.444  0.3371 -1.0043  2.2635
 7111TIP3   OH242823   2.379   3.332  16.426  0.3093  0.3064 -0.0641
 7111TIP3    H142824   2.354   3.348  16.517 -1.2640 -2.5758  0.1314
 7111TIP3    H242825   2.457   3.277  16.432  0.8004  0.9377 -0.5060
 7112TIP3   OH242826   0.246   6.337   0.903  0.6807 -0.0631 -0.7073
 7112TIP3    H142827   0.261   6.290   0.821  0.8882 -1.1359 -0.0667
 7112TIP3    H242828   0.178   6.287   0.948  0.0018  0.9643 -0.5627
 7113TIP3   OH242829   0.426   4.392  11.548 -0.9528  0.1525 -1.0177
 7113TIP3    H142830   0.497   4.390  11.611 -0.3690 -0.4652 -1.6715
 7113TIP3    H242831   0.358   4.446  11.589 -0.9027 -0.8499  0.4654
 7114TIP3   OH242832   4.563   2.976   3.749 -0.5400 -0.2664 -0.5948
 7114TIP3    H142833   4.578   2.940   3.662  1.1894  0.6688 -0.7455
 7114TIP3    H242834   4.651   2.985   3.786 -1.0296  1.8239  0.1914
 7115TIP3   OH242835   4.083   1.004  14.282 -0.3932  0.2182 -0.1083
 7115TIP3    H142836   4.030   0.991  14.203  0.5505 -0.9072 -0.5864
 7115TIP3    H242837   4.154   1.061  14.254  1.3645 -2.1725 -0.7955
 7116TIP3   OH242838   2.717   2.352  11.850  0.0393 -0.4717  0.0783
 7116TIP3    H142839   2.646   2.367  11.913 -0.9187 -1.3426 -0.7696
 7116TIP3    H242840   2.732   2.257  11.853 -0.5210 -0.6393 -1.5164
 7117TIP3   OH242841   0.423   4.574  10.755  0.1485  0.4960 -1.0162
 7117TIP3    H142842   0.356   4.623  10.802  0.8657  0.7066 -0.1851
 7117TIP3    H242843   0.379   4.542  10.676 -0.7366  1.1910 -0.8158
 7118TIP3   OH242844   4.679   4.994   4.945  0.2582  0.6282  0.1528
 7118TIP3    H142845   4.666   4.910   4.903 -0.1511  0.7053  0.1252
 7118TIP3    H242846   4.747   4.978   5.010  0.7712  0.4676 -0.4099
 7119TIP3   OH242847   2.956   2.907   5.971 -0.1074 -0.0987  0.1437
 7119TIP3    H142848   2.863   2.929   5.964  0.6008  2.9995 -1.5346
 7119TIP3    H242849   2.977   2.916   6.064 -1.0060  1.6783  0.2059
 7120TIP3   OH242850   2.000   6.032  16.379 -0.6097 -0.5950 -0.0549
 7120TIP3    H142851   1.965   6.061  16.463 -0.5094  0.4313 -0.3590
 7120TIP3    H242852   1.951   6.082  16.314 -1.0306 -1.7421 -0.6417
 7121TIP3   OH242853   0.398   3.454  11.533  0.6375 -0.5860 -0.3450
 7121TIP3    H142854   0.477   3.455  11.479  0.0794 -0.1037 -1.1866
 7121TIP3    H242855   0.340   3.518  11.492 -0.1319 -0.8162  0.3454
 7122TIP3   OH242856   6.568   6.378  13.068 -0.5476  0.3414 -0.4007
 7122TIP3    H142857   6.532   6.371  13.157 -0.6308  0.7547 -0.4025
 7122TIP3    H242858   6.661   6.394  13.081 -0.5357  0.2688 -0.3926
 7123TIP3   OH242859   1.288   4.164  16.264 -0.3384  0.1807 -0.1713
 7123TIP3    H142860   1.206   4.119  16.286 -0.0014  0.0875  0.9575
 7123TIP3    H242861   1.329   4.181  16.349 -0.0789  1.9285 -0.6173
 7124TIP3   OH242862   2.027   3.843   3.064 -0.7301 -0.4185 -0.3794
 7124TIP3    H142863   2.071   3.924   3.042  0.9798 -0.8019  1.3473
 7124TIP3    H242864   2.089   3.796   3.121 -2.6736 -1.7624  0.7749
 7125TIP3   OH242865   5.734   2.858  13.343  0.3077  0.2639 -0.5279
 7125TIP3    H142866   5.664   2.894  13.289  1.8473  1.7184 -1.6353
 7125TIP3    H242867   5.756   2.928  13.405 -0.4725 -0.8752  1.1094
 7126TIP3   OH242868   1.647   1.709  13.969 -0.4527  0.1834  0.0809
 7126TIP3    H142869   1.583   1.777  13.992  0.0686  0.2737  1.3423
 7126TIP3    H242870   1.618   1.631  14.016  0.2199  0.1540  0.4615
 7127TIP3   OH242871   3.806   4.499  11.006  0.2139 -0.7354  0.0763
 7127TIP3    H142872   3.848   4.414  11.023 -2.1174 -1.7673  1.2294
 7127TIP3    H242873   3.779   4.494  10.915  0.4928 -1.0454  0.0077
 7128TIP3   OH242874   2.405   0.187  13.320 -0.0784  0.0246 -0.3690
 7128TIP3    H142875   2.396   0.263  13.263  0.7054 -0.2097 -0.8198
 7128TIP3    H242876   2.317   0.173  13.355 -0.3832  0.6975 -0.8419
 7129TIP3   OH242877   2.511   5.228  13.886 -0.9759  0.0092  0.1035
 7129TIP3    H142878   2.445   5.296  13.873 -0.0488  0.6396 -1.5726
 7129TIP3    H242879   2.506   5.174  13.808  1.9311  1.3828 -1.1810
 7130TIP3   OH242880   2.510   3.800  11.711 -0.0823  0.2210  1.2105
 7130TIP3    H142881   2.545   3.881  11.674 -0.2744 -0.5148 -0.7033
 7130TIP3    H242882   2.587   3.746  11.727 -0.1237 -0.6113 -1.0694
 7131TIP3   OH242883   2.314   6.230  14.153 -0.2730  0.7464 -0.1588
 7131TIP3    H142884   2.229   6.241  14.196 -0.5388  1.5924 -0.8585
 7131TIP3    H242885   2.310   6.144  14.112 -0.0407 -0.0575  1.4021
 7132TIP3   OH242886   5.036   6.230   0.767  0.1822  0.1130  0.3008
 7132TIP3    H142887   5.122   6.271   0.761  1.0250 -1.5579  0.2954
 7132TIP3    H242888   5.014   6.206   0.677 -0.2443  0.4297  0.3163
 7133TIP3   OH242889   6.287   1.720  12.904  0.0702 -0.2185  0.5013
 7133TIP3    H142890   6.231   1.687  12.974  0.4230 -1.2831  0.3067
 7133TIP3    H242891   6.301   1.644  12.848 -1.2579  0.8961 -1.4514
 7134TIP3   OH242892   2.338   2.797  14.371  0.7231  0.4838  0.2657
 7134TIP3    H142893   2.324   2.734  14.301 -0.5837  1.7145 -0.6339
 7134TIP3    H242894   2.305   2.754  14.450 -0.9192  0.3175 -0.4720
 7135TIP3   OH242895   0.506   4.551   5.137  0.1943  0.2251  0.1929
 7135TIP3    H142896   0.474   4.501   5.212  0.4443 -1.5760 -0.8410
 7135TIP3    H242897   0.560   4.488   5.088  1.1789  1.7548 -0.7588
 7136TIP3   OH242898   4.225   5.318  14.181 -0.1680 -0.8196  0.1833
 7136TIP3    H142899   4.273   5.401  14.170 -1.8892 -0.0043 -2.2003
 7136TIP3    H242900   4.208   5.312  14.275 -1.0019  2.2224  0.3413
 7137TIP3   OH242901   1.983   3.885   2.788 -0.0221 -0.1723  0.1117
 7137TIP3    H142902   1.998   3.898   2.882 -0.9171  0.6888  0.1543
 7137TIP3    H242903   2.002   3.971   2.749  1.1502 -0.7381 -0.6143
 7138TIP3   OH242904   6.749   2.197  13.037 -0.0747  0.7382 -0.4914
 7138TIP3    H142905   6.829   2.150  13.059 -0.1878 -0.2037 -1.9208
 7138TIP3    H242906   6.772   2.249  12.960 -0.6599  0.9594 -0.5246
 7139TIP3   OH242907   2.290   4.774  14.476 -0.7534 -0.0291 -0.3086
 7139TIP3    H142908   2.301   4.706  14.542 -0.7602 -0.5508 -0.8397
 7139TIP3    H242909   2.230   4.736  14.411 -0.7204  0.4601 -0.6329
 7140TIP3   OH242910   1.786   4.957   4.358 -0.3250 -0.3065 -0.5052
 7140TIP3    H142911   1.836   4.879   4.384 -0.8036 -0.4110  0.1324
 7140TIP3    H242912   1.852   5.026   4.349 -0.1316 -0.2640  1.0375
 7141TIP3   OH242913   0.741   3.914  16.201  0.2654 -0.0933 -0.3172
 7141TIP3    H142914   0.778   3.918  16.290 -2.6636  0.6751  0.9948
 7141TIP3    H242915   0.761   3.826  16.171 -2.0539 -1.9363  2.8407
 7142TIP3   OH242916   5.314   5.268   5.503 -0.3790 -0.3084 -0.6300
 7142TIP3    H142917   5.385   5.227   5.453 -0.1021  0.4300 -0.8644
 7142TIP3    H242918   5.359   5.319   5.570 -0.6262  1.0046 -1.4294
 7143TIP3   OH242919   1.290   2.227  12.135 -0.0648  0.1342 -0.3639
 7143TIP3    H142920   1.199   2.203  12.120  0.2625 -1.6110  0.2212
 7143TIP3    H242921   1.340   2.161  12.087  0.8963  0.9149 -0.4588
 7144TIP3   OH242922   5.985   2.839   5.980 -0.1910 -0.1251 -0.5945
 7144TIP3    H142923   5.956   2.751   5.957  1.8956 -1.4093  1.3313
 7144TIP3    H242924   5.906   2.883   6.011 -1.1616 -1.5056 -1.0191
 7145TIP3   OH242925   1.856   6.630   0.640  0.3787 -0.1151 -0.0268
 7145TIP3    H142926   1.863   6.537   0.661 -2.0765 -0.4225 -0.2512
 7145TIP3    H242927   1.774   6.657   0.680  2.0230  2.5508  1.8844
 7146TIP3   OH242928   0.210   3.999   4.709  0.0422  0.4812  0.0410
 7146TIP3    H142929   0.293   4.028   4.670 -0.3223  1.0149 -0.3716
 7146TIP3    H242930   0.202   4.050   4.790  0.2910  0.1660  0.2608
 7147TIP3   OH242931   0.521   0.754   3.754  0.4188 -0.2298 -0.1514
 7147TIP3    H142932   0.539   0.834   3.803  1.2779 -0.3909 -0.1768
 7147TIP3    H242933   0.485   0.693   3.819 -0.7024  0.3210 -0.2345
 7148TIP3   OH242934   6.629   6.786   3.924  0.1982 -0.1352 -1.0094
 7148TIP3    H142935   6.665   6.871   3.948 -0.4500 -0.3663  0.9470
 7148TIP3    H242936   6.585   6.755   4.003  0.3122 -2.2397 -1.7015
 7149TIP3   OH242937   4.577   5.420  13.097 -0.1382 -0.4279  0.1613
 7149TIP3    H142938   4.665   5.432  13.134 -0.5320  0.6358  0.8195
 7149TIP3    H242939   4.559   5.327  13.109  0.2222 -0.3391  1.6240
 7150TIP3   OH242940   3.105   1.497   5.278 -0.2467 -0.1148  0.4622
 7150TIP3    H142941   3.173   1.537   5.223 -3.5503  1.4906 -2.9040
 7150TIP3    H242942   3.090   1.411   5.238 -1.6890  0.4773 -0.3211
 7151TIP3   OH242943   5.547   0.961  13.647  0.1375 -0.0759  0.6060
 7151TIP3    H142944   5.601   0.904  13.702  0.7817 -0.9412 -0.8755
 7151TIP3    H242945   5.608   1.024  13.610 -0.0135 -0.4729 -0.3409
 7152TIP3   OH242946   1.675   5.726   3.228  0.2268 -0.1827  0.0713
 7152TIP3    H142947   1.702   5.738   3.319  0.9621 -0.4603 -0.1009
 7152TIP3    H242948   1.757   5.729   3.179 -0.2601  1.1103 -0.7147
 7153TIP3   OH242949   2.885   6.392  12.133 -0.1477 -0.6721 -0.4738
 7153TIP3    H142950   2.929   6.462  12.182  0.8937 -1.5761 -0.0657
 7153TIP3    H242951   2.929   6.390  12.048  1.7195 -2.5255  0.4295
 7154TIP3   OH242952   1.820   4.116   3.751 -0.3938 -0.1217  0.3644
 7154TIP3    H142953   1.732   4.124   3.788 -1.1560 -1.9118 -0.8909
 7154TIP3    H242954   1.839   4.202   3.715 -2.5003 -0.1529 -1.0481
 7155TIP3   OH242955   6.425   1.216   2.331 -0.2449  0.2642 -0.1882
 7155TIP3    H142956   6.433   1.308   2.357 -0.0025 -0.0900  1.0271
 7155TIP3    H242957   6.457   1.214   2.241  2.1567  0.9562  0.5847
 7156TIP3   OH242958   2.939   1.392  11.061  0.5561 -0.2392 -0.0321
 7156TIP3    H142959   2.877   1.463  11.042  0.7626  0.0133  0.2407
 7156TIP3    H242960   3.025   1.432  11.052  0.7386 -0.9420 -1.8584
 7157TIP3   OH242961   0.746   1.324   5.281  0.8219  0.2924  0.0153
 7157TIP3    H142962   0.704   1.245   5.246 -0.4158  0.9048  0.0816
 7157TIP3    H242963   0.759   1.304   5.373 -0.3928  0.5169  0.2519
 7158TIP3   OH242964   0.390   5.332  14.143 -0.1352 -0.1679  0.0888
 7158TIP3    H142965   0.396   5.395  14.215 -0.8423 -0.1120  0.1060
 7158TIP3    H242966   0.313   5.360  14.094  0.6153  0.0868 -0.9740
 7159TIP3   OH242967   5.754   6.707   2.876  0.0726 -1.0670  0.2127
 7159TIP3    H142968   5.785   6.651   2.947  0.1508 -1.6176 -0.2518
 7159TIP3    H242969   5.811   6.784   2.879  1.7858 -2.2268 -0.8781
 7160TIP3   OH242970   3.514   0.908   0.966  0.6430  0.1890 -0.0713
 7160TIP3    H142971   3.509   0.999   0.940  0.9816 -0.3550 -2.2049
 7160TIP3    H242972   3.462   0.903   1.047  0.2130  2.1372 -0.1873
 7161TIP3   OH242973   3.581   6.455  14.369  0.2769  0.1507 -0.6149
 7161TIP3    H142974   3.564   6.493  14.283  0.4725  1.2137 -0.1930
 7161TIP3    H242975   3.625   6.372  14.350 -0.8335 -0.2570 -1.5710
 7162TIP3   OH242976   0.222   5.891  14.671  0.2691  0.1083  0.2277
 7162TIP3    H142977   0.163   5.898  14.597  2.4026 -2.5626 -1.9708
 7162TIP3    H242978   0.283   5.963  14.661  1.3208 -0.9497 -1.5156
 7163TIP3   OH242979   5.301   5.787   6.619 -0.1294  0.9056  0.1718
 7163TIP3    H142980   5.209   5.775   6.641 -0.9633  0.8745 -2.8708
 7163TIP3    H242981   5.328   5.864   6.670 -1.5361  0.4025  1.7662
 7164TIP3   OH242982   6.315   2.376  15.201  0.0264 -0.2499  0.3088
 7164TIP3    H142983   6.373   2.451  15.187 -0.7479  0.3113  0.0359
 7164TIP3    H242984   6.320   2.326  15.119 -2.8529  1.8975 -1.3389
 7165TIP3   OH242985   4.929   6.441  16.432  0.2352 -0.3420  0.0496
 7165TIP3    H142986   4.923   6.412  16.524  0.3016 -0.7357 -0.0686
 7165TIP3    H242987   4.920   6.536  16.437  1.3730 -0.2405  0.5692
 7166TIP3   OH242988   0.853   5.597   2.775 -0.2075 -1.3206 -0.0664
 7166TIP3    H142989   0.867   5.657   2.701  0.3506 -2.5361 -0.9877
 7166TIP3    H242990   0.768   5.558   2.757 -0.2403 -1.3369  0.1326
 7167TIP3   OH242991   3.838   1.767   0.278  0.8042 -0.0267  0.7013
 7167TIP3    H142992   3.845   1.797   0.369  0.5696  2.6739 -0.1116
 7167TIP3    H242993   3.746   1.739   0.269  0.6804  0.2382  1.1196
 7168TIP3   OH242994   4.958   6.159   1.939 -0.5799 -0.1077 -0.2290
 7168TIP3    H142995   4.983   6.072   1.970  1.5388  1.0762  1.7315
 7168TIP3    H242996   4.992   6.219   2.006 -2.4667  2.2179 -1.2108
 7169TIP3   OH242997   2.960   4.144  13.342  0.1078  0.1549  0.2893
 7169TIP3    H142998   3.051   4.154  13.369 -0.2842 -0.4700  1.9803
 7169TIP3    H242999   2.909   4.179  13.415 -1.0262  0.5513 -0.6536
 7170TIP3   OH243000   6.309   0.571  16.752 -0.5167  0.4852  0.1310
 7170TIP3    H143001   6.255   0.501  16.787 -1.0351  1.2808  0.9642
 7170TIP3    H243002   6.362   0.600  16.826  0.4026  0.3376 -0.4467
 7171TIP3   OH243003   3.267   6.783   4.368 -0.1736  0.0080 -0.0807
 7171TIP3    H143004   3.356   6.753   4.386 -0.6875 -0.9108  1.0998
 7171TIP3    H243005   3.211   6.717   4.410 -1.4363 -0.0475 -1.7587
 7172TIP3   OH243006   5.770   5.845   3.639 -0.5697  0.6604 -1.1437
 7172TIP3    H143007   5.711   5.862   3.713 -1.0755  0.8881 -1.5879
 7172TIP3    H243008   5.855   5.826   3.679 -1.1534 -0.6237 -0.4459
 7173TIP3   OH243009   0.065   3.081  12.447 -0.4342  0.3507 -0.0084
 7173TIP3    H143010   0.142   3.134  12.471  0.8610 -1.8967  1.1183
 7173TIP3    H243011  -0.010   3.137  12.469  0.7728  3.0961 -2.2302
 7174TIP3   OH243012   4.505   5.081  11.765 -0.0819 -0.4443 -0.2506
 7174TIP3    H143013   4.475   5.064  11.675  2.7379 -0.3775 -1.2998
 7174TIP3    H243014   4.554   5.002  11.789  0.8923  0.3350  0.4175
 7175TIP3   OH243015   3.123   6.759  11.694 -0.2636  0.1394  0.0271
 7175TIP3    H143016   3.091   6.674  11.665 -1.6854  0.4142  0.6906
 7175TIP3    H243017   3.051   6.820  11.675  0.3797  1.0329  0.3535
 7176TIP3   OH243018   0.027   3.193   2.571  0.4564  0.3131 -0.5951
 7176TIP3    H143019   0.026   3.160   2.481 -0.9296  0.4572 -0.6434
 7176TIP3    H243020  -0.020   3.276   2.567  1.1979  0.7852  0.1037
 7177TIP3   OH243021   1.346   4.655  16.849  0.3722 -0.3777  0.2142
 7177TIP3    H143022   1.298   4.735  16.870 -1.0321 -1.1349 -0.0114
 7177TIP3    H243023   1.438   4.679  16.858 -0.0411  1.1155  0.6561
 7178TIP3   OH243024   1.195   3.356   4.068  0.4793  0.0406  0.3994
 7178TIP3    H143025   1.185   3.289   4.001 -0.4034  0.0371  0.5194
 7178TIP3    H243026   1.147   3.432   4.034 -3.2385 -1.0856  2.5171
 7179TIP3   OH243027   3.884   3.972  16.255  0.3458  0.1304  0.5341
 7179TIP3    H143028   3.923   4.055  16.283  1.8191 -0.2641 -0.2670
 7179TIP3    H243029   3.958   3.912  16.247 -0.8462 -1.8040  2.7876
 7180TIP3   OH243030   5.720   2.425  13.594 -0.7470 -0.2165 -0.6495
 7180TIP3    H143031   5.694   2.468  13.512 -0.1474 -0.8625 -1.1931
 7180TIP3    H243032   5.813   2.447  13.603 -0.9506  0.3266  0.1667
 7181TIP3   OH243033   1.016   5.879  16.791  0.1971 -0.3324 -0.1258
 7181TIP3    H143034   0.960   5.944  16.749  0.3094 -0.1624 -0.0152
 7181TIP3    H243035   1.059   5.927  16.862  0.6342 -0.4106 -0.3370
 7182TIP3   OH243036   2.357   1.738   0.461 -0.4273  1.3612  0.6523
 7182TIP3    H143037   2.333   1.678   0.390 -1.4994 -0.0020  2.0822
 7182TIP3    H243038   2.452   1.740   0.461 -0.4078  0.7526 -0.3107
 7183TIP3   OH243039   3.542   0.628  14.228 -0.4788  0.2903 -0.1196
 7183TIP3    H143040   3.587   0.712  14.219  1.8391 -0.3699  3.2947
 7183TIP3    H243041   3.599   0.565  14.183  0.0272  0.0046  0.8898
 7184TIP3   OH243042   4.911   3.810   2.754  0.3109 -0.1641 -0.1951
 7184TIP3    H143043   4.933   3.718   2.745  2.9946  0.4817 -1.1203
 7184TIP3    H243044   4.833   3.822   2.701 -0.8406 -2.1011  0.9537
 7185TIP3   OH243045   1.157   5.457  13.787  0.1409 -0.1338  0.6928
 7185TIP3    H143046   1.219   5.512  13.740 -1.0065  1.5686  1.1075
 7185TIP3    H243047   1.194   5.451  13.876 -0.1807  0.7206  0.8895
 7186TIP3   OH243048   0.588   1.141  16.189  0.4978 -0.3460  0.1407
 7186TIP3    H143049   0.502   1.146  16.149 -0.2309  1.4816  1.7669
 7186TIP3    H243050   0.649   1.150  16.116 -0.7440  0.7255 -0.8109
 7187TIP3   OH243051   6.790   5.483   0.101 -0.2406 -0.0127 -1.0624
 7187TIP3    H143052   6.724   5.413   0.107  0.2259 -0.4278 -0.6372
 7187TIP3    H243053   6.808   5.506   0.192  0.4965 -0.1923 -1.1553
 7188TIP3   OH243054   2.259   2.093   0.295 -0.1575 -0.2859  0.0807
 7188TIP3    H143055   2.352   2.071   0.300 -0.0890 -0.2895 -1.0012
 7188TIP3    H243056   2.216   2.011   0.273 -0.2257  0.0459 -1.0666
 7189TIP3   OH243057   0.202   0.467  15.122 -0.2735 -0.2928 -0.1625
 7189TIP3    H143058   0.296   0.463  15.101 -0.1064  1.0798  0.2388
 7189TIP3    H243059   0.196   0.436  15.212 -0.1576 -0.0348 -0.0661
 7190TIP3   OH243060   4.304   0.749   6.194  0.4334  0.0050  0.1853
 7190TIP3    H143061   4.300   0.694   6.273 -0.9682  0.6447  0.5722
 7190TIP3    H243062   4.317   0.838   6.227 -1.1074  0.4090 -0.2303
 7191TIP3   OH243063   3.078   1.526  17.101 -0.2661  0.0114  0.2168
 7191TIP3    H143064   3.030   1.574  17.168  0.4298  1.1812 -0.1060
 7191TIP3    H243065   3.126   1.593  17.052  0.7252 -1.0004 -0.2496
 7192TIP3   OH243066   5.887   5.276   2.062  0.2437 -0.5511 -0.4082
 7192TIP3    H143067   5.874   5.329   1.983  2.2049 -0.7579 -0.9206
 7192TIP3    H243068   5.973   5.236   2.050  0.5218 -0.7044  1.7794
 7193TIP3   OH243069   4.605   0.019   5.799 -0.1197 -0.5248 -0.4024
 7193TIP3    H143070   4.589   0.110   5.821 -1.2734 -0.6940 -0.4849
 7193TIP3    H243071   4.695   0.017   5.766  0.2315  0.4182  0.4630
 7194TIP3   OH243072   0.704   4.804  10.960 -0.5095 -0.1792 -0.0626
 7194TIP3    H143073   0.775   4.816  10.896 -1.3732  1.6295 -0.7532
 7194TIP3    H243074   0.693   4.709  10.965  1.0049 -0.4485 -0.9994
 7195TIP3   OH243075   1.323   2.222   4.557 -0.3476 -0.1553  0.7829
 7195TIP3    H143076   1.322   2.262   4.470  2.8039  0.4866  0.9152
 7195TIP3    H243077   1.262   2.149   4.551 -1.2046  0.6625 -1.5343
 7196TIP3   OH243078   4.927   6.172   4.425 -0.6618  0.1220  0.5736
 7196TIP3    H143079   4.866   6.198   4.356 -0.8302  0.8944  1.0011
 7196TIP3    H243080   4.901   6.083   4.448 -1.8917  0.5779  1.0203
 7197TIP3   OH243081   0.487   0.042  15.964  0.0331 -0.2383 -0.4841
 7197TIP3    H143082   0.550   0.028  15.893 -0.8313 -0.3804 -1.2394
 7197TIP3    H243083   0.459  -0.046  15.989 -1.4726 -0.1378 -1.6508
 7198TIP3   OH243084   1.261   5.991  15.193 -0.0887 -0.2651  0.5177
 7198TIP3    H143085   1.314   5.920  15.229  0.3124  0.5231  1.5334
 7198TIP3    H243086   1.175   5.980  15.235 -0.1360 -0.3738  0.3914
 7199TIP3   OH243087   0.773   2.452  13.979 -0.6309  0.1084 -0.1203
 7199TIP3    H143088   0.738   2.541  13.974  1.1090  0.9956  1.9278
 7199TIP3    H243089   0.768   2.430  14.073 -0.0968 -1.5669 -0.4497
 7200TIP3   OH243090   3.265   4.818   0.895 -0.2785  0.6240  0.2352
 7200TIP3    H143091   3.341   4.875   0.884  0.1121  0.0850  0.0880
 7200TIP3    H243092   3.259   4.769   0.813 -0.6056  0.4514  0.3566
 7201TIP3   OH243093   4.824   4.887  10.669 -0.4259  0.0866 -0.5263
 7201TIP3    H143094   4.828   4.794  10.647  0.7091 -0.2228  0.7960
 7201TIP3    H243095   4.736   4.915  10.645  0.2123 -0.4951 -3.9925
 7202TIP3   OH243096   2.539   3.693   2.584  0.0947  0.3766 -0.2402
 7202TIP3    H143097   2.474   3.651   2.640  1.3934 -0.7030  0.5292
 7202TIP3    H243098   2.500   3.777   2.560 -1.7528 -0.4339 -0.2016
 7203TIP3   OH243099   0.524   3.591   0.381  0.1759 -0.3010 -0.0150
 7203TIP3    H143100   0.574   3.668   0.354 -0.1838  0.0814  0.3815
 7203TIP3    H243101   0.495   3.551   0.299 -1.2171  1.0547 -0.2469
 7204TIP3   OH243102   1.254   4.516   4.513  0.1325  0.0704 -0.1317
 7204TIP3    H143103   1.313   4.533   4.439  0.0194  0.9239 -0.0421
 7204TIP3    H243104   1.291   4.440   4.556  2.6187  1.9492  1.3197
 7205TIP3   OH243105   5.805   0.745   2.551  0.6957 -0.1143  0.0799
 7205TIP3    H143106   5.879   0.802   2.569  0.5883  0.0255  0.0763
 7205TIP3    H243107   5.736   0.803   2.520 -0.1353  0.0412  2.0581
 7206TIP3   OH243108   2.705   2.288  12.698 -0.7876  0.0763 -0.1219
 7206TIP3    H143109   2.752   2.366  12.727 -1.6169  1.5581 -2.5083
 7206TIP3    H243110   2.638   2.274  12.764  0.1134  0.6352  0.9528
 7207TIP3   OH243111   1.821   6.718  13.467 -0.0464 -0.4795  0.1123
 7207TIP3    H143112   1.767   6.751  13.396  0.5720 -0.5785 -0.4146
 7207TIP3    H243113   1.808   6.623  13.465 -0.4782 -0.4362  0.5151
 7208TIP3   OH243114   5.157   0.099   2.856  0.3240 -0.1944 -0.4379
 7208TIP3    H143115   5.160   0.191   2.830  0.3459 -0.8048 -2.8348
 7208TIP3    H243116   5.125   0.100   2.947 -1.9972  2.0452 -1.1758
 7209TIP3   OH243117   6.074   3.009   5.558  0.1976 -0.0597 -0.0774
 7209TIP3    H143118   6.146   3.024   5.497  0.7617  0.0872  0.6085
 7209TIP3    H243119   6.004   2.973   5.504  1.0186 -0.8566 -0.6530
 7210TIP3   OH243120   2.064   3.601  14.599 -0.4846  0.2232  0.3729
 7210TIP3    H143121   2.010   3.677  14.579  0.1816  0.9076  1.0793
 7210TIP3    H243122   2.023   3.528  14.552  0.8348  1.6348 -3.3246
 7211TIP3   OH243123   0.912   3.975  15.522  0.1039 -0.6860  0.2821
 7211TIP3    H143124   0.865   4.014  15.595 -0.7775 -2.0081  0.4541
 7211TIP3    H243125   1.004   3.994  15.539 -0.2713  1.1483  0.4224
 7212TIP3   OH243126   2.748   5.587   3.012  0.2943  0.0048 -0.3511
 7212TIP3    H143127   2.725   5.591   3.105 -0.0734  0.4903 -0.4550
 7212TIP3    H243128   2.767   5.678   2.989  3.0051 -0.4138 -0.1211
 7213TIP3   OH243129   0.046   1.825  13.087 -0.6685  0.5543 -0.2176
 7213TIP3    H143130   0.119   1.884  13.103 -1.9197  2.4417 -1.0543
 7213TIP3    H243131  -0.001   1.821  13.171 -0.6949  0.9575 -0.2084
 7214TIP3   OH243132   2.193   3.317   0.498  0.0027 -0.2127  0.5069
 7214TIP3    H143133   2.115   3.338   0.446  0.2838 -1.0526 -0.2764
 7214TIP3    H243134   2.158   3.282   0.580 -0.4474  1.4434  1.0695
 7215TIP3   OH243135   0.185   2.840  10.540 -0.2654 -0.1478  0.2118
 7215TIP3    H143136   0.151   2.886  10.617 -0.7291 -1.1485  0.6255
 7215TIP3    H243137   0.170   2.748  10.559  1.2128 -0.5254 -0.3202
 7216TIP3   OH243138   5.325   0.941   5.194 -0.2499  0.3394 -0.3564
 7216TIP3    H143139   5.304   1.015   5.136 -0.4066  1.4814  1.0810
 7216TIP3    H243140   5.246   0.887   5.193 -0.7012  0.9847 -0.2907
 7217TIP3   OH243141   1.100   4.612  14.995 -0.4900 -0.2431 -0.0238
 7217TIP3    H143142   1.168   4.544  14.993 -0.7954 -0.5463 -0.1957
 7217TIP3    H243143   1.109   4.657  14.911  1.0047  1.2238  0.8684
 7218TIP3   OH243144   0.726   4.315   4.629  0.9800  0.1767  0.0585
 7218TIP3    H143145   0.734   4.387   4.691 -1.9556 -1.4591  2.5835
 7218TIP3    H243146   0.783   4.246   4.664 -0.7269 -0.7718  1.0880
 7219TIP3   OH243147   0.338   2.914  17.071 -0.0075 -0.1213  0.3159
 7219TIP3    H143148   0.277   2.939  17.141 -0.2327 -0.4822  0.2518
 7219TIP3    H243149   0.337   2.988  17.011 -2.7093 -1.2795 -1.2616
 7220TIP3   OH243150   2.120   1.590  13.452  0.4359 -0.3080 -0.0753
 7220TIP3    H143151   2.152   1.527  13.388 -1.6537 -2.4220  0.7932
 7220TIP3    H243152   2.030   1.609  13.424  0.6640  1.5010  0.2962
 7221TIP3   OH243153   2.223   2.376   3.027 -0.1057 -0.0167  0.2120
 7221TIP3    H143154   2.154   2.434   2.994 -0.6218 -0.1453  1.0396
 7221TIP3    H243155   2.190   2.345   3.111  0.9528 -0.1040  0.6113
 7222TIP3   OH243156   4.775   3.832  15.226  0.8368 -0.1521  0.8408
 7222TIP3    H143157   4.753   3.834  15.319  3.1288 -0.3013  1.4344
 7222TIP3    H243158   4.856   3.781  15.221  0.1037 -1.2081 -1.4004
 7223TIP3   OH243159   6.214   3.668  13.310  0.0177  0.2308  0.8913
 7223TIP3    H143160   6.244   3.646  13.222  0.7116  1.0423  0.9099
 7223TIP3    H243161   6.284   3.722  13.347 -1.5492  2.4202  0.8596
 7224TIP3   OH243162   1.351   3.396  10.807 -0.0919 -0.3258 -0.3980
 7224TIP3    H143163   1.307   3.477  10.834 -1.5055 -1.9366  2.7018
 7224TIP3    H243164   1.427   3.389  10.865  0.1566 -1.1064 -0.8004
 7225TIP3   OH243165   2.467   6.817  11.606  0.3513 -0.5233 -0.2117
 7225TIP3    H143166   2.546   6.854  11.567 -0.8251 -1.2457 -3.6748
 7225TIP3    H243167   2.467   6.725  11.578 -2.0749 -0.3269 -1.1858
 7226TIP3   OH243168   6.578   1.850  12.569  0.3802  0.1525 -0.2511
 7226TIP3    H143169   6.623   1.921  12.524 -0.1729  0.2318 -0.6883
 7226TIP3    H243170   6.487   1.879  12.576  0.6822  0.7049  2.0735
 7227TIP3   OH243171   5.867   1.778   0.161 -0.4978 -0.1153 -0.0925
 7227TIP3    H143172   5.937   1.843   0.159 -0.5698 -0.0530 -0.7922
 7227TIP3    H243173   5.848   1.765   0.254  0.7324 -0.4527  0.1275
 7228TIP3   OH243174   3.388   0.931   1.209  0.4525  0.5725  0.0960
 7228TIP3    H143175   3.415   0.857   1.263 -1.9392  0.5777  1.4515
 7228TIP3    H243176   3.399   1.007   1.266 -1.3109  0.6763  0.3480
 7229TIP3   OH243177   5.952   1.762   4.647  0.5708 -0.0511 -0.5337
 7229TIP3    H143178   6.007   1.706   4.701  0.4139 -0.0985 -0.4226
 7229TIP3    H243179   5.977   1.741   4.557 -1.5416 -2.5110 -0.6852
 7230TIP3   OH243180   1.835   3.052   1.263  0.4277  0.2877  0.0098
 7230TIP3    H143181   1.820   3.134   1.310  0.7359 -0.7295  1.9397
 7230TIP3    H243182   1.755   3.038   1.213 -0.9770  0.1346  2.2007
 7231TIP3   OH243183   0.689   4.087  16.987 -0.0550 -0.0849  0.5313
 7231TIP3    H143184   0.611   4.044  17.023 -0.7289  2.1783  2.0153
 7231TIP3    H243185   0.666   4.180  16.986  2.1623  0.5174 -0.2703
 7232TIP3   OH243186   2.546   6.045  16.900  0.5691 -0.4115 -0.4694
 7232TIP3    H143187   2.637   6.018  16.890  2.2043  2.8617  2.9752
 7232TIP3    H243188   2.542   6.132  16.860 -1.1238 -0.5560 -0.7202
 7233TIP3   OH243189   3.710   4.345   2.146  0.0976 -0.4701  0.1594
 7233TIP3    H143190   3.618   4.366   2.136  0.1506 -0.3798 -0.1541
 7233TIP3    H243191   3.755   4.428   2.132  0.1982 -0.4101  0.8115
 7234TIP3   OH243192   4.801   2.117   3.045  0.2651 -0.1805 -0.1990
 7234TIP3    H143193   4.717   2.109   3.091  0.7001  0.9935  0.8560
 7234TIP3    H243194   4.791   2.062   2.967 -1.6227  0.2549 -0.3117
 7235TIP3   OH243195   5.830   2.832   0.814 -0.7968 -0.3197 -0.2334
 7235TIP3    H143196   5.861   2.837   0.904 -1.3206 -0.0744 -0.0641
 7235TIP3    H243197   5.788   2.916   0.798  3.2362  1.6189 -2.2231
 7236TIP3   OH243198   6.186   5.700   1.730  0.1791  0.8170 -0.0474
 7236TIP3    H143199   6.168   5.658   1.646 -0.2167  1.6738 -0.4004
 7236TIP3    H243200   6.137   5.782   1.727  1.3899  1.5870  0.3924
 7237TIP3   OH243201   4.608   3.378  12.877  0.1527 -0.0666 -0.5110
 7237TIP3    H143202   4.609   3.403  12.969  0.7949 -0.3776 -0.4286
 7237TIP3    H243203   4.685   3.323  12.866 -1.2310 -2.0607 -0.6877
 7238TIP3   OH243204   0.218   0.500  12.506 -0.1024 -0.0499 -0.6910
 7238TIP3    H143205   0.124   0.485  12.513 -0.1658  0.8361  0.8396
 7238TIP3    H243206   0.229   0.543  12.421 -1.1411  0.2721 -0.6799
 7239TIP3   OH243207   3.433   3.330  12.113  1.4679  0.1523  0.0706
 7239TIP3    H143208   3.459   3.404  12.168 -0.8311  0.5118  0.7594
 7239TIP3    H243209   3.512   3.310  12.062  3.3828  0.4988  2.6706
 7240TIP3   OH243210   3.597   1.288  11.653  0.0826  0.3332  0.5143
 7240TIP3    H143211   3.560   1.357  11.708  0.3691  0.9106 -0.0018
 7240TIP3    H243212   3.684   1.320  11.630 -0.0930  0.1811 -0.3981
 7241TIP3   OH243213   3.931   4.774   3.357 -0.3290  0.4357  0.2033
 7241TIP3    H143214   3.964   4.710   3.293  0.0955 -0.1006  0.9429
 7241TIP3    H243215   3.845   4.799   3.323 -0.3750 -0.3012 -0.2619
 7242TIP3   OH243216   4.207   2.177   0.967 -0.0545 -0.1653  0.1883
 7242TIP3    H143217   4.189   2.147   1.056  1.2226 -1.2938  0.1053
 7242TIP3    H243218   4.197   2.272   0.971 -0.8927 -0.2811  1.3051
 7243TIP3   OH243219   6.247   5.959   6.017 -0.1248 -0.1094  0.0600
 7243TIP3    H143220   6.198   5.886   6.054  0.2865 -0.2438  0.3454
 7243TIP3    H243221   6.338   5.929   6.017 -0.1866 -0.3720 -1.6808
 7244TIP3   OH243222   1.812   4.815  13.745  0.5178  0.1906 -0.1013
 7244TIP3    H143223   1.901   4.792  13.718 -0.6627 -3.8833 -1.4212
 7244TIP3    H243224   1.805   4.784  13.835  0.7156  1.6372  0.4365
 7245TIP3   OH243225   4.139   3.766  12.820 -0.0879 -0.3895  0.3433
 7245TIP3    H143226   4.077   3.808  12.760  0.3383  0.3580  0.4163
 7245TIP3    H243227   4.198   3.717  12.762  0.3516  0.3671  0.1435
 7246TIP3   OH243228   0.516   4.838   5.254  0.3486  0.0540  0.3038
 7246TIP3    H143229   0.504   4.795   5.169  0.2945  1.9557 -0.7076
 7246TIP3    H243230   0.610   4.857   5.258  0.3466 -0.0094  0.6581
 7247TIP3   OH243231   5.455   3.227  16.600  1.0221 -0.6075 -0.1389
 7247TIP3    H143232   5.505   3.244  16.681 -1.2190  1.2187  0.9954
 7247TIP3    H243233   5.465   3.134  16.584  1.9498 -0.9280  1.9852
 7248TIP3   OH243234   1.778   2.509  16.721  0.1195  0.1484  0.0716
 7248TIP3    H143235   1.685   2.493  16.734  0.0979  0.7825  0.7801
 7248TIP3    H243236   1.783   2.594  16.678  0.3772  0.2944  0.3813
 7249TIP3   OH243237   2.443   4.266  16.507 -0.0732  0.2910  0.3405
 7249TIP3    H143238   2.392   4.235  16.432  0.4383  2.9817 -1.2761
 7249TIP3    H243239   2.531   4.278  16.472  0.3450  0.9534  1.5596
 7250TIP3   OH243240   2.745   4.184  16.642 -0.7863  0.3995  0.6029
 7250TIP3    H143241   2.673   4.202  16.703  0.9230  1.0367  2.5723
 7250TIP3    H243242   2.792   4.268  16.636 -1.9088  0.9275 -3.1655
 7251TIP3   OH243243   3.971   0.587   3.039 -0.3063 -0.1365  0.2826
 7251TIP3    H143244   3.891   0.535   3.038 -0.7401  0.5078  0.6415
 7251TIP3    H243245   3.975   0.624   3.127 -1.1703  2.1448 -0.5554
 7252TIP3   OH243246   4.445   2.822  15.812  0.3771  0.2756 -0.2116
 7252TIP3    H143247   4.489   2.903  15.785  0.4403  0.5788  0.7322
 7252TIP3    H243248   4.491   2.797  15.893 -1.5837  0.9768  1.2002
 7253TIP3   OH243249   1.160   4.888  15.826  0.1693 -0.1566 -0.6093
 7253TIP3    H143250   1.065   4.883  15.842  0.1388 -2.0096 -1.1513
 7253TIP3    H243251   1.198   4.847  15.904  0.4063 -1.3754 -1.3482
 7254TIP3   OH243252   0.075   5.745   1.335 -0.0126 -0.0149  0.1431
 7254TIP3    H143253   0.057   5.831   1.297 -1.8399 -1.3912 -2.4854
 7254TIP3    H243254   0.121   5.697   1.265 -2.0747 -2.1824  0.1204
 7255TIP3   OH243255   1.614   2.393  12.264  0.3275  0.1859  0.1165
 7255TIP3    H143256   1.613   2.426  12.354  0.9252  0.0768  0.1693
 7255TIP3    H243257   1.688   2.332  12.262 -0.0650 -0.2921 -0.2838
 7256TIP3   OH243258   5.772   4.451  13.694  0.4485 -0.4996  0.2492
 7256TIP3    H143259   5.768   4.356  13.705  1.2891 -0.4135  1.5313
 7256TIP3    H243260   5.848   4.477  13.747  0.5421  0.8236 -0.5140
 7257TIP3   OH243261   1.731   4.760  11.703 -0.2298 -0.3092 -0.3891
 7257TIP3    H143262   1.662   4.803  11.653 -0.3659 -1.0274 -0.8291
 7257TIP3    H243263   1.704   4.669  11.709 -0.1489 -0.2663  0.9029
 7258TIP3   OH243264   2.894   2.731   1.711 -0.0818  0.0497 -0.0887
 7258TIP3    H143265   2.978   2.705   1.748 -0.2136  1.0945  1.0173
 7258TIP3    H243266   2.917   2.781   1.632  0.4348  1.3585  0.8390
 7259TIP3   OH243267   1.802   0.883   3.519  0.1573 -0.1421 -0.1025
 7259TIP3    H143268   1.784   0.941   3.444 -0.0603 -1.0625 -0.7855
 7259TIP3    H243269   1.719   0.838   3.534  1.0516 -2.4803 -1.5576
 7260TIP3   OH243270   0.642   2.448   0.269  0.1603  0.3737 -0.7574
 7260TIP3    H143271   0.724   2.458   0.221  1.7937 -0.3478  1.7264
 7260TIP3    H243272   0.640   2.523   0.328 -0.5046 -0.1110 -0.1565
 7261TIP3   OH243273   4.485   1.750   5.648  0.1413  0.7745 -0.5510
 7261TIP3    H143274   4.404   1.699   5.658  0.5261 -0.3496 -2.5985
 7261TIP3    H243275   4.456   1.837   5.621 -0.4133  0.8131  0.1317
 7262TIP3   OH243276   5.417   5.750  15.372 -0.2924 -0.0133  0.0161
 7262TIP3    H143277   5.354   5.697  15.326 -0.3239 -1.3283  1.4935
 7262TIP3    H243278   5.376   5.770  15.456  0.7758  0.1032  0.5368
 7263TIP3   OH243279   5.469   5.794   2.059 -0.0209 -0.1505 -0.4492
 7263TIP3    H143280   5.411   5.766   1.988  1.1781 -3.0955 -0.3985
 7263TIP3    H243281   5.553   5.810   2.016 -0.2553  2.0553 -0.2098
 7264TIP3   OH243282   6.174   0.541   2.181  0.1498  0.5077 -0.6751
 7264TIP3    H143283   6.128   0.622   2.159 -0.5019  0.5632  0.7877
 7264TIP3    H243284   6.267   0.563   2.173 -0.0288  1.2352 -0.8137
 7265TIP3   OH243285   2.701   6.426  11.659 -0.0423 -0.2753 -0.8952
 7265TIP3    H143286   2.666   6.504  11.617 -2.5550 -0.5063  0.5777
 7265TIP3    H243287   2.757   6.459  11.729 -1.7542  0.2925  0.2611
 7266TIP3   OH243288   1.628   1.193  13.845 -0.1636 -0.3063 -0.1873
 7266TIP3    H143289   1.538   1.224  13.851  0.1067  0.2775  1.0999
 7266TIP3    H243290   1.642   1.180  13.751 -1.1923  0.7826 -0.5226
 7267TIP3   OH243291   4.420   2.540  14.259  0.4808 -0.3880 -0.2335
 7267TIP3    H143292   4.330   2.552  14.229 -0.2139 -2.2203  0.9730
 7267TIP3    H243293   4.412   2.504  14.347  2.4425  1.0347  0.6059
 7268TIP3   OH243294   0.372   3.330   5.280  0.2574 -0.1257  0.1402
 7268TIP3    H143295   0.349   3.355   5.190  0.8782  0.9270  0.2578
 7268TIP3    H243296   0.334   3.243   5.291  1.1469 -0.7722 -1.5248
 7269TIP3   OH243297   1.044   0.240  14.596  0.5599 -0.3449 -0.1169
 7269TIP3    H143298   1.137   0.237  14.573  0.7722  0.7660  0.5082
 7269TIP3    H243299   1.039   0.306  14.665 -0.2792 -2.4416  1.9298
 7270TIP3   OH243300   5.246   3.252   1.347 -0.3971 -0.0519 -0.2062
 7270TIP3    H143301   5.184   3.232   1.276  0.0416  0.7727 -0.8354
 7270TIP3    H243302   5.313   3.184   1.341 -0.1993  0.1905 -0.7862
 7271TIP3   OH243303   3.193   3.586  14.975 -0.2578 -0.0281  0.0961
 7271TIP3    H143304   3.121   3.623  14.924  0.7561  0.8825 -0.7370
 7271TIP3    H243305   3.207   3.499  14.937 -0.1839  0.2410 -0.5192
 7272TIP3   OH243306   4.205   0.048  12.632 -0.6688  0.7539  0.1604
 7272TIP3    H143307   4.159  -0.015  12.689  0.6668 -2.0355 -1.6107
 7272TIP3    H243308   4.136   0.101  12.594 -2.3031 -1.8792 -0.7816
 7273TIP3   OH243309   4.049   1.526   5.520 -0.3807 -0.0871  0.2784
 7273TIP3    H143310   3.977   1.514   5.583 -1.6334  1.8534 -0.6913
 7273TIP3    H243311   4.014   1.586   5.455  2.0317  0.6263 -0.4481
 7274TIP3   OH243312   6.162   1.499  14.027  0.1668  0.3092 -0.3845
 7274TIP3    H143313   6.125   1.439  14.091  0.7082  0.6984  0.3025
 7274TIP3    H243314   6.085   1.542  13.989 -0.1784 -0.1947 -0.2715
 7275TIP3   OH243315   2.903   2.938  13.762  0.4366 -0.1095 -0.2651
 7275TIP3    H143316   2.927   2.853  13.724 -0.9051 -0.7038  0.1389
 7275TIP3    H243317   2.914   2.926  13.856 -0.5898 -0.1489 -0.1339
 7276TIP3   OH243318   4.695   5.071  14.689  0.5412  0.8436  0.3318
 7276TIP3    H143319   4.607   5.108  14.700 -1.0703 -1.8434 -2.2087
 7276TIP3    H243320   4.696   4.993  14.744  0.4240 -0.3667 -1.2871
 7277TIP3   OH243321   2.820   5.531  11.673 -0.1311  0.1279 -0.3122
 7277TIP3    H143322   2.758   5.577  11.729  0.0331 -1.2795  1.0947
 7277TIP3    H243323   2.906   5.565  11.699 -0.0666 -0.4196  0.2189
 7278TIP3   OH243324   0.309   0.488  10.771  0.0082  0.7274  0.5978
 7278TIP3    H143325   0.380   0.510  10.712  2.1368 -0.6572  2.4654
 7278TIP3    H243326   0.282   0.401  10.745  0.9587  0.1086  1.5633
 7279TIP3   OH243327   0.647   2.998  11.982  0.4565  0.1882  0.5420
 7279TIP3    H143328   0.566   2.987  11.933  0.0679  0.6033  1.0761
 7279TIP3    H243329   0.689   3.075  11.943  0.7381 -0.1940  0.0805
 7280TIP3   OH243330   6.336   3.066  13.162 -0.5076 -1.1262  0.2129
 7280TIP3    H143331   6.274   3.121  13.115  0.6936 -1.4862 -1.8983
 7280TIP3    H243332   6.282   3.016  13.224 -1.6463  2.2081  2.1219
 7281TIP3   OH243333   6.316   0.698   0.536 -0.2351  0.0409 -0.9250
 7281TIP3    H143334   6.334   0.707   0.442 -1.2276 -0.4397 -1.1783
 7281TIP3    H243335   6.235   0.647   0.540  0.3310 -0.8076  0.2293
 7282TIP3   OH243336   4.346   5.449   5.115  0.2898 -0.0868  0.3688
 7282TIP3    H143337   4.307   5.532   5.142  0.4145  0.5665 -1.3462
 7282TIP3    H243338   4.439   5.458   5.138  0.5842  0.8512 -1.0950
 7283TIP3   OH243339   3.326   1.840   0.704 -0.0477 -0.0966 -0.3784
 7283TIP3    H143340   3.309   1.796   0.621  0.5366  2.1744 -1.8227
 7283TIP3    H243341   3.267   1.799   0.766 -1.8048 -0.7188 -2.3392
 7284TIP3   OH243342   3.151   2.977  13.412 -0.1464 -0.6425  0.0815
 7284TIP3    H143343   3.214   2.981  13.339 -0.2066 -0.0930  0.0512
 7284TIP3    H243344   3.172   2.895  13.457 -0.8207 -1.5500 -1.1895
 7285TIP3   OH243345   4.265   1.003   3.951 -0.7631 -0.0084  0.0073
 7285TIP3    H143346   4.267   0.950   4.031 -0.0472  2.7820  1.9987
 7285TIP3    H243347   4.201   0.959   3.895 -1.2697 -2.1241  2.0777
 7286TIP3   OH243348   2.176   4.035  13.669  0.5771 -0.2893 -0.2516
 7286TIP3    H143349   2.219   4.108  13.624 -2.7766  2.0255 -0.0042
 7286TIP3    H243350   2.155   4.069  13.756  0.4746 -2.2072  0.5286
 7287TIP3   OH243351   0.935   2.376  12.430  0.9212  0.0220  0.9258
 7287TIP3    H143352   0.976   2.459  12.409 -0.5103  0.3367 -0.8591
 7287TIP3    H243353   0.922   2.379  12.525  1.7775  1.3909  1.0218
 7288TIP3   OH243354   3.485   4.482   1.097 -0.1452 -0.1992 -0.4249
 7288TIP3    H143355   3.561   4.424   1.101 -0.0558 -0.0434  0.2203
 7288TIP3    H243356   3.429   4.453   1.169 -1.3549 -1.2126 -1.7411
 7289TIP3   OH243357   2.512   4.485  16.249 -0.5258 -0.3272 -0.2164
 7289TIP3    H143358   2.431   4.448  16.216 -1.0028 -0.7258  1.2938
 7289TIP3    H243359   2.497   4.495  16.343  1.3397 -0.8866  0.1869
 7290TIP3   OH243360   6.775   0.941   2.419 -0.7993  0.4734 -0.4793
 7290TIP3    H143361   6.698   0.926   2.473 -1.3216 -0.9473 -1.5518
 7290TIP3    H243362   6.847   0.951   2.482 -1.7119  0.9994  0.5068
 7291TIP3   OH243363   1.124   3.138  16.063 -0.7183 -0.3342  0.3347
 7291TIP3    H143364   1.152   3.082  16.135 -1.9149 -1.5809 -0.1231
 7291TIP3    H243365   1.034   3.110  16.045 -0.4340 -0.1018 -1.6557
 7292TIP3   OH243366   3.915   4.578  13.452  0.7976  0.1050  0.2862
 7292TIP3    H143367   3.882   4.510  13.510 -2.2892 -0.0019 -1.3833
 7292TIP3    H243368   3.939   4.650  13.510  1.1350 -1.2320  1.8677
 7293TIP3   OH243369   6.794   5.927   4.402  0.4530 -0.1840  0.2003
 7293TIP3    H143370   6.841   5.844   4.412 -2.5732 -2.3485 -1.7446
 7293TIP3    H243371   6.755   5.922   4.315 -1.4779  2.3896  0.7983
 7294TIP3   OH243372   3.485   2.454   2.675  0.2205 -0.1703 -0.0353
 7294TIP3    H143373   3.445   2.535   2.642  1.3424  0.3352 -0.2365
 7294TIP3    H243374   3.448   2.385   2.621 -1.3203  0.1030  0.6322
 7295TIP3   OH243375   0.870   3.928  14.655 -0.1594 -0.2061  0.3098
 7295TIP3    H143376   0.884   4.007  14.603 -0.7075 -0.5554 -0.3873
 7295TIP3    H243377   0.957   3.896  14.675  0.0672 -0.4915 -1.0593
 7296TIP3   OH243378   3.926   2.700  11.951  0.5391 -0.1210 -0.9463
 7296TIP3    H143379   3.859   2.754  11.993  0.7282 -0.5436 -0.0895
 7296TIP3    H243380   4.009   2.743  11.972  0.6272 -0.2707 -0.9837
 7297TIP3   OH243381   5.553   6.083  14.540 -0.0902 -0.5038 -0.3051
 7297TIP3    H143382   5.531   6.081  14.446  0.1331 -0.7143 -0.3512
 7297TIP3    H243383   5.485   6.030  14.581 -0.1473 -0.4700 -0.3538
 7298TIP3   OH243384   0.331   0.322   5.406  0.4445  0.1644  0.3843
 7298TIP3    H143385   0.381   0.251   5.445 -1.0472 -0.6891  0.8483
 7298TIP3    H243386   0.372   0.337   5.321 -0.8647 -3.2599 -1.0276
 7299TIP3   OH243387   3.529   0.785  12.531 -0.1438 -0.2742  0.2115
 7299TIP3    H143388   3.455   0.749  12.579 -0.4035 -0.3593 -0.2471
 7299TIP3    H243389   3.574   0.840  12.595  0.8754 -2.2134  1.2261
 7300TIP3   OH243390   0.215   5.487   0.024  0.1418 -0.4378 -0.0217
 7300TIP3    H143391   0.127   5.455   0.046  1.0589 -2.6597  0.7655
 7300TIP3    H243392   0.256   5.413  -0.021  1.4242  0.7810 -0.9166
 7301TIP3   OH243393   1.031   0.148  16.841  0.4253 -0.4642  0.1539
 7301TIP3    H143394   0.944   0.126  16.876  0.4907 -1.4446 -0.2691
 7301TIP3    H243395   1.030   0.115  16.751  0.7558  0.7701 -0.3334
 7302TIP3   OH243396   4.720   4.914  12.188  0.3321  0.1082 -0.0628
 7302TIP3    H143397   4.773   4.980  12.143  1.4586 -0.2128  0.7605
 7302TIP3    H243398   4.671   4.964  12.254 -0.7481  0.4640 -1.0854
 7303TIP3   OH243399   4.609   6.792  14.452 -0.3117 -0.1500 -0.2953
 7303TIP3    H143400   4.584   6.799  14.360 -2.1850 -0.3731  0.1586
 7303TIP3    H243401   4.536   6.831  14.500  0.5809 -0.1333  1.1261
 7304TIP3   OH243402   2.721   0.040   5.691 -0.0321  0.1738  0.0553
 7304TIP3    H143403   2.802   0.077   5.726  0.9830 -1.0348 -0.9282
 7304TIP3    H243404   2.657   0.053   5.761  0.8255  1.7277  0.6068
 7305TIP3   OH243405   1.262   6.755  17.206 -0.2457  0.0870  0.5891
 7305TIP3    H143406   1.300   6.810  17.275 -0.2724  1.4020 -0.4060
 7305TIP3    H243407   1.337   6.705  17.173  0.0957  0.6648  0.4692
 7306TIP3   OH243408   6.760   5.021  15.393  0.5639  0.4501 -0.0667
 7306TIP3    H143409   6.668   5.034  15.416  0.2913 -0.3355 -0.6331
 7306TIP3    H243410   6.804   5.102  15.419 -0.4830  1.2753 -0.7711
 7307TIP3   OH243411   3.112   6.788  13.661 -0.5877  0.6688  0.3391
 7307TIP3    H143412   3.121   6.846  13.737  0.4595  1.3058 -0.2395
 7307TIP3    H243413   3.185   6.812  13.604 -1.7956  0.7773 -1.2544
 7308TIP3   OH243414   4.648   2.655  13.251  0.3510 -0.2210  0.3120
 7308TIP3    H143415   4.569   2.683  13.298  1.1311  1.8811  0.4330
 7308TIP3    H243416   4.665   2.567  13.285 -0.3386  0.3873  2.3866
 7309TIP3   OH243417   4.660   1.392  12.940 -0.1991 -0.0675 -0.0426
 7309TIP3    H143418   4.647   1.314  12.887  0.4537  0.7790 -1.5081
 7309TIP3    H243419   4.574   1.408  12.979 -1.1020  0.0201 -1.9369
 7310TIP3   OH243420   5.469   1.395  12.352  0.8399  0.0554 -0.5797
 7310TIP3    H143421   5.535   1.463  12.336  1.1368 -0.5956 -2.3508
 7310TIP3    H243422   5.430   1.419  12.436  1.9654  1.5654 -0.4402
 7311TIP3   OH243423   0.418   1.295  15.525  0.0530 -0.4628 -0.2578
 7311TIP3    H143424   0.463   1.265  15.446 -0.1994  1.5391 -1.2398
 7311TIP3    H243425   0.431   1.390  15.525 -3.4626  0.1577 -0.2050
 7312TIP3   OH243426   3.858   6.363  11.502  0.1251 -0.7348 -0.0164
 7312TIP3    H143427   3.847   6.308  11.579 -1.9930 -1.4536 -0.7716
 7312TIP3    H243428   3.902   6.442  11.535  0.5072 -1.5916  1.6310
 7313TIP3   OH243429   2.501   3.759  12.587 -0.0581  0.2716 -0.5043
 7313TIP3    H143430   2.476   3.720  12.671 -0.3870  0.2133 -0.6313
 7313TIP3    H243431   2.485   3.691  12.522 -0.3100  0.5002 -0.6833
 7314TIP3   OH243432   4.728   6.443   0.479  0.6489 -0.5296  0.0516
 7314TIP3    H143433   4.706   6.474   0.567  0.9795 -0.9343  0.2834
 7314TIP3    H243434   4.761   6.520   0.434  1.1911 -0.4691  0.5289
 7315TIP3   OH243435   2.710   3.673  16.818  0.1953  0.3125 -0.1596
 7315TIP3    H143436   2.754   3.619  16.752 -0.2812  0.8951 -0.9617
 7315TIP3    H243437   2.710   3.761  16.782 -1.3670  0.3858 -0.0441
 7316TIP3   OH243438   3.612   2.755   0.253  0.5586  0.3722  0.3040
 7316TIP3    H143439   3.570   2.699   0.317 -0.2338  0.3212 -0.2510
 7316TIP3    H243440   3.568   2.840   0.262 -0.8829 -0.1374 -1.4321
 7317TIP3   OH243441   4.978   0.352   5.195  0.1630 -0.2325 -0.1041
 7317TIP3    H143442   5.063   0.390   5.171  0.0106  0.8339  0.9406
 7317TIP3    H243443   4.914   0.403   5.146  0.0988 -0.8527 -0.6762
 7318TIP3   OH243444   4.399   3.995  17.213 -0.0452 -0.0585  0.0185
 7318TIP3    H143445   4.492   4.013  17.201  0.3121 -1.0083  1.0996
 7318TIP3    H243446   4.396   3.939  17.291 -1.4530 -0.6694 -0.4442
 7319TIP3   OH243447   3.495   1.214   2.791  0.0590 -0.2894 -0.4933
 7319TIP3    H143448   3.563   1.218   2.859  0.6560 -3.8218 -0.6806
 7319TIP3    H243449   3.413   1.221   2.839  0.5059 -1.1649  0.4476
 7320TIP3   OH243450   4.585   6.124  11.694 -1.0350  0.4479 -0.3023
 7320TIP3    H143451   4.591   6.047  11.752 -0.2042  1.6497  1.3042
 7320TIP3    H243452   4.492   6.147  11.694 -0.7329  2.6632  3.8435
 7321TIP3   OH243453   5.598   6.091   0.692  0.9263 -0.1807 -0.7114
 7321TIP3    H143454   5.545   6.070   0.769  0.7437  1.0352 -0.4933
 7321TIP3    H243455   5.549   6.054   0.618  0.2922  0.0522 -0.4063
 7322TIP3   OH243456   6.405   4.687   5.751 -0.1734 -0.0865  0.0983
 7322TIP3    H143457   6.443   4.658   5.834 -2.7586 -2.3788  0.5968
 7322TIP3    H243458   6.443   4.628   5.686 -0.9345 -0.7092  0.2156
 7323TIP3   OH243459   6.324   3.657  15.005 -0.2654  0.1334  0.5313
 7323TIP3    H143460   6.247   3.679  15.057 -0.6170  0.4934 -0.1220
 7323TIP3    H243461   6.345   3.566  15.029 -2.1168 -0.6796 -0.7514
 7324TIP3   OH243462   3.322   3.794  14.069 -0.1151  0.5122 -0.2798
 7324TIP3    H143463   3.366   3.754  13.995  0.0171 -0.3074  0.2343
 7324TIP3    H243464   3.237   3.750  14.073  0.5250 -0.6816  1.0719
 7325TIP3   OH243465   3.435   6.177   1.473 -0.5895 -1.0171  0.3506
 7325TIP3    H143466   3.448   6.266   1.505 -0.3316 -0.6581 -0.7162
 7325TIP3    H243467   3.481   6.122   1.537 -0.9975 -0.4214  1.1809
 7326TIP3   OH243468   2.803   2.155  16.044 -0.8952  0.2765 -0.0713
 7326TIP3    H143469   2.848   2.159  15.960 -1.2181 -0.4105 -0.2754
 7326TIP3    H243470   2.869   2.119  16.104 -0.7476  0.5272 -0.0795
 7327TIP3   OH243471   4.754   4.267   4.634 -0.2574  0.0295 -0.4716
 7327TIP3    H143472   4.670   4.279   4.589 -1.7863  1.5022  2.4763
 7327TIP3    H243473   4.808   4.340   4.604 -0.3352 -0.3815 -1.6742
 7328TIP3   OH243474   4.244   0.818  13.978  0.2716 -0.0515 -0.5950
 7328TIP3    H143475   4.196   0.739  14.002 -1.3551  1.3356  0.9977
 7328TIP3    H243476   4.317   0.822  14.039  0.6604 -0.5834 -1.0210
 7329TIP3   OH243477   6.586   2.766  12.708 -0.3633 -0.3045 -0.0139
 7329TIP3    H143478   6.667   2.716  12.718 -1.3119 -2.1725 -0.9958
 7329TIP3    H243479   6.608   2.834  12.645  0.5189 -0.5709 -0.0156
 7330TIP3   OH243480   3.326   3.898  11.562  0.4974 -0.4854  0.1968
 7330TIP3    H143481   3.351   3.945  11.483  3.1590 -2.8966 -0.5506
 7330TIP3    H243482   3.361   3.951  11.634  2.6768 -0.7489 -0.5836
 7331TIP3   OH243483   1.407   4.486   3.280 -0.5365 -0.6742  0.1240
 7331TIP3    H143484   1.408   4.393   3.302  0.2201 -0.4655  0.9955
 7331TIP3    H243485   1.319   4.515   3.304 -1.6299 -1.6505 -2.3498
 7332TIP3   OH243486   0.499   5.932  11.647  0.4818  0.0047  0.3546
 7332TIP3    H143487   0.517   5.843  11.677 -0.3630  0.0882  1.1683
 7332TIP3    H243488   0.582   5.963  11.612  1.8556  0.2122  3.4774
 7333TIP3   OH243489   6.502   1.597  10.721  0.0584 -0.0268  0.3074
 7333TIP3    H143490   6.423   1.575  10.771 -1.4646 -1.8428 -2.5914
 7333TIP3    H243491   6.469   1.617  10.633  2.6409  2.1976 -0.2787
 7334TIP3   OH243492   2.194   4.046   3.000  0.2804  0.6016  0.2626
 7334TIP3    H143493   2.283   4.018   2.978 -0.4242 -0.3870 -1.4729
 7334TIP3    H243494   2.207   4.111   3.069  2.3661  0.6804 -0.1218
 7335TIP3   OH243495   6.303   5.992  15.499 -0.0639  0.2115  0.0288
 7335TIP3    H143496   6.319   6.033  15.414 -0.5817  0.4154  0.0290
 7335TIP3    H243497   6.350   6.047  15.562 -1.3311  1.2316  0.1191
 7336TIP3   OH243498   3.438   2.146   5.471 -0.2024 -0.3053  0.3395
 7336TIP3    H143499   3.375   2.081   5.438 -3.4080  2.0144  1.3716
 7336TIP3    H243500   3.412   2.160   5.562  1.7183  0.9766  0.7446
 7337TIP3   OH243501   5.127   2.199  15.665 -0.2037 -0.4329 -0.0350
 7337TIP3    H143502   5.119   2.210  15.570  1.8794 -0.3084 -0.2435
 7337TIP3    H243503   5.064   2.262  15.701 -0.1928  0.3758 -1.3282
 7338TIP3   OH243504   0.845   6.035   1.961  0.0557  0.4847 -0.2687
 7338TIP3    H143505   0.937   6.044   1.936  0.8932  0.8860  2.5715
 7338TIP3    H243506   0.846   6.029   2.057 -2.8529 -0.0735 -0.1599
 7339TIP3   OH243507   1.775   1.445   0.832 -0.3736 -0.0630  0.0913
 7339TIP3    H143508   1.867   1.423   0.840 -0.2499  0.4767  0.1334
 7339TIP3    H243509   1.739   1.434   0.920 -0.3986 -0.4826  0.0306
 7340TIP3   OH243510   3.293   4.519   3.490  0.1213 -0.1728 -0.2500
 7340TIP3    H143511   3.229   4.570   3.541  1.1563 -1.0869  2.1330
 7340TIP3    H243512   3.378   4.548   3.524  0.9899  0.2637 -2.6100
 7341TIP3   OH243513   5.230   6.657   3.034 -0.5121  0.0979  0.2711
 7341TIP3    H143514   5.217   6.562   3.032  0.6496 -0.0671 -0.1129
 7341TIP3    H243515   5.219   6.684   2.943 -0.9912  0.3679  0.4024
 7342TIP3   OH243516   1.377   0.453   2.499  0.1797 -0.3996  0.1871
 7342TIP3    H143517   1.442   0.524   2.495 -1.4118  1.1214  0.2056
 7342TIP3    H243518   1.417   0.388   2.557  2.4378 -0.3646 -1.2093
 7343TIP3   OH243519   2.999   1.588   1.704  0.2050  0.4202 -0.0554
 7343TIP3    H143520   2.938   1.655   1.675  1.7406  1.1969 -1.6885
 7343TIP3    H243521   3.026   1.616   1.792 -0.6753  0.8296  0.0918
 7344TIP3   OH243522   5.640   2.915  16.287 -0.5339  0.7675  0.2572
 7344TIP3    H143523   5.641   3.003  16.250 -4.8475  0.4401 -1.1528
 7344TIP3    H243524   5.698   2.864  16.230 -1.6645  1.7477 -1.8758
 7345TIP3   OH243525   2.752   2.700   4.489 -0.1388  0.5932 -0.8141
 7345TIP3    H143526   2.771   2.764   4.558  0.3221 -0.8173  0.4413
 7345TIP3    H243527   2.834   2.691   4.441  1.2649 -2.1259  1.7363
 7346TIP3   OH243528   4.459   3.194   1.766  0.1820 -0.3316 -0.0507
 7346TIP3    H143529   4.495   3.270   1.810  0.9119 -1.9492  2.3760
 7346TIP3    H243530   4.523   3.124   1.782 -0.8226 -1.6646 -1.4869
 7347TIP3   OH243531   4.096   6.559   5.604  0.1484  0.1517  0.1205
 7347TIP3    H143532   4.148   6.616   5.661 -1.2562  1.1100  0.5102
 7347TIP3    H243533   4.073   6.614   5.529 -3.6599  1.2563  1.8202
 7348TIP3   OH243534   0.548   4.035  14.652 -0.5934 -0.2632  0.4979
 7348TIP3    H143535   0.605   3.979  14.599 -0.5085  0.9510 -0.7625
 7348TIP3    H243536   0.585   4.031  14.740  0.9029 -0.2279 -0.1015
 7349TIP3   OH243537   2.652   4.487   1.894  0.3568 -0.6402  0.4716
 7349TIP3    H143538   2.701   4.417   1.851  2.0264  0.4577  0.4806
 7349TIP3    H243539   2.667   4.472   1.988  1.0789 -0.0623  0.4614
 7350TIP3   OH243540   6.035   2.688   2.407  0.4470  0.2124  0.6340
 7350TIP3    H143541   6.004   2.773   2.437 -0.8264  0.6433 -1.6859
 7350TIP3    H243542   6.060   2.702   2.316 -0.3437 -2.0025  0.0089
 7351TIP3   OH243543   5.329   3.456  16.551 -0.0783 -0.0793 -0.6715
 7351TIP3    H143544   5.240   3.422  16.544  0.2299 -1.2410  0.5632
 7351TIP3    H243545   5.382   3.379  16.574  0.6322  1.1620  2.4230
 7352TIP3   OH243546   2.312   4.327  12.498 -0.6298 -0.2025  0.4783
 7352TIP3    H143547   2.344   4.373  12.420 -1.1571  0.0129  0.3840
 7352TIP3    H243548   2.326   4.234  12.478  0.6680 -0.0980  0.7670
 7353TIP3   OH243549   2.826   1.412  10.240 -0.0553  0.1017  0.0218
 7353TIP3    H143550   2.905   1.447  10.282  0.1296 -0.6986  0.3686
 7353TIP3    H243551   2.763   1.483  10.245  0.1263  0.1981  1.2419
 7354TIP3   OH243552   5.983   4.440  16.766  0.2336 -0.7243  0.0580
 7354TIP3    H143553   5.891   4.432  16.742  0.6635 -2.2875 -1.2768
 7354TIP3    H243554   5.983   4.486  16.849 -1.7456 -0.6124  0.0323
 7355TIP3   OH243555   5.124   3.188  15.377 -0.1490  0.2376  1.2691
 7355TIP3    H143556   5.135   3.145  15.462 -2.4735 -1.5215  0.7766
 7355TIP3    H243557   5.048   3.145  15.337 -0.6193  2.6240 -0.7091
 7356TIP3   OH243558   1.939   6.533  12.631  0.4371 -0.2110 -0.3424
 7356TIP3    H143559   1.914   6.563  12.718  2.2640 -0.6540  0.3903
 7356TIP3    H243560   1.974   6.611  12.588 -0.0869 -0.0814 -0.5405
 7357TIP3   OH243561   3.356   2.758   6.107  0.6019  0.7946 -0.8578
 7357TIP3    H143562   3.261   2.747   6.101  0.8138 -3.3316 -0.1040
 7357TIP3    H243563   3.369   2.821   6.178 -1.5848  0.5485 -0.1693
 7358TIP3   OH243564   3.058   5.269  15.711 -0.6766  0.1623 -0.3336
 7358TIP3    H143565   3.069   5.364  15.722  1.6795 -0.0934 -0.0152
 7358TIP3    H243566   3.053   5.236  15.801  2.4727 -0.3405 -0.2471
 7359TIP3   OH243567   6.242   3.681   4.877 -0.7111 -0.1610  0.0774
 7359TIP3    H143568   6.332   3.686   4.844 -0.9654 -0.5029 -0.7011
 7359TIP3    H243569   6.203   3.609   4.827 -1.9523  1.1672 -0.9344
 7360TIP3   OH243570   1.556   4.338   0.974 -0.2129 -0.0584 -0.4550
 7360TIP3    H143571   1.505   4.324   0.894  0.6283 -0.2357 -0.9816
 7360TIP3    H243572   1.626   4.398   0.947  0.2153 -0.3004  0.0919
 7361TIP3   OH243573   3.289   3.294  16.444 -0.4265 -0.4408 -0.0198
 7361TIP3    H143574   3.268   3.383  16.415 -0.3522 -0.1907  0.6751
 7361TIP3    H243575   3.384   3.290  16.445 -0.4068  0.0270  1.5664
 7362TIP3   OH243576   1.530   0.757   3.586  0.3536 -0.1484  0.2052
 7362TIP3    H143577   1.553   0.686   3.525 -1.8459 -0.8439  0.1018
 7362TIP3    H243578   1.462   0.720   3.641 -0.3838  1.6822  0.5920
 7363TIP3   OH243579   1.832   5.520   3.787  0.7552 -0.1038  0.8812
 7363TIP3    H143580   1.764   5.577   3.824  0.2803 -0.8976  1.2451
 7363TIP3    H243581   1.784   5.446   3.751  1.1249  0.8205 -1.7822
 7364TIP3   OH243582   1.796   3.312   1.362  0.3676 -0.1966  0.2367
 7364TIP3    H143583   1.702   3.304   1.348  0.4853 -0.4146 -0.4654
 7364TIP3    H243584   1.806   3.326   1.456 -0.3059 -1.1048  0.4475
 7365TIP3   OH243585   2.561   1.135  13.342  0.0135  0.6328  0.1206
 7365TIP3    H143586   2.628   1.069  13.357  0.1470  1.0415  1.4498
 7365TIP3    H243587   2.576   1.164  13.252  0.6569 -0.3464 -0.1021
 7366TIP3   OH243588   5.348   3.335  14.386  0.1790  0.6395  0.2084
 7366TIP3    H143589   5.435   3.319  14.422  0.5306  0.6753 -0.5995
 7366TIP3    H243590   5.363   3.392  14.310 -0.4313 -0.2241 -0.5877
 7367TIP3   OH243591   0.556   1.908  13.809  0.1101  0.0190  0.0955
 7367TIP3    H143592   0.593   1.890  13.895  0.0244  0.0909  0.1481
 7367TIP3    H243593   0.500   1.985  13.822  1.4055  1.0784 -0.3675
 7368TIP3   OH243594   1.465   3.216  11.429 -0.4634 -0.2555  0.0180
 7368TIP3    H143595   1.400   3.275  11.467 -0.4705 -0.6965  0.7086
 7368TIP3    H243596   1.507   3.175  11.504 -0.7418 -1.4371 -0.4476
 7369TIP3   OH243597   5.781   5.469  16.697 -0.0354  0.0782  0.4517
 7369TIP3    H143598   5.805   5.378  16.678  0.3726 -0.0629  1.5887
 7369TIP3    H243599   5.685   5.469  16.693 -0.1401 -0.7936  2.0147
 7370TIP3   OH243600   5.857   0.361   5.447 -0.4695 -0.2221 -0.4205
 7370TIP3    H143601   5.927   0.414   5.410 -0.1868  0.3465  0.8655
 7370TIP3    H243602   5.896   0.319   5.523 -1.9825  1.6490  1.5144
 7371TIP3   OH243603   5.920   0.841   3.524  0.2746  0.1007 -0.4830
 7371TIP3    H143604   5.960   0.771   3.576 -1.0534  0.0763  0.5631
 7371TIP3    H243605   5.874   0.895   3.589  0.5650  1.4459 -1.3802
 7372TIP3   OH243606   1.013   1.572   5.448  0.2642  0.0659 -0.0768
 7372TIP3    H143607   1.040   1.548   5.359  1.2874 -2.1175  0.7569
 7372TIP3    H243608   0.928   1.531   5.459 -0.2416  1.0239 -0.2925
 7373TIP3   OH243609   0.473   0.286  16.660  0.3157  0.6990  0.3586
 7373TIP3    H143610   0.495   0.266  16.751  0.9662  1.1041  0.2981
 7373TIP3    H243611   0.448   0.378  16.662 -1.2907  0.2819  0.4019
 7374TIP3   OH243612   3.885   1.524   5.750 -0.5593 -0.1221  0.9359
 7374TIP3    H143613   3.944   1.532   5.825  0.2675 -2.1043  0.5416
 7374TIP3    H243614   3.811   1.474   5.782  0.2425 -1.8322  0.2526
 7375TIP3   OH243615   5.106   6.603  13.538  0.1112 -0.7579 -0.3444
 7375TIP3    H143616   5.131   6.681  13.488  2.1593  0.1812  1.9454
 7375TIP3    H243617   5.077   6.638  13.622  2.5598 -2.4369  1.3281
 7376TIP3   OH243618   0.164   1.622   0.192 -0.5483  0.3739 -0.3866
 7376TIP3    H143619   0.257   1.621   0.170  0.1154 -1.9349  1.9964
 7376TIP3    H243620   0.149   1.707   0.232  0.7946  0.4316  0.0445
 7377TIP3   OH243621   2.887   2.121  13.290  0.3256 -0.1139  0.2792
 7377TIP3    H143622   2.808   2.158  13.251 -0.3812  0.5953  2.2820
 7377TIP3    H243623   2.855   2.069  13.364  1.7663  1.6799  2.2892
 7378TIP3   OH243624   0.684   3.858   4.788 -0.0788 -0.1419  0.1479
 7378TIP3    H143625   0.621   3.870   4.859 -0.2250 -1.8364  0.3494
 7378TIP3    H243626   0.663   3.771   4.752  0.1468  0.5655 -1.8247
 7379TIP3   OH243627   2.067   6.647   1.343 -0.1212  0.2258  0.1097
 7379TIP3    H143628   2.019   6.577   1.388  0.6102  0.3937  1.2088
 7379TIP3    H243629   2.023   6.728   1.370  1.4026  0.4846  2.0870
 7380TIP3   OH243630   3.362   5.039  14.728  0.7446 -0.6815  0.1383
 7380TIP3    H143631   3.305   5.009  14.799 -0.3715  2.8864  0.9262
 7380TIP3    H243632   3.316   5.012  14.648  0.3756 -1.8806  0.7251
 7381TIP3   OH243633   2.495   6.426   2.695 -0.8217 -0.0694 -0.1531
 7381TIP3    H143634   2.488   6.439   2.600  0.2031 -1.4535 -0.4434
 7381TIP3    H243635   2.563   6.488   2.723 -0.6369 -0.1390 -0.4445
 7382TIP3   OH243636   3.885   5.926  11.150  0.0081 -0.6439 -0.4186
 7382TIP3    H143637   3.828   6.003  11.150  0.2321 -0.3886 -3.2236
 7382TIP3    H243638   3.941   5.938  11.227 -1.2089  0.9903  0.2748
 7383TIP3   OH243639   3.696   5.595   0.112  0.0350  0.5824  0.0264
 7383TIP3    H143640   3.716   5.604   0.205  3.1134 -0.5608 -0.3955
 7383TIP3    H243641   3.676   5.684   0.083 -1.3863  0.8963  1.8002
 7384TIP3   OH243642   4.274   2.017  15.632  0.2884  0.2743  0.2864
 7384TIP3    H143643   4.364   2.026  15.601 -0.2179 -1.7505 -2.0224
 7384TIP3    H243644   4.228   2.091  15.594  0.2844 -0.6296 -1.5633
 7385TIP3   OH243645   5.596   2.764   2.600 -0.5405  0.2942 -0.4410
 7385TIP3    H143646   5.533   2.831   2.627 -0.6511 -0.0107  0.0658
 7385TIP3    H243647   5.583   2.755   2.506  1.4534  3.0825 -1.1393
 7386TIP3   OH243648   6.645   3.575  10.926  0.0051 -0.1778  0.3142
 7386TIP3    H143649   6.589   3.543  10.856  0.9909 -1.2797 -0.0103
 7386TIP3    H243650   6.645   3.670  10.915 -0.3634 -0.2864 -0.7905
 7387TIP3   OH243651   5.046   1.318  15.325  0.1551 -0.4744  0.2119
 7387TIP3    H143652   5.098   1.392  15.293  0.2821  0.0977  1.6392
 7387TIP3    H243653   5.039   1.334  15.420 -0.2959 -1.9944  0.4547
 7388TIP3   OH243654   6.409   0.163  17.006 -0.5575  0.2541 -0.1696
 7388TIP3    H143655   6.333   0.166  17.065  0.3885  0.7633  1.0706
 7388TIP3    H243656   6.458   0.086  17.034  0.6912  1.3454  0.7719
 7389TIP3   OH243657   1.328   1.703  15.796 -0.4572  0.0650 -0.5846
 7389TIP3    H143658   1.263   1.644  15.833 -3.0544  2.0304 -1.7036
 7389TIP3    H243659   1.312   1.701  15.702  1.3460  0.3851 -0.9378
 7390TIP3   OH243660   1.415   3.314   0.308 -0.5488  0.1819  0.0749
 7390TIP3    H143661   1.488   3.372   0.327  0.7433 -1.6926  1.1971
 7390TIP3    H243662   1.342   3.372   0.289  1.3162  2.1571 -1.6111
 7391TIP3   OH243663   3.786   0.530   5.313  0.0866  0.4936  0.0139
 7391TIP3    H143664   3.870   0.497   5.347 -0.1480  0.3729  0.4816
 7391TIP3    H243665   3.734   0.452   5.297  0.0698  0.5682 -0.3008
 7392TIP3   OH243666   2.478   5.087   3.286  0.0161 -0.2788 -0.4433
 7392TIP3    H143667   2.518   5.143   3.220  0.6373 -0.0121  0.1511
 7392TIP3    H243668   2.448   5.147   3.354  0.7325 -0.6609  0.2206
 7393TIP3   OH243669   4.307   6.333  15.427  0.8635 -0.2751 -0.1586
 7393TIP3    H143670   4.379   6.272  15.411  1.3390  0.4071 -0.7263
 7393TIP3    H243671   4.228   6.284  15.406  0.9992 -1.6396  2.2341
 7394TIP3   OH243672   3.082   4.804   2.992  0.5545 -0.7216  0.1653
 7394TIP3    H143673   3.058   4.713   2.976  1.0589 -0.9125  0.4545
 7394TIP3    H243674   3.145   4.800   3.064  3.4183 -0.5085 -2.1542
 7395TIP3   OH243675   2.015   5.287   4.652 -0.0889 -0.1686 -0.7942
 7395TIP3    H143676   1.977   5.318   4.570 -0.4177 -0.4445 -0.7464
 7395TIP3    H243677   2.037   5.366   4.700 -0.5895 -0.0104 -0.8277
 7396TIP3   OH243678   4.223   0.658   6.494  0.1241 -0.0773  0.0808
 7396TIP3    H143679   4.281   0.725   6.529  0.5331 -0.5210  0.2664
 7396TIP3    H243680   4.142   0.667   6.545  0.3244  0.0041  0.3901
 7397TIP3   OH243681   4.223   2.727   5.403  0.1806  0.3400  0.2000
 7397TIP3    H143682   4.225   2.639   5.441 -4.2919 -0.2658 -0.4766
 7397TIP3    H243683   4.150   2.771   5.447 -0.1337  2.3639 -2.1218
 7398TIP3   OH243684   6.462   3.956   3.776 -0.1470 -0.2229 -0.0408
 7398TIP3    H143685   6.546   4.004   3.775  1.2716 -2.5505 -0.9009
 7398TIP3    H243686   6.428   3.968   3.687  0.0199 -0.4932 -0.1418
 7399TIP3   OH243687   0.976   6.581  15.964  0.3201  0.1602  0.2529
 7399TIP3    H143688   1.070   6.602  15.967  0.3727 -0.1114  0.6706
 7399TIP3    H243689   0.972   6.490  15.993  0.0291 -0.1793 -0.8175
 7400TIP3   OH243690   0.672   6.497  11.842  0.1565 -0.0384 -0.1024
 7400TIP3    H143691   0.642   6.433  11.777  0.4185 -0.2149 -0.0478
 7400TIP3    H243692   0.612   6.571  11.831 -0.1305 -0.2796 -0.1839
 7401TIP3   OH243693   6.318   2.296   3.732 -0.8038  0.6716 -0.3428
 7401TIP3    H143694   6.276   2.347   3.801  2.3013  1.6032  1.0009
 7401TIP3    H243695   6.369   2.230   3.778 -0.3824 -0.1149 -1.8649
 7402TIP3   OH243696   3.414   2.509  12.777 -0.0189 -0.7529 -0.4157
 7402TIP3    H143697   3.344   2.458  12.819 -1.3716 -0.0879 -1.7526
 7402TIP3    H243698   3.443   2.454  12.704 -0.9480  0.0001 -1.3935
 7403TIP3   OH243699   2.353   6.185  11.141  0.4880 -0.4859  0.1791
 7403TIP3    H143700   2.265   6.202  11.176  0.1163  1.0716 -1.3398
 7403TIP3    H243701   2.410   6.187  11.218 -0.4805  1.2271  0.9355
 7404TIP3   OH243702   3.753   2.069   0.749 -0.2774  0.0422  0.2966
 7404TIP3    H143703   3.842   2.063   0.784  0.8332 -2.3804 -2.4500
 7404TIP3    H243704   3.718   1.980   0.757 -0.4664 -0.3133 -3.0565
 7405TIP3   OH243705   4.250   0.020   4.850 -0.1732 -0.6656 -0.5872
 7405TIP3    H143706   4.218   0.093   4.796  0.7602  0.7095  0.6383
 7405TIP3    H243707   4.342   0.041   4.864  0.3718 -2.6229 -0.9965
 7406TIP3   OH243708   0.149   0.051   5.079 -0.4626  0.1154 -0.1584
 7406TIP3    H143709   0.062   0.017   5.100  1.1858 -1.9240  4.9241
 7406TIP3    H243710   0.151   0.139   5.117  0.0200 -0.3605  0.9636
 7407TIP3   OH243711   5.432   1.615   0.306  0.4463 -0.2403 -0.1283
 7407TIP3    H143712   5.413   1.634   0.214  2.1035  0.6551 -0.3267
 7407TIP3    H243713   5.526   1.602   0.308  0.1513 -2.6101  1.0798
 7408TIP3   OH243714   4.425   2.379  12.530  0.0301 -0.5496 -0.3880
 7408TIP3    H143715   4.437   2.448  12.595  0.2127 -1.0377  0.1023
 7408TIP3    H243716   4.485   2.310  12.557  1.7032  0.0782 -2.2854
 7409TIP3   OH243717   2.075   5.744   4.706 -0.0993 -0.3677  0.5198
 7409TIP3    H143718   2.023   5.769   4.629 -0.0252  0.0519  0.6039
 7409TIP3    H243719   2.118   5.663   4.680 -1.0412 -0.8999  0.5558
 7410TIP3   OH243720   3.501   3.601   5.359 -0.0684  1.0189  0.0183
 7410TIP3    H143721   3.454   3.672   5.402 -0.7238  0.5736  0.0433
 7410TIP3    H243722   3.552   3.560   5.429  0.7041  1.7601 -0.0872
 7411TIP3   OH243723   2.345   0.555   6.265 -0.2207 -0.4545  0.3133
 7411TIP3    H143724   2.419   0.519   6.314 -0.9017 -0.9017  1.0359
 7411TIP3    H243725   2.374   0.642   6.238  0.9613 -1.0289 -0.3299
 7412TIP3   OH243726   0.396   1.032   4.241 -0.1597 -0.2322 -0.2115
 7412TIP3    H143727   0.478   0.986   4.223  0.0547  0.6065 -1.5291
 7412TIP3    H243728   0.329   0.980   4.197 -0.1192 -0.0723 -0.4618
 7413TIP3   OH243729   3.775   6.038   4.645 -0.0091  0.5553  0.0525
 7413TIP3    H143730   3.737   6.099   4.581  0.1059 -1.1195 -1.6914
 7413TIP3    H243731   3.699   5.990   4.679  0.1632 -0.1991 -0.6200
 7414TIP3   OH243732   0.636   0.411  11.074 -0.0696 -0.1098 -0.2454
 7414TIP3    H143733   0.642   0.451  10.987 -1.6123 -0.0803 -0.3641
 7414TIP3    H243734   0.700   0.340  11.072  1.7759  1.4664 -0.4930
 7415TIP3   OH243735   0.167   1.869   2.088  0.2290 -0.3131 -0.3890
 7415TIP3    H143736   0.145   1.787   2.044 -2.3691  0.3442 -0.5047
 7415TIP3    H243737   0.228   1.843   2.157  0.0106 -2.2317 -0.8498
 7416TIP3   OH243738   2.458   6.183  13.008  0.4272  0.5025 -0.1967
 7416TIP3    H143739   2.464   6.133  12.926 -0.5380 -0.3547  0.2432
 7416TIP3    H243740   2.514   6.259  12.993  1.2037 -0.2367 -1.2237
 7417TIP3   OH243741   1.891   2.651   1.213 -0.4616  0.0405 -0.0626
 7417TIP3    H143742   1.974   2.699   1.223 -0.7705  0.3347  1.2671
 7417TIP3    H243743   1.881   2.641   1.118  0.0897  1.7813 -0.3482
 7418TIP3   OH243744   3.138   5.516   3.475  0.1080  0.2203 -0.3600
 7418TIP3    H143745   3.134   5.602   3.517  0.1431 -0.1761  0.4787
 7418TIP3    H243746   3.048   5.483   3.481  0.2648 -0.1372  0.0565
 7419TIP3   OH243747   5.943   6.607   6.218  0.1295 -0.4876  0.1058
 7419TIP3    H143748   5.959   6.624   6.126  1.0538  0.4762  0.4279
 7419TIP3    H243749   6.012   6.546   6.245  1.0444  0.7200  0.5923
 7420TIP3   OH243750   3.672   2.351  14.469 -0.3483 -0.1122  0.5840
 7420TIP3    H143751   3.680   2.336  14.374 -0.0035 -1.6184  0.8321
 7420TIP3    H243752   3.729   2.427  14.485 -0.9840  0.6298 -0.5081
 7421TIP3   OH243753   5.594   0.143   0.366 -0.0614  1.0035 -0.2014
 7421TIP3    H143754   5.534   0.202   0.410  2.1532  0.6869  3.6986
 7421TIP3    H243755   5.538   0.092   0.307 -2.9987  2.9012  0.7096
 7422TIP3   OH243756   3.319   6.777  15.634  0.1298 -0.0649  0.3814
 7422TIP3    H143757   3.325   6.783  15.539  0.9621 -0.5726  0.3891
 7422TIP3    H243758   3.246   6.717  15.650  0.9607 -1.2040  0.0165
 7423TIP3   OH243759   2.511   0.923  15.902  0.0515  0.5924  0.9156
 7423TIP3    H143760   2.431   0.873  15.886  0.1856  0.3445  1.0154
 7423TIP3    H243761   2.507   0.995  15.840 -1.5605  2.1146  2.6433
 7424TIP3   OH243762   1.366   3.742   5.312 -0.0900  0.0424 -0.4884
 7424TIP3    H143763   1.294   3.799   5.284 -0.2122  0.8530  1.3282
 7424TIP3    H243764   1.394   3.779   5.396  2.1233 -0.5517 -0.9023
 7425TIP3   OH243765   0.394   4.137   3.533  0.1845  0.6695 -0.6826
 7425TIP3    H143766   0.334   4.137   3.459 -1.1356 -0.2981  0.3447
 7425TIP3    H243767   0.347   4.184   3.602 -0.9410 -2.9155  1.2525
 7426TIP3   OH243768   0.615   1.074  12.701 -0.1165  0.4950 -0.1407
 7426TIP3    H143769   0.635   1.163  12.729 -2.0554  0.8303  0.3370
 7426TIP3    H243770   0.700   1.035  12.681  0.7640  2.4370 -0.3573
 7427TIP3   OH243771   4.104   2.477  10.778 -0.2899  0.0616  0.0650
 7427TIP3    H143772   4.117   2.570  10.797  0.1373  0.2048 -0.8373
 7427TIP3    H243773   4.061   2.476  10.693 -1.8359 -0.5481  0.8267
 7428TIP3   OH243774   0.005   6.457   2.798  0.6255  0.0352  0.1007
 7428TIP3    H143775   0.094   6.425   2.785 -0.0753 -2.1174  0.2946
 7428TIP3    H243776   0.013   6.518   2.872  1.9590  0.0733 -0.0410
 7429TIP3   OH243777   1.120   5.436   4.646  0.1090 -0.1748  0.0274
 7429TIP3    H143778   1.202   5.394   4.618  0.4042 -1.3161  2.3161
 7429TIP3    H243779   1.110   5.511   4.588  1.2458 -1.6297 -2.2060
 7430TIP3   OH243780   5.934   1.710   5.172  0.2970 -0.4595  0.1131
 7430TIP3    H143781   6.029   1.719   5.166  0.1789  0.0394 -1.4361
 7430TIP3    H243782   5.904   1.709   5.081 -1.3252  1.0593  0.5706
 7431TIP3   OH243783   3.567   3.088   0.816 -0.1380 -0.4848 -0.0728
 7431TIP3    H143784   3.516   3.155   0.770 -0.2979  0.9238  2.0444
 7431TIP3    H243785   3.572   3.015   0.754  0.0173  1.4375 -2.4619
 7432TIP3   OH243786   6.211   4.303   3.274 -0.2556 -0.1020  0.3206
 7432TIP3    H143787   6.127   4.267   3.301 -0.8100 -0.8040 -2.0511
 7432TIP3    H243788   6.274   4.234   3.291 -0.5093 -0.3614  0.2089
 7433TIP3   OH243789   4.650   2.219  12.113 -0.0493 -0.1120  0.4007
 7433TIP3    H143790   4.741   2.226  12.084 -0.5897 -0.2886 -1.4918
 7433TIP3    H243791   4.656   2.206  12.208  1.8498  0.6390  0.4373
 7434TIP3   OH243792   4.534   3.457   0.379  0.1108  0.1461  0.1044
 7434TIP3    H143793   4.618   3.497   0.400 -0.2047  0.9972 -0.1861
 7434TIP3    H243794   4.545   3.423   0.290  0.5237 -0.8335  0.5229
 7435TIP3   OH243795   1.815   4.370   1.425  0.1934 -0.1031  0.0906
 7435TIP3    H143796   1.831   4.429   1.351 -1.6021 -0.0524 -0.2953
 7435TIP3    H243797   1.896   4.374   1.476  1.2412  0.3472 -1.5219
 7436TIP3   OH243798   0.936   5.539  16.552 -0.3168 -0.6674  0.4100
 7436TIP3    H143799   0.897   5.528  16.638  2.1259 -1.8141  1.4620
 7436TIP3    H243800   1.021   5.580  16.568  0.7998 -2.1419 -1.2570
 7437TIP3   OH243801   4.438   1.091   2.415 -0.3942 -0.1929 -0.4277
 7437TIP3    H143802   4.367   1.039   2.452 -0.5311 -0.0599 -0.5003
 7437TIP3    H243803   4.421   1.092   2.321  0.4897 -1.3358 -0.6183
 7438TIP3   OH243804   0.761   5.387   3.887 -0.4518 -0.3758 -0.0803
 7438TIP3    H143805   0.668   5.369   3.869 -0.5664  0.1611 -0.0515
 7438TIP3    H243806   0.795   5.423   3.805 -0.6371  0.7922  0.3394
 7439TIP3   OH243807   5.444   3.322  12.162 -0.5531 -0.0951  0.3100
 7439TIP3    H143808   5.422   3.232  12.186 -1.6620  0.4528  1.4925
 7439TIP3    H243809   5.539   3.328  12.174 -0.2785 -1.4247 -0.9811
 7440TIP3   OH243810   0.374   5.056  11.426  0.4415 -0.4769  0.3227
 7440TIP3    H143811   0.348   5.078  11.515 -0.1898 -0.9648  0.2608
 7440TIP3    H243812   0.446   4.994  11.436  0.8486  0.0150  0.4886
 7441TIP3   OH243813   1.154   4.768   5.955  0.1186  0.2077  0.0017
 7441TIP3    H143814   1.150   4.714   5.876  0.1268  0.0163  0.1336
 7441TIP3    H243815   1.149   4.858   5.922 -1.1838  0.1078 -0.1368
 7442TIP3   OH243816   5.934   1.697  13.922  0.1221  0.3788 -0.5208
 7442TIP3    H143817   5.921   1.785  13.957  0.7741  0.3145 -0.1114
 7442TIP3    H243818   5.849   1.654  13.935 -0.0533  0.7892 -0.2803
 7443TIP3   OH243819   3.152   6.313   0.823 -0.9437  0.1787  0.0806
 7443TIP3    H143820   3.108   6.241   0.869  0.4560 -0.2497  0.8076
 7443TIP3    H243821   3.133   6.297   0.730 -1.4400 -0.5868  0.3006
 7444TIP3   OH243822   3.727   3.898   6.303  0.2702 -0.0869 -0.7110
 7444TIP3    H143823   3.651   3.903   6.244  0.6283  0.9245 -1.1106
 7444TIP3    H243824   3.715   3.816   6.350 -0.9242 -0.0863 -0.9755
 7445TIP3   OH243825   4.572   4.871   4.694  0.4835  0.8821  0.3113
 7445TIP3    H143826   4.526   4.788   4.704  0.2032  1.1580  1.4853
 7445TIP3    H243827   4.623   4.860   4.614  1.1306 -0.7514  0.8939
 7446TIP3   OH243828   4.758   1.895  13.318  0.1164  0.1278  0.3754
 7446TIP3    H143829   4.760   1.813  13.269 -0.0799 -0.5917  1.5300
 7446TIP3    H243830   4.813   1.878  13.395  0.7286  1.3527  0.2233
 7447TIP3   OH243831   3.469   0.580  11.961  0.1418 -0.3067 -0.0367
 7447TIP3    H143832   3.461   0.659  12.015 -3.1575 -0.8090  0.3743
 7447TIP3    H243833   3.466   0.613  11.871 -2.5379  0.0602  0.1093
 7448TIP3   OH243834   2.500   1.492  10.795  0.9373  0.7739 -0.0176
 7448TIP3    H143835   2.468   1.492  10.886  0.6087  0.1550 -0.1331
 7448TIP3    H243836   2.458   1.568  10.755  0.7843  0.8277  0.2447
 7449TIP3   OH243837   4.247   3.937  15.405  0.5158  0.0251  0.5854
 7449TIP3    H143838   4.198   3.909  15.482 -1.1630  0.8138 -0.1251
 7449TIP3    H243839   4.191   3.913  15.331  0.3571  2.4763 -0.1848
 7450TIP3   OH243840   4.601   5.581  14.841  0.2936  0.3000 -0.2395
 7450TIP3    H143841   4.538   5.552  14.907  0.7085 -0.3163 -0.1075
 7450TIP3    H243842   4.669   5.513  14.841  0.4178  0.4156 -1.1312
 7451TIP3   OH243843   2.652   5.579   5.544  0.1138 -0.0243 -0.0710
 7451TIP3    H143844   2.606   5.515   5.490 -1.1856 -1.3932  2.4547
 7451TIP3    H243845   2.584   5.639   5.573  0.4396 -0.2538  1.2484
 7452TIP3   OH243846   3.896   0.203  12.262 -0.1716  0.0940 -0.4460
 7452TIP3    H143847   3.884   0.164  12.348 -2.5739  0.3844 -0.5910
 7452TIP3    H243848   3.878   0.297  12.274 -0.0846  0.2159 -1.1701
 7453TIP3   OH243849   4.138   1.015  16.881 -0.3543 -0.4774  0.4570
 7453TIP3    H143850   4.182   1.078  16.937  0.1654 -0.4711  0.0479
 7453TIP3    H243851   4.071   1.067  16.835  1.0388  0.1182 -0.9822
 7454TIP3   OH243852   3.393   2.082   2.746  0.1750  0.4365  0.4271
 7454TIP3    H143853   3.320   2.143   2.740 -0.6552 -0.4917  0.7807
 7454TIP3    H243854   3.446   2.116   2.818  0.1512  1.1713  0.1053
 7455TIP3   OH243855   5.947   2.469   2.546  0.2280  0.0023  0.2202
 7455TIP3    H143856   5.967   2.538   2.483 -0.3722 -0.3018 -0.3198
 7455TIP3    H243857   5.854   2.479   2.564 -0.3728 -1.8662 -1.4074
 7456TIP3   OH243858   1.473   4.593   0.802  0.1269 -0.4522  0.0088
 7456TIP3    H143859   1.385   4.610   0.835 -0.0582  1.1664 -1.1890
 7456TIP3    H243860   1.530   4.646   0.858  0.1214 -0.0333 -0.3719
 7457TIP3   OH243861   4.223   1.270   2.602  0.1490 -0.4187 -0.1844
 7457TIP3    H143862   4.221   1.183   2.564  0.9500  0.2419 -1.8072
 7457TIP3    H243863   4.298   1.269   2.661  1.1669 -0.3673 -1.4372
 7458TIP3   OH243864   5.255   1.957  15.606  0.1452  0.4181  0.0577
 7458TIP3    H143865   5.180   1.941  15.663 -1.1959  0.9003 -1.4951
 7458TIP3    H243866   5.272   2.051  15.615 -1.7209  1.0551 -2.1599
 7459TIP3   OH243867   0.153   0.194  14.503  0.2643  0.1424  0.0614
 7459TIP3    H143868   0.119   0.191  14.593 -0.0272  1.1129 -0.0002
 7459TIP3    H243869   0.238   0.239  14.512 -0.1437  0.9940 -0.2410
 7460TIP3   OH243870   3.788   0.030   4.329  0.0967 -0.4197 -0.2605
 7460TIP3    H143871   3.795  -0.018   4.411  2.0314  1.6171  0.8822
 7460TIP3    H243872   3.858  -0.004   4.274 -1.2425 -1.8321 -1.1542
 7461TIP3   OH243873   2.812   6.358   3.352 -0.0241  0.6866  0.3866
 7461TIP3    H143874   2.867   6.306   3.409  0.4001 -1.0539 -1.4990
 7461TIP3    H243875   2.847   6.344   3.264 -1.7168  1.8199 -0.5495
 7462TIP3   OH243876   0.917   1.204  15.769  0.1033  0.2387  0.5285
 7462TIP3    H143877   0.984   1.172  15.710 -0.2487 -1.8420  1.1546
 7462TIP3    H243878   0.851   1.244  15.713 -0.5942 -2.3553 -0.6542
 7463TIP3   OH243879   0.056   4.845   3.506  0.2957 -0.4391  0.1045
 7463TIP3    H143880   0.133   4.789   3.495 -0.2627 -0.9503 -1.4655
 7463TIP3    H243881  -0.018   4.786   3.490 -0.3334  0.5084 -0.5585
 7464TIP3   OH243882   2.630   0.156  13.458  0.2550  0.0742 -0.5326
 7464TIP3    H143883   2.572   0.170  13.383 -0.7546  1.1420  0.4056
 7464TIP3    H243884   2.656   0.064  13.452  0.9918  0.3629 -2.7102
 7465TIP3   OH243885   2.451   3.556  15.476 -0.0578 -0.4507  0.1109
 7465TIP3    H143886   2.432   3.610  15.552  0.0346 -1.0445  0.5676
 7465TIP3    H243887   2.366   3.526  15.445 -0.0630 -0.6902  0.3487
 7466TIP3   OH243888   6.031   6.276   4.304 -0.0873 -0.3756  0.1932
 7466TIP3    H143889   6.082   6.218   4.360 -2.5434 -1.6721  1.2496
 7466TIP3    H243890   5.967   6.219   4.262 -0.0519  1.0091 -1.8798
 7467TIP3   OH243891   5.665   6.560  17.012  0.4603 -0.4207  0.3762
 7467TIP3    H143892   5.654   6.575  17.106 -0.5387 -0.9477  0.3559
 7467TIP3    H243893   5.704   6.641  16.979 -1.6800  0.8488  0.8046
 7468TIP3   OH243894   5.556   4.145  15.924 -0.1304 -0.2091  0.0877
 7468TIP3    H143895   5.538   4.180  16.011 -2.1942 -1.0459  0.0693
 7468TIP3    H243896   5.566   4.050  15.938 -1.2387 -0.4553 -0.6499
 7469TIP3   OH243897   1.380   4.432   5.318 -0.4907 -0.5761  0.1426
 7469TIP3    H143898   1.321   4.462   5.250 -0.5614 -1.7715 -0.3515
 7469TIP3    H243899   1.442   4.504   5.329 -1.0650  0.0340 -0.4759
 7470TIP3   OH243900   1.419   1.563  14.443  0.3121 -0.6950  0.1099
 7470TIP3    H143901   1.368   1.541  14.365 -0.2259 -2.5915  0.9344
 7470TIP3    H243902   1.409   1.657  14.453 -1.0363 -0.6771 -1.1449
 7471TIP3   OH243903   2.937   1.113  12.579 -0.1542  0.3413 -0.2793
 7471TIP3    H143904   2.876   1.076  12.643  0.6348 -0.3012  0.1250
 7471TIP3    H243905   2.881   1.162  12.518 -1.2559 -1.4413 -0.7838
 7472TIP3   OH243906   0.597   5.318   4.136  0.2405 -0.2942 -0.4955
 7472TIP3    H143907   0.620   5.411   4.133  1.2668 -0.5362 -0.5268
 7472TIP3    H243908   0.505   5.315   4.113 -0.1862  0.8503  0.9516
 7473TIP3   OH243909   6.371   3.866  11.088  0.1551  0.0525 -0.9319
 7473TIP3    H143910   6.326   3.797  11.039  0.3717  0.7872 -2.2098
 7473TIP3    H243911   6.306   3.896  11.152  0.5680 -2.3943  0.7946
 7474TIP3   OH243912   5.695   4.161  11.823 -0.6127  0.1851 -0.7123
 7474TIP3    H143913   5.746   4.090  11.863 -0.1058  1.3572  0.8489
 7474TIP3    H243914   5.615   4.164  11.875 -1.3102 -0.1961 -1.7397
 7475TIP3   OH243915   6.168   4.597   4.753 -0.5546  0.0568 -0.1669
 7475TIP3    H143916   6.262   4.612   4.739 -0.3458 -1.1205 -0.1414
 7475TIP3    H243917   6.160   4.583   4.847 -0.4166 -1.8312 -0.3924
 7476TIP3   OH243918   3.648   0.073  15.102 -0.2637 -0.0026 -0.2375
 7476TIP3    H143919   3.722   0.075  15.162 -1.3761 -0.0522  1.2057
 7476TIP3    H243920   3.576   0.111  15.152 -1.7251 -1.8273 -0.8191
 7477TIP3   OH243921   5.073   5.571   5.059  0.0233  0.1041 -0.4998
 7477TIP3    H143922   5.010   5.533   5.119  1.4774  0.4298  1.3461
 7477TIP3    H243923   5.021   5.603   4.985 -1.7494 -0.9666  0.2326
 7478TIP3   OH243924   4.263   1.677   2.378  0.4416 -0.2005  0.3608
 7478TIP3    H143925   4.207   1.652   2.452 -1.6324  0.4185 -0.9223
 7478TIP3    H243926   4.257   1.603   2.318  0.4620  0.1505 -0.0776
 7479TIP3   OH243927   2.898   1.336   2.935  0.1517  0.0571  0.2665
 7479TIP3    H143928   2.869   1.422   2.965 -1.3068 -0.2439 -0.1539
 7479TIP3    H243929   2.886   1.338   2.840  0.2463 -0.5487  0.2352
 7480TIP3   OH243930   0.707   6.444   4.442 -0.9098  0.0855  0.2305
 7480TIP3    H143931   0.739   6.374   4.499 -0.4107 -0.2505 -0.4413
 7480TIP3    H243932   0.778   6.458   4.379 -1.1265  0.9910  0.1633
 7481TIP3   OH243933   1.886   5.377  12.280  0.7273 -0.0056  0.2336
 7481TIP3    H143934   1.812   5.437  12.268  1.3727  0.5555 -1.2484
 7481TIP3    H243935   1.903   5.343  12.192  0.5148 -2.2534  0.9800
 7482TIP3   OH243936   3.482   0.164   2.889  0.8192  0.1295 -0.6136
 7482TIP3    H143937   3.424   0.239   2.901 -0.3983 -0.6506 -1.3903
 7482TIP3    H243938   3.553   0.178   2.952 -0.5672  0.7658  0.8831
 7483TIP3   OH243939   4.074   5.494   6.293 -0.2463  0.5196  0.0232
 7483TIP3    H143940   4.089   5.582   6.328 -0.0398 -0.4417  2.4991
 7483TIP3    H243941   4.160   5.453   6.292 -0.7531 -0.7760  2.2566
 7484TIP3   OH243942   6.546   3.247  13.914  0.0544 -0.5194  0.3930
 7484TIP3    H143943   6.516   3.334  13.891  0.1230 -0.5853  0.0438
 7484TIP3    H243944   6.476   3.189  13.885  0.1140 -0.6001  0.4092
 7485TIP3   OH243945   0.714   3.198   0.488  0.3227  0.5374  0.4802
 7485TIP3    H143946   0.660   3.133   0.532  0.1523  0.3434 -0.0136
 7485TIP3    H243947   0.685   3.198   0.397 -0.4267  2.0864  0.6790
 7486TIP3   OH243948   6.550   3.936  16.015  0.2964 -0.1012  0.2714
 7486TIP3    H143949   6.514   3.965  15.932  0.3323 -0.5744  0.0869
 7486TIP3    H243950   6.578   3.846  15.999  1.3277  0.1647  0.4806
 7487TIP3   OH243951   6.691   3.962   2.478  0.3203  0.0379 -0.7747
 7487TIP3    H143952   6.634   3.894   2.516  0.2364  0.4476 -0.1526
 7487TIP3    H243953   6.671   3.960   2.385  0.4967 -0.9631 -0.8100
 7488TIP3   OH243954   6.662   4.860  10.741 -0.8576  0.2015 -0.2766
 7488TIP3    H143955   6.753   4.862  10.711 -0.4513  2.6572  0.8504
 7488TIP3    H243956   6.614   4.911  10.676 -0.8391  1.4339  0.6344
 7489TIP3   OH243957   0.693   0.216   3.894  0.1015 -0.4369  0.0386
 7489TIP3    H143958   0.749   0.283   3.856 -0.4108 -0.6011 -1.0530
 7489TIP3    H243959   0.721   0.209   3.985 -0.8336  2.3554  0.6397
 7490TIP3   OH243960   1.049   0.185  15.250  0.0570  0.0358  0.3754
 7490TIP3    H143961   1.008   0.105  15.218 -1.0565  1.5613 -2.3643
 7490TIP3    H243962   1.137   0.185  15.212  0.3724 -0.2574  1.0833
 7491TIP3   OH243963   4.790   2.174   2.049 -0.2724 -0.1559 -0.2719
 7491TIP3    H143964   4.743   2.152   2.130 -1.6095  0.0183 -0.9748
 7491TIP3    H243965   4.882   2.155   2.069 -0.7201 -1.2518  0.8947
 7492TIP3   OH243966   0.368   3.155  15.248  0.3314 -0.2477  0.2562
 7492TIP3    H143967   0.412   3.180  15.166  0.2353  2.8708  1.0436
 7492TIP3    H243968   0.385   3.228  15.307  0.0969 -2.2507  2.9630
 7493TIP3   OH243969   3.246   0.709   4.904  0.1929 -0.5297  0.7733
 7493TIP3    H143970   3.276   0.619   4.917 -0.0370 -0.8403 -0.6605
 7493TIP3    H243971   3.169   0.716   4.960  0.7522 -0.9118  1.6189
 7494TIP3   OH243972   0.621   3.381   5.362 -0.6227  0.4539  0.1811
 7494TIP3    H143973   0.536   3.354   5.327 -0.2649 -2.3743  1.2271
 7494TIP3    H243974   0.685   3.344   5.302 -0.0832  1.5255  0.0673
 7495TIP3   OH243975   6.064   0.213   1.210 -0.4742  0.5979  0.0342
 7495TIP3    H143976   6.123   0.143   1.181 -0.3611  1.1770 -1.2039
 7495TIP3    H243977   6.116   0.263   1.273 -0.8355 -0.8751  1.6066
 7496TIP3   OH243978   1.170   6.118   0.313 -0.6968 -0.6467 -0.2186
 7496TIP3    H143979   1.179   6.214   0.313  2.2760 -0.7768  1.8800
 7496TIP3    H243980   1.223   6.089   0.239 -1.4581 -0.6976 -0.7508
 7497TIP3   OH243981   4.593   0.938  16.842 -0.0298  0.0466 -0.4142
 7497TIP3    H143982   4.545   0.859  16.817 -0.5083  0.9755 -2.6664
 7497TIP3    H243983   4.536   0.981  16.906  0.0491 -1.1870  0.5293
 7498TIP3   OH243984   3.785   2.856   3.698  0.2101 -0.5554  0.3243
 7498TIP3    H143985   3.761   2.830   3.787  0.2219  1.5257  1.0093
 7498TIP3    H243986   3.872   2.818   3.685 -0.5056 -2.3458  0.4970
 7499TIP3   OH243987   4.349   3.271  13.464  0.3709 -0.0894 -0.1283
 7499TIP3    H143988   4.418   3.255  13.399  0.2467 -0.2037 -0.2326
 7499TIP3    H243989   4.377   3.351  13.509  0.7806 -0.3566  0.1051
 7500TIP3   OH243990   6.360   6.633  16.473 -0.1572 -0.0267  0.2855
 7500TIP3    H143991   6.335   6.622  16.565  0.4387  2.3980  0.8200
 7500TIP3    H243992   6.278   6.650  16.427 -0.3815 -0.5873  0.4687
 7501TIP3   OH243993   5.705   3.863  17.197  0.1818 -0.3422 -0.5087
 7501TIP3    H143994   5.733   3.952  17.180 -0.8898 -0.1015 -1.0970
 7501TIP3    H243995   5.628   3.871  17.254  0.6260 -0.9331  0.1979
 7502TIP3   OH243996   2.102   0.388  16.233 -0.3070 -0.7790 -0.2232
 7502TIP3    H143997   2.011   0.419  16.224  0.7306  2.3903 -0.9644
 7502TIP3    H243998   2.107   0.313  16.173 -1.7207  0.8164 -2.4955
 7503TIP3   OH243999   5.184   2.048  17.127  0.2045  0.4741 -0.3142
 7503TIP3    H144000   5.147   2.102  17.196 -1.4936 -0.4825 -0.4384
 7503TIP3    H244001   5.192   2.107  17.052  0.4496  1.0850  0.1837
 7504TIP3   OH244002   4.966   0.418  15.404 -0.5274 -0.3868 -0.7011
 7504TIP3    H144003   4.891   0.359  15.416 -1.1084  0.4672 -0.0533
 7504TIP3    H244004   4.928   0.499  15.370  0.1645 -0.0973 -0.8060
 7505TIP3   OH244005   6.206   3.861   2.546 -0.2267  0.2169  0.2642
 7505TIP3    H144006   6.248   3.780   2.518 -0.6811  0.1999 -0.3853
 7505TIP3    H244007   6.187   3.847   2.639  0.6567 -0.0015  0.4225
 7506TIP3   OH244008   1.885   5.158  16.330 -0.4048 -0.0671 -0.0311
 7506TIP3    H144009   1.962   5.102  16.315 -0.8423 -1.7694  3.1415
 7506TIP3    H244010   1.920   5.247  16.330  0.7077 -0.3958 -3.0910
 7507TIP3   OH244011   0.153   1.898  11.571  0.0656 -0.4021  0.4145
 7507TIP3    H144012   0.114   1.941  11.495  0.2712 -1.4140 -0.2848
 7507TIP3    H244013   0.165   1.969  11.635 -2.3289  0.0520  0.4359
 7508TIP3   OH244014   6.043   2.934  16.474  0.0795  0.3725 -0.4861
 7508TIP3    H144015   6.137   2.927  16.455 -0.2115  0.6282 -2.2068
 7508TIP3    H244016   6.014   2.843  16.482  0.6974  0.2989  1.5167
 7509TIP3   OH244017   0.848   2.554  10.786  0.2786  0.0688 -0.3565
 7509TIP3    H144018   0.787   2.494  10.744  0.4484 -1.9372  2.0240
 7509TIP3    H244019   0.933   2.531  10.748  0.1037  0.1448 -0.8093
 7510TIP3   OH244020   0.630   0.690  12.872  0.2642  0.2760  0.5443
 7510TIP3    H144021   0.569   0.749  12.828  0.9661  0.3059 -0.4127
 7510TIP3    H244022   0.623   0.608  12.824 -0.1885 -0.2307  1.4344
 7511TIP3   OH244023   2.465   5.468  13.288 -0.3818 -0.3171 -0.6761
 7511TIP3    H144024   2.525   5.393  13.284 -0.4957 -0.3882 -1.2181
 7511TIP3    H244025   2.497   5.528  13.221 -1.2738 -0.6432 -1.4315
 7512TIP3   OH244026   1.483   3.612  15.625 -0.5292 -0.1641  0.2491
 7512TIP3    H144027   1.431   3.629  15.703 -1.5419  1.3226 -0.6983
 7512TIP3    H244028   1.456   3.679  15.562  0.8115 -0.8276 -1.1235
 7513TIP3   OH244029   2.057   0.973   3.568 -0.3076 -0.5195 -0.3079
 7513TIP3    H144030   1.976   0.923   3.571 -1.5949  1.4555  0.1922
 7513TIP3    H244031   2.028   1.064   3.563  1.9057  0.1912 -1.3852
 7514TIP3   OH244032   0.080   3.605   0.785 -0.4189  0.0168 -0.4212
 7514TIP3    H144033   0.007   3.665   0.797  0.1028  0.5593  0.0835
 7514TIP3    H244034   0.063   3.533   0.847 -2.5588 -1.8991 -2.9705
 7515TIP3   OH244035   5.915   3.731   4.848  0.5481 -0.2025  0.0467
 7515TIP3    H144036   5.925   3.720   4.943 -0.3203 -3.4133 -0.1223
 7515TIP3    H244037   5.974   3.665   4.810 -0.5651 -0.3208 -1.5809
 7516TIP3   OH244038   1.060   0.825   3.981 -0.3162  0.8052  0.0295
 7516TIP3    H144039   1.117   0.815   3.904  1.2501  0.1518  1.2263
 7516TIP3    H244040   1.008   0.903   3.962  0.4432  1.0036 -1.4221
 7517TIP3   OH244041   3.392   2.672  13.024 -0.4787 -0.6375 -0.1962
 7517TIP3    H144042   3.377   2.763  12.996  1.7125 -0.6833 -1.7667
 7517TIP3    H244043   3.376   2.620  12.945 -0.4705 -1.5007  0.3612
 7518TIP3   OH244044   3.953   3.366  16.676 -0.0769 -0.0637  0.1727
 7518TIP3    H144045   3.931   3.387  16.767 -0.9058 -0.5106  0.0831
 7518TIP3    H244046   3.960   3.451  16.633 -1.2590  0.1104  0.2974
 7519TIP3   OH244047   1.007   6.054  13.751 -0.5934  0.1887  0.4225
 7519TIP3    H144048   1.031   5.963  13.771 -2.0197  0.1273  2.0555
 7519TIP3    H244049   0.912   6.057  13.760 -0.5684  1.8598  0.5171
 7520TIP3   OH244050   5.385   2.354  15.758  0.5501  0.3209 -0.1226
 7520TIP3    H144051   5.400   2.269  15.801 -0.3619 -0.6815 -1.7051
 7520TIP3    H244052   5.319   2.336  15.691  2.4391  1.6325 -2.4861
 7521TIP3   OH244053   3.569   2.174  11.368 -0.2357  0.5928  0.2587
 7521TIP3    H144054   3.572   2.245  11.303 -1.6181 -0.1664 -0.6966
 7521TIP3    H244055   3.650   2.183  11.417 -0.6965  3.3381  0.7060
 7522TIP3   OH244056   6.082   0.585  12.122 -0.2142 -0.0645  0.4358
 7522TIP3    H144057   6.122   0.562  12.038  1.6683 -0.4271  1.3715
 7522TIP3    H244058   5.997   0.622  12.099  0.3896  0.1536 -1.6392
 7523TIP3   OH244059   2.270   5.960   1.451  0.1820 -0.0490  0.0342
 7523TIP3    H144060   2.348   6.014   1.461  0.4796 -0.3708 -0.5133
 7523TIP3    H244061   2.301   5.881   1.407  0.1818 -1.6154  2.6158
 7524TIP3   OH244062   3.978   5.242   4.754  0.2032 -0.5813 -0.0788
 7524TIP3    H144063   4.074   5.248   4.757  0.1255  0.8854  1.8832
 7524TIP3    H244064   3.953   5.230   4.846 -1.5419  0.1162 -0.4352
 7525TIP3   OH244065   2.710   2.947  15.920 -0.2607 -0.2207 -0.0967
 7525TIP3    H144066   2.711   3.042  15.916  0.7206 -0.2417 -0.4236
 7525TIP3    H244067   2.617   2.924  15.928 -0.5835  0.7066 -1.1025
 7526TIP3   OH244068   6.772   0.389   4.205  0.0303  0.0763  0.1511
 7526TIP3    H144069   6.678   0.378   4.221  0.2941 -2.2198  0.4425
 7526TIP3    H244070   6.777   0.453   4.134 -1.7525  0.2804  0.1749
 7527TIP3   OH244071   0.969   3.105   5.186  0.4790  0.1170  0.2292
 7527TIP3    H144072   0.994   3.050   5.112 -1.3148 -0.4483 -0.0035
 7527TIP3    H244073   1.046   3.107   5.242  1.7169  0.1774 -1.4240
 7528TIP3   OH244074   2.615   6.717  16.211  0.3721 -0.0446 -0.0786
 7528TIP3    H144075   2.552   6.782  16.181 -0.2199 -0.7466 -0.4030
 7528TIP3    H244076   2.652   6.680  16.131 -0.3834 -1.1301  0.0442
 7529TIP3   OH244077   1.760   4.518   1.145  0.2839 -1.0468  0.1184
 7529TIP3    H144078   1.773   4.553   1.057  0.3701 -0.8333  0.2156
 7529TIP3    H244079   1.713   4.586   1.192 -1.0198 -1.7219 -0.1643
 7530TIP3   OH244080   6.098   4.046  11.557  0.0864  0.3924  0.4476
 7530TIP3    H144081   6.162   3.976  11.573  1.8244  2.1479  1.5662
 7530TIP3    H244082   6.140   4.104  11.494 -1.6876  0.0583 -1.1416
 7531TIP3   OH244083   5.342   2.728  12.411  0.0333  0.5134  0.6265
 7531TIP3    H144084   5.275   2.752  12.475  0.4835  0.4570  1.1248
 7531TIP3    H244085   5.388   2.809  12.392  0.2470  0.4285  0.7800
 7532TIP3   OH244086   5.924   1.408  11.142  0.2144  1.2326  0.5366
 7532TIP3    H144087   5.994   1.398  11.078 -0.5423 -0.2897 -0.1299
 7532TIP3    H244088   5.854   1.453  11.094 -1.2818 -1.9909 -0.6084
 7533TIP3   OH244089   6.370   4.917   0.557 -0.5606  0.4216 -0.5577
 7533TIP3    H144090   6.327   4.831   0.563 -0.4242  0.3555 -0.5138
 7533TIP3    H244091   6.464   4.896   0.556 -0.3804  0.6858  2.2409
 7534TIP3   OH244092   6.316   0.722   0.262 -0.2069 -0.0736 -0.0825
 7534TIP3    H144093   6.253   0.794   0.256  0.0480  0.1311 -0.3236
 7534TIP3    H244094   6.379   0.740   0.192 -1.3083 -1.6499 -1.5727
 7535TIP3   OH244095   0.331   2.673  11.857 -0.3012 -0.3356  0.0333
 7535TIP3    H144096   0.324   2.682  11.762  1.7056  0.6620 -0.0700
 7535TIP3    H244097   0.246   2.703  11.890  0.2807  3.2982 -1.2637
 7536TIP3   OH244098   1.334   4.985  15.018 -0.5872 -0.4589  0.0963
 7536TIP3    H144099   1.345   4.934  14.938  0.7789  0.6328 -0.4536
 7536TIP3    H244100   1.290   4.926  15.079  2.5019 -2.9247  0.1246
 7537TIP3   OH244101   1.820   5.449   0.994  0.3992 -0.1419 -0.1744
 7537TIP3    H144102   1.892   5.490   1.042  0.6562 -0.2408 -0.4759
 7537TIP3    H244103   1.838   5.355   0.998  0.5772 -0.1347 -0.7050
 7538TIP3   OH244104   5.922   2.388   1.564 -0.2912  0.0269  0.6211
 7538TIP3    H144105   5.869   2.327   1.512  2.9070 -1.4020 -1.2677
 7538TIP3    H244106   5.964   2.333   1.631  0.5545  0.6368  0.6110
 7539TIP3   OH244107   0.297   4.162  16.416 -0.5056 -0.1774 -0.8370
 7539TIP3    H144108   0.261   4.179  16.329 -3.5878 -0.5175  0.2300
 7539TIP3    H244109   0.246   4.218  16.474 -0.0297 -1.5204  0.9799
 7540TIP3   OH244110   3.067   1.081  14.184 -0.0318  0.2657  0.6081
 7540TIP3    H144111   3.031   1.168  14.199  0.4271  0.7782 -1.0234
 7540TIP3    H244112   2.991   1.028  14.158 -0.0324  0.6637 -0.2214
 7541TIP3   OH244113   6.249   3.430   0.454 -0.1701 -0.6407 -1.0849
 7541TIP3    H144114   6.170   3.404   0.405 -0.8602 -0.2479 -0.2039
 7541TIP3    H244115   6.242   3.383   0.537 -0.7548  1.2729 -0.0011
 7542TIP3   OH244116   6.174   4.169  14.756 -0.3797  0.1537  0.3576
 7542TIP3    H144117   6.158   4.211  14.672 -1.8802 -0.9180  0.0729
 7542TIP3    H244118   6.269   4.166  14.764 -0.1967  2.5101 -0.1340
 7543TIP3   OH244119   3.010   5.747  12.214  0.1201 -0.6430 -0.2400
 7543TIP3    H144120   3.018   5.779  12.304 -0.5364 -0.4253 -0.2528
 7543TIP3    H244121   2.922   5.708  12.210  1.2947 -3.6409  0.1480
 7544TIP3   OH244122   5.733   4.172  14.533  0.4776  0.5036  0.0446
 7544TIP3    H144123   5.771   4.097  14.578  0.9835 -0.7073 -2.2402
 7544TIP3    H244124   5.805   4.233  14.522  0.8928 -0.1471 -0.9767
 7545TIP3   OH244125   4.338   5.591   3.909 -0.0797 -0.2703  0.3938
 7545TIP3    H144126   4.280   5.665   3.926 -2.8459 -2.4332  1.2054
 7545TIP3    H244127   4.298   5.518   3.957  2.9786 -2.1206  0.3725
 7546TIP3   OH244128   3.513   6.308   5.954 -0.1382  0.8629  0.6831
 7546TIP3    H144129   3.515   6.226   5.905  0.6606  2.3975 -2.0820
 7546TIP3    H244130   3.605   6.334   5.959 -0.5433  3.5567 -2.3517
 7547TIP3   OH244131   1.330   3.814   0.295 -0.5443 -0.1813 -0.1594
 7547TIP3    H144132   1.368   3.840   0.211  0.4045 -1.3568 -0.1221
 7547TIP3    H244133   1.371   3.872   0.359 -2.8647  2.2234 -0.6596
 7548TIP3   OH244134   1.062   1.782   1.469  0.3877  0.1626 -0.2311
 7548TIP3    H144135   1.020   1.868   1.457 -0.5845 -0.1357  0.8277
 7548TIP3    H244136   1.120   1.794   1.544  0.6782  0.0490 -0.4398
 7549TIP3   OH244137   5.587   1.725  16.915  0.3454  0.0785 -0.5106
 7549TIP3    H144138   5.672   1.769  16.915  0.8318 -0.6921  2.2341
 7549TIP3    H244139   5.528   1.787  16.959  0.0036 -0.2628 -0.4903
 7550TIP3   OH244140   0.909   5.760   2.568  0.4532 -0.1606  0.3886
 7550TIP3    H144141   0.937   5.849   2.549  0.7888  0.8481  4.5509
 7550TIP3    H244142   0.865   5.731   2.489  2.3179  2.8127 -1.9548
 7551TIP3   OH244143   0.919   5.620   2.033 -0.3608 -0.3377  0.7059
 7551TIP3    H144144   0.991   5.619   2.096  0.0455  1.5393  0.3366
 7551TIP3    H244145   0.950   5.566   1.960 -0.0113 -0.8661  1.2371
 7552TIP3   OH244146   5.418   6.120   3.460  0.2372 -0.4609  0.2085
 7552TIP3    H144147   5.380   6.114   3.373 -0.4702 -0.1234  0.4892
 7552TIP3    H244148   5.345   6.106   3.520  0.3745  1.0548  0.7777
 7553TIP3   OH244149   5.233   4.383  12.483  0.2904 -0.4542 -0.1654
 7553TIP3    H144150   5.300   4.353  12.544 -0.3778  0.9092  1.3119
 7553TIP3    H244151   5.191   4.457  12.527 -0.7598  0.0948 -1.9561
 7554TIP3   OH244152   4.500   2.453  13.934 -0.3029 -1.0001 -0.4918
 7554TIP3    H144153   4.474   2.484  14.020 -1.3182 -0.5005 -0.9641
 7554TIP3    H244154   4.453   2.370  13.922  1.7933 -2.4098  0.4435
 7555TIP3   OH244155   0.926   3.517  14.085  0.7055 -0.3753  0.1332
 7555TIP3    H144156   0.868   3.520  14.009  0.7718  1.1137  0.1141
 7555TIP3    H244157   1.008   3.482  14.051  0.4885 -0.4682 -0.3078
 7556TIP3   OH244158   2.657   4.783   2.997  0.0177  0.0451  0.5371
 7556TIP3    H144159   2.645   4.720   2.926 -1.4565  0.5614  0.2974
 7556TIP3    H244160   2.749   4.808   2.991  0.3188 -1.1271 -0.1568
 7557TIP3   OH244161   2.045   1.217  13.687  0.0558  0.2734  0.0000
 7557TIP3    H144162   1.967   1.241  13.637  0.8621  1.3308 -0.7973
 7557TIP3    H244163   2.103   1.176  13.624  0.4172  0.0967  0.4408
 7558TIP3   OH244164   1.239   3.495   5.445 -0.1769  0.2828  0.2086
 7558TIP3    H144165   1.190   3.577   5.433 -1.4642 -0.5608 -0.6153
 7558TIP3    H244166   1.211   3.440   5.372 -1.1694 -1.7561  2.0232
 7559TIP3   OH244167   4.141   6.126  11.138  0.2727  0.4454 -0.5660
 7559TIP3    H144168   4.112   6.062  11.203  1.4305 -1.4573 -1.8103
 7559TIP3    H244169   4.075   6.121  11.069  0.0355  1.0762 -0.3899
 7560TIP3   OH244170   4.278   5.222   3.778 -0.2212 -0.3822  0.1643
 7560TIP3    H144171   4.202   5.246   3.725  0.4226  0.8969 -0.2123
 7560TIP3    H244172   4.278   5.126   3.777  0.4025 -0.4538 -3.1301
 7561TIP3   OH244173   0.940   4.951  10.942  0.0498  0.1845 -0.4902
 7561TIP3    H144174   0.939   5.045  10.959  0.0945 -0.2171  2.2383
 7561TIP3    H244175   1.014   4.918  10.993 -0.8993 -1.5008 -0.1230
 7562TIP3   OH244176   3.576   2.494  15.268 -0.2776  0.0199  0.1615
 7562TIP3    H144177   3.582   2.459  15.179  2.1194 -0.6187  0.5011
 7562TIP3    H244178   3.502   2.447  15.308 -1.1425  0.0472 -1.3477
 7563TIP3   OH244179   1.622   2.769  11.859 -0.1479  0.0916 -0.8595
 7563TIP3    H144180   1.637   2.811  11.943  0.3115  0.0777 -0.9326
 7563TIP3    H244181   1.676   2.818  11.797  0.2024 -0.4468 -0.9856
 7564TIP3   OH244182   5.163   2.472   5.425 -0.1580 -0.4801  0.0520
 7564TIP3    H144183   5.131   2.461   5.515 -0.0676  3.5810  0.7966
 7564TIP3    H244184   5.084   2.488   5.373 -0.1714 -2.3862 -0.5799
 7565TIP3   OH244185   2.185   3.524   1.481 -0.3504  0.8110 -0.0729
 7565TIP3    H144186   2.104   3.567   1.454 -0.4153  1.1414  0.6300
 7565TIP3    H244187   2.226   3.497   1.399 -0.6647  1.5583 -0.4843
 7566TIP3   OH244188   5.019   0.746   3.878  0.0448  0.0313 -0.3289
 7566TIP3    H144189   5.018   0.670   3.935 -0.9022  0.1461 -0.1875
 7566TIP3    H244190   5.111   0.774   3.878  0.0381  0.1403  1.2656
 7567TIP3   OH244191   6.133   5.044  16.294 -0.5414  0.5615  0.1937
 7567TIP3    H144192   6.197   4.982  16.328 -0.0757  1.2871  0.6681
 7567TIP3    H244193   6.102   5.005  16.212 -0.6514 -0.5441  0.7390
 7568TIP3   OH244194   1.929   3.560   1.367  0.2244  0.0188  0.1181
 7568TIP3    H144195   1.857   3.498   1.368  1.7820 -1.9094 -0.6041
 7568TIP3    H244196   1.894   3.638   1.322 -1.9808  0.0014  1.6614
 7569TIP3   OH244197   3.021   4.545   2.979  0.8323 -0.1935 -0.7405
 7569TIP3    H144198   2.972   4.546   3.061  0.8249  1.4728 -0.7305
 7569TIP3    H244199   3.100   4.494   2.999  0.4716 -0.4489  0.0760
 7570TIP3   OH244200   4.360   4.693  13.616  0.1294 -0.2461  0.0157
 7570TIP3    H144201   4.391   4.610  13.650 -0.0572 -1.2794 -2.1653
 7570TIP3    H244202   4.265   4.691  13.630  0.2925  0.3879  1.4592
 7571TIP3   OH244203   6.740   0.220  13.399  0.4358  0.8213 -0.4814
 7571TIP3    H144204   6.742   0.293  13.337 -0.1888  0.4696 -0.9234
 7571TIP3    H244205   6.649   0.217  13.429  0.5480  0.4664 -0.1660
 7572TIP3   OH244206   2.053   4.722   1.217 -0.3633  0.4967  0.3729
 7572TIP3    H144207   2.059   4.793   1.153 -0.5375  0.3488  0.1917
 7572TIP3    H244208   2.036   4.644   1.164  1.6185 -0.0097  0.3829
 7573TIP3   OH244209   4.419   4.622   6.522  0.2338 -0.7354  0.3340
 7573TIP3    H144210   4.498   4.672   6.501  1.0880 -1.6462  1.3088
 7573TIP3    H244211   4.432   4.592   6.612 -1.9464  0.4419  1.1170
 7574TIP3   OH244212   0.451   0.749   5.296  0.2440  0.5646 -0.0538
 7574TIP3    H144213   0.398   0.818   5.337 -0.4791  1.1900 -1.9336
 7574TIP3    H244214   0.485   0.789   5.216  0.5736 -0.9827 -0.7253
 7575TIP3   OH244215   4.846   5.557  12.976  0.8641 -0.6181  0.0323
 7575TIP3    H144216   4.845   5.536  12.882  1.8097  0.2070 -0.1733
 7575TIP3    H244217   4.799   5.640  12.982 -0.7199 -1.5056  0.5319
 7576TIP3   OH244218   1.656   5.085   4.746 -0.2757  0.2757 -0.3914
 7576TIP3    H144219   1.632   5.012   4.803  1.8071 -0.9689 -0.9874
 7576TIP3    H244220   1.601   5.074   4.669 -0.9902  0.1992  0.1195
 7577TIP3   OH244221   5.734   6.225  15.398  0.3543  0.5458 -0.2444
 7577TIP3    H144222   5.826   6.247  15.384  0.2944  1.3454  0.4943
 7577TIP3    H244223   5.697   6.220  15.310  1.2903 -0.7319 -0.5959
 7578TIP3   OH244224   4.310   3.621   4.358  0.1702 -0.5402 -0.1903
 7578TIP3    H144225   4.338   3.650   4.445 -1.0170 -0.6857  0.2634
 7578TIP3    H244226   4.314   3.699   4.304 -0.2188 -0.1795  0.2947
 7579TIP3   OH244227   2.706   5.604  17.108  0.0944 -0.1151  0.4744
 7579TIP3    H144228   2.762   5.609  17.031 -1.0511 -0.4892 -0.4285
 7579TIP3    H244229   2.661   5.689  17.110  0.6984  0.1893  1.1969
 7580TIP3   OH244230   6.394   0.803  12.727 -0.3944  0.2578  0.1061
 7580TIP3    H144231   6.389   0.709  12.706 -0.4044 -0.2574  2.1401
 7580TIP3    H244232   6.417   0.845  12.644 -2.2574 -1.3040 -1.3187
 7581TIP3   OH244233   0.497   3.022  12.224  0.1422 -0.1389  1.2264
 7581TIP3    H144234   0.544   2.997  12.304  1.7450  1.6153  0.8858
 7581TIP3    H244235   0.565   3.024  12.157 -1.0619 -0.8613 -0.0608
 7582TIP3   OH244236   2.004   0.218   0.922 -0.1801  0.1809 -0.3439
 7582TIP3    H144237   1.982   0.279   0.993  0.8108  1.0528 -0.7544
 7582TIP3    H244238   2.099   0.226   0.913 -0.2716 -0.0434 -1.6527
 7583TIP3   OH244239   1.707   3.406   2.248 -0.1430 -0.3503  0.8882
 7583TIP3    H144240   1.636   3.441   2.195 -0.1842 -0.4941  0.8476
 7583TIP3    H244241   1.739   3.481   2.299 -0.1262 -0.2230  0.6878
 7584TIP3   OH244242   5.837   3.596  11.503 -0.2800 -0.2057  0.2093
 7584TIP3    H144243   5.870   3.544  11.576  1.4875 -0.3569 -0.6567
 7584TIP3    H244244   5.844   3.687  11.533 -1.1132 -0.3353  0.8235
 7585TIP3   OH244245   6.124   6.771  13.010  0.0199 -0.4716  0.0869
 7585TIP3    H144246   6.123   6.771  13.106 -0.1554  0.3407  0.0969
 7585TIP3    H244247   6.216   6.757  12.987  0.6166  2.1719  0.4466
 7586TIP3   OH244248   0.701   1.916  11.418  0.4499 -0.3034  0.3848
 7586TIP3    H144249   0.632   1.946  11.359 -0.3684  0.9679  1.9028
 7586TIP3    H244250   0.654   1.879  11.493  1.4042  0.4753  1.3963
 7587TIP3   OH244251   4.484   5.947  16.376 -0.1548  0.4632  0.2183
 7587TIP3    H144252   4.408   5.893  16.356 -0.3689  0.7220  0.3287
 7587TIP3    H244253   4.487   5.952  16.471  0.1363  0.2623  0.2221
 7588TIP3   OH244254   0.085   4.780  16.883 -0.1050  0.0259 -0.1023
 7588TIP3    H144255   0.159   4.769  16.943  0.8476 -1.6203 -1.4995
 7588TIP3    H244256   0.071   4.875  16.879  2.3456  0.4263 -0.2678
 7589TIP3   OH244257   1.832   1.953  11.288 -0.2625  0.0305  0.4463
 7589TIP3    H144258   1.921   1.985  11.277 -0.5599  0.5895 -0.4711
 7589TIP3    H244259   1.785   2.027  11.327  0.0503 -0.8496  2.5807
 7590TIP3   OH244260   5.257   6.748   5.234 -0.6645  0.2453  0.1415
 7590TIP3    H144261   5.209   6.669   5.210  0.3399 -0.7155  1.1662
 7590TIP3    H244262   5.214   6.780   5.313  0.8791 -1.1634  1.6269
 7591TIP3   OH244263   3.743   3.347   1.661 -0.2345 -0.3478  0.4065
 7591TIP3    H144264   3.775   3.437   1.670  0.2055 -0.1783 -2.1221
 7591TIP3    H244265   3.648   3.356   1.652 -0.0138  0.2556 -2.5483
 7592TIP3   OH244266   3.494   0.818  16.100 -0.0905  0.1623  0.4910
 7592TIP3    H144267   3.508   0.907  16.132  0.3337  1.0453 -1.9283
 7592TIP3    H244268   3.572   0.770  16.126  1.0778  1.3265 -0.6802
 7593TIP3   OH244269   2.630   3.471   2.233  0.5488  0.1464  0.3366
 7593TIP3    H144270   2.681   3.487   2.153 -0.4647  0.2114 -0.3145
 7593TIP3    H244271   2.550   3.522   2.220 -0.9529 -2.1709  0.0508
 7594TIP3   OH244272   1.249   4.234   2.698  0.7538 -0.1125  0.0440
 7594TIP3    H144273   1.250   4.326   2.724 -0.6288  0.0255 -0.3205
 7594TIP3    H244274   1.331   4.222   2.649  0.5048  1.1709 -0.7409
 7595TIP3   OH244275   3.088   0.806  13.238 -0.3331  0.3511  0.1058
 7595TIP3    H144276   3.135   0.808  13.322  2.8894  0.3557 -1.5633
 7595TIP3    H244277   3.108   0.889  13.197  0.0722 -0.5500 -1.6074
 7596TIP3   OH244278   2.753   4.610  16.462  0.5518 -0.3621  0.1898
 7596TIP3    H144279   2.746   4.702  16.435 -1.5879 -1.1299 -2.2128
 7596TIP3    H244280   2.719   4.560  16.388  1.3655 -3.1190  1.5374
 7597TIP3   OH244281   5.528   1.210  14.879  0.2554  0.3695  0.2879
 7597TIP3    H144282   5.592   1.161  14.932 -0.1406 -2.9124 -1.9616
 7597TIP3    H244283   5.578   1.242  14.804  0.1510  2.0615  0.9053
 7598TIP3   OH244284   5.473   0.451  15.448 -0.3587 -0.2050  0.1228
 7598TIP3    H144285   5.453   0.397  15.524 -0.6977 -0.6539 -0.2787
 7598TIP3    H244286   5.487   0.388  15.377 -0.5752  0.2286 -0.3081
 7599TIP3   OH244287   4.519   1.798   4.224  0.3777  0.3201 -0.2801
 7599TIP3    H144288   4.446   1.738   4.240  1.8592 -2.4378 -2.8358
 7599TIP3    H244289   4.592   1.761   4.274  0.7299  1.4048  0.0241
 7600TIP3   OH244290   2.862   4.275   5.386  0.1144  0.0383 -0.4249
 7600TIP3    H144291   2.921   4.205   5.359 -2.2281 -1.7955 -1.0766
 7600TIP3    H244292   2.798   4.233   5.443  0.0558  2.1851  1.2293
 7601TIP3   OH244293   3.697   2.533  15.524  0.0008 -0.1975  0.4485
 7601TIP3    H144294   3.657   2.561  15.442 -3.4830  1.6103  2.5164
 7601TIP3    H244295   3.650   2.454  15.549 -0.6040  0.5141  1.7011
 7602TIP3   OH244296   0.111   5.850   0.642  0.3403  0.3462  0.5627
 7602TIP3    H144297   0.137   5.941   0.628  1.0831 -0.0228 -0.6694
 7602TIP3    H244298   0.022   5.844   0.608  0.5840  0.4407 -0.1061
 7603TIP3   OH244299   4.625   4.405   5.467  0.0186 -0.0780 -0.2457
 7603TIP3    H144300   4.650   4.315   5.486  0.9312  0.1672 -0.2483
 7603TIP3    H244301   4.529   4.403   5.464  0.0465 -1.1779 -0.9329
 7604TIP3   OH244302   4.869   4.506  16.037  0.4266 -0.4301  0.0363
 7604TIP3    H144303   4.785   4.545  16.012  0.0388  0.3351  2.3078
 7604TIP3    H244304   4.847   4.419  16.069  0.4804 -0.1891  0.7325
 7605TIP3   OH244305   3.450   2.816  16.259  0.5657  0.1032 -0.2855
 7605TIP3    H144306   3.466   2.853  16.172 -0.9343  1.3008 -0.0995
 7605TIP3    H244307   3.375   2.758  16.247  1.2636 -0.8799 -0.0495
 7606TIP3   OH244308   5.000   3.956   6.788  0.1928 -0.4600 -0.1687
 7606TIP3    H144309   5.015   3.997   6.703 -1.1790 -1.7846 -1.1077
 7606TIP3    H244310   4.925   4.003   6.824  2.0569  1.5145  1.3361
 7607TIP3   OH244311   0.954   0.879  11.364  0.2024 -0.0584  0.3077
 7607TIP3    H144312   0.980   0.946  11.299 -2.3284 -0.1075 -0.8583
 7607TIP3    H244313   0.859   0.884  11.366  0.1138 -1.6690  2.3875
 7608TIP3   OH244314   4.949   6.562   5.471 -0.2123 -0.1367  0.3525
 7608TIP3    H144315   4.858   6.532   5.470 -0.5282  0.6332 -2.5476
 7608TIP3    H244316   4.947   6.644   5.422  1.7495  1.0862  2.1408
 7609TIP3   OH244317   0.109   1.217  15.179  0.0249 -0.5176 -0.7116
 7609TIP3    H144318   0.190   1.191  15.134  0.2193  0.9773 -1.2888
 7609TIP3    H244319   0.046   1.150  15.154  0.5179 -0.5157 -2.0963
 7610TIP3   OH244320   4.465   4.755  16.065  0.2211 -0.2241  0.2021
 7610TIP3    H144321   4.502   4.819  16.127  0.7217  1.5593 -1.8384
 7610TIP3    H244322   4.372   4.776  16.062  0.3511  0.2849 -0.3181
 7611TIP3   OH244323   3.624   4.487  12.091  0.0523 -0.5359 -0.0317
 7611TIP3    H144324   3.641   4.515  12.181 -3.2202 -0.7732  0.7875
 7611TIP3    H244325   3.658   4.398  12.087 -0.3205 -0.7570  1.2020
 7612TIP3   OH244326   3.555   4.169  14.604  0.1151 -0.4936 -0.3811
 7612TIP3    H144327   3.602   4.137  14.527 -0.6820  0.5160 -1.3388
 7612TIP3    H244328   3.588   4.258  14.617 -1.9617  0.5409 -1.5470
 7613TIP3   OH244329   1.181   2.084  11.627 -0.2832  0.4110 -0.0065
 7613TIP3    H144330   1.241   2.111  11.557 -0.2068  0.2127 -0.0177
 7613TIP3    H244331   1.157   1.994  11.605  1.5798 -0.5309  1.4454
 7614TIP3   OH244332   0.087   4.151   2.922 -0.7376 -0.3081 -0.2354
 7614TIP3    H144333   0.064   4.145   2.829  4.2490  0.7574 -1.8511
 7614TIP3    H244334   0.138   4.072   2.940  1.5974  1.2294  0.3456
 7615TIP3   OH244335   0.877   0.856   0.771 -0.0709  0.7371 -0.5528
 7615TIP3    H144336   0.836   0.926   0.720 -0.8825  1.3997  0.9288
 7615TIP3    H244337   0.952   0.898   0.812 -0.2073  0.5789 -0.1421
 7616TIP3   OH244338   3.951   3.319  10.448 -0.2712  0.1277  0.2341
 7616TIP3    H144339   3.858   3.302  10.464 -0.2958  0.8947  0.9861
 7616TIP3    H244340   3.990   3.232  10.440 -0.7954 -0.2470  1.4897
 7617TIP3   OH244341   2.492   1.176  12.774 -0.2253 -0.0554  0.0151
 7617TIP3    H144342   2.449   1.261  12.785  0.6928  0.3910  0.2529
 7617TIP3    H244343   2.439   1.115  12.827 -0.7270  0.4204  0.0659
 7618TIP3   OH244344   5.495   2.794   2.319 -0.1048  0.2228 -0.2154
 7618TIP3    H144345   5.429   2.850   2.279  1.6338  0.7627 -2.5796
 7618TIP3    H244346   5.567   2.792   2.255  3.3600  1.8669  3.1876
 7619TIP3   OH244347   5.191   5.981   5.424 -0.5015 -0.2624  0.3512
 7619TIP3    H144348   5.146   6.017   5.500  0.1485 -0.3024  0.7622
 7619TIP3    H244349   5.269   5.938   5.460  0.2631  0.4622 -0.4143
 7620TIP3   OH244350   1.375   1.352   1.280  0.3397  0.4624  0.2196
 7620TIP3    H144351   1.458   1.319   1.316 -1.1193 -2.2542  1.4117
 7620TIP3    H244352   1.352   1.289   1.212 -0.3548  1.7030 -0.7442
 7621TIP3   OH244353   3.568   0.116   6.449  0.3084 -0.2367 -0.1625
 7621TIP3    H144354   3.630   0.045   6.433  1.5861  0.9739 -0.7533
 7621TIP3    H244355   3.534   0.099   6.537 -1.1146 -2.7820 -1.0924
 7622TIP3   OH244356   0.137   2.377  14.123 -0.0766  0.6565 -0.5842
 7622TIP3    H144357   0.222   2.353  14.161  0.2470  1.5830 -0.6836
 7622TIP3    H244358   0.075   2.367  14.194  0.5736  2.6966  0.3414
 7623TIP3   OH244359   1.027   5.706   3.181 -0.3721 -0.0908 -0.9813
 7623TIP3    H144360   0.937   5.739   3.176 -0.2225  0.3583 -0.7355
 7623TIP3    H244361   1.082   5.782   3.162  0.0313  0.3329  1.5538
 7624TIP3   OH244362   3.762   1.658   2.699  0.3119  0.7843 -0.6327
 7624TIP3    H144363   3.773   1.564   2.709 -1.8348  0.6064  0.6000
 7624TIP3    H244364   3.813   1.696   2.772  0.1167  0.4975 -0.3439
 7625TIP3   OH244365   6.365   0.689  15.777  0.5125 -0.1208  0.8298
 7625TIP3    H144366   6.297   0.622  15.785 -1.9007  2.0855  0.0329
 7625TIP3    H244367   6.318   0.770  15.756  3.5186  1.1398 -2.0987
 7626TIP3   OH244368   3.195   2.768   3.263 -0.0161 -0.4758 -0.1727
 7626TIP3    H144369   3.147   2.739   3.341  1.5579 -3.0453 -0.0717
 7626TIP3    H244370   3.269   2.817   3.298  0.2423 -0.9264 -0.0853
 7627TIP3   OH244371   0.683   2.079   5.961  0.3592 -0.1507  0.3204
 7627TIP3    H144372   0.611   2.038   6.008 -1.9489  0.7031 -2.2112
 7627TIP3    H244373   0.673   2.173   5.978  2.5515 -0.1412  2.0237
 7628TIP3   OH244374   5.093   2.417  15.986  0.7184 -0.1548  0.6543
 7628TIP3    H144375   5.184   2.448  15.982  0.8362 -0.5758 -0.4376
 7628TIP3    H244376   5.096   2.337  16.037  0.7217  0.5820  1.8398
 7629TIP3   OH244377   3.133   1.309  14.374  0.0967  0.0647  0.3551
 7629TIP3    H144378   3.038   1.312  14.377 -0.2794 -3.1389 -2.5074
 7629TIP3    H244379   3.158   1.383  14.318 -1.1917 -1.3905 -2.3358
 7630TIP3   OH244380   3.363   2.658   3.645 -0.0948 -0.4044 -0.3307
 7630TIP3    H144381   3.418   2.615   3.580  0.0264  0.3854 -0.7681
 7630TIP3    H244382   3.357   2.595   3.716  0.4102 -0.9759 -0.7755
 7631TIP3   OH244383   1.272   0.414   3.818  0.3214  0.2021 -0.2642
 7631TIP3    H144384   1.190   0.389   3.776  0.0169  1.5582 -0.5012
 7631TIP3    H244385   1.284   0.349   3.888 -1.3035  0.3923  0.2166
 7632TIP3   OH244386   2.064   0.922  16.942 -0.7902  0.4577 -0.0656
 7632TIP3    H144387   2.096   0.894  17.028 -0.9095 -2.4553 -0.8693
 7632TIP3    H244388   2.013   1.001  16.960  1.7707  1.7754  2.0616
 7633TIP3   OH244389   2.023   2.388   0.835 -0.4890  0.1571 -0.0923
 7633TIP3    H144390   1.989   2.319   0.778  0.1590 -0.5383  0.3376
 7633TIP3    H244391   2.097   2.425   0.787 -0.4801  0.1535 -0.0817
 7634TIP3   OH244392   0.857   1.662  13.849 -0.0449  0.0380 -0.0462
 7634TIP3    H144393   0.872   1.756  13.837  0.5389 -0.0667 -0.1572
 7634TIP3    H244394   0.849   1.651  13.943  1.9183 -0.0784  0.1540
 7635TIP3   OH244395   0.959   0.442  16.178 -0.7810 -0.6079  0.5495
 7635TIP3    H144396   0.921   0.470  16.095  2.2996  0.6724 -0.5397
 7635TIP3    H244397   0.982   0.350  16.164 -2.5154 -1.1385  0.9251
 7636TIP3   OH244398   0.446   1.277  13.065  0.5176 -0.3822 -0.4708
 7636TIP3    H144399   0.532   1.297  13.100  0.3733  2.2295 -1.3816
 7636TIP3    H244400   0.463   1.239  12.979  0.7630 -0.3714 -0.4273
 7637TIP3   OH244401   3.385   4.030   1.239  0.1877 -0.0728  0.3056
 7637TIP3    H144402   3.323   4.092   1.200  1.3493  0.4093 -0.8875
 7637TIP3    H244403   3.451   4.017   1.171  1.9752  0.2717  1.8866
 7638TIP3   OH244404   2.952   1.849   3.131 -0.3924 -0.0559  0.3587
 7638TIP3    H144405   2.959   1.945   3.128  1.5353 -0.1361  0.6605
 7638TIP3    H244406   3.000   1.824   3.210 -0.7400 -1.2833  0.1984
 7639TIP3   OH244407   6.755   1.657   1.198  0.3303  0.1838  0.0106
 7639TIP3    H144408   6.776   1.667   1.291  0.4101  0.3811 -0.0296
 7639TIP3    H244409   6.807   1.724   1.154  1.0365 -0.5489 -0.2813
 7640TIP3   OH244410   6.693   1.854  15.261 -0.2217 -0.0082 -0.2519
 7640TIP3    H144411   6.682   1.922  15.327 -0.3608  0.3706 -0.6620
 7640TIP3    H244412   6.621   1.793  15.278  1.1136 -1.2062  1.4662
 7641TIP3   OH244413   5.278   1.312   3.119 -0.5965 -0.3540  0.1624
 7641TIP3    H144414   5.197   1.344   3.158 -0.2814  0.3763  0.2310
 7641TIP3    H244415   5.345   1.328   3.186  0.0389  1.3783 -0.8229
 7642TIP3   OH244416   4.049   2.350   5.733 -0.0637  0.1441  0.0028
 7642TIP3    H144417   4.083   2.439   5.734  0.2900  0.0082  0.8829
 7642TIP3    H244418   3.958   2.359   5.761 -0.1707  0.2736 -0.3735
 7643TIP3   OH244419   5.722   1.435   1.325 -0.2201  0.0445  0.6597
 7643TIP3    H144420   5.686   1.386   1.251  0.1839  1.7362 -0.7274
 7643TIP3    H244421   5.816   1.437   1.309 -0.2075  1.0818  0.7935
 7644TIP3   OH244422   2.819   3.817   4.698 -0.1349  0.2170  0.1552
 7644TIP3    H144423   2.872   3.881   4.746 -1.0059  1.6354 -0.6963
 7644TIP3    H244424   2.793   3.753   4.764  0.1965  1.1275  1.2026
 7645TIP3   OH244425   3.007   2.416  16.812 -0.1597  0.0657 -0.1554
 7645TIP3    H144426   2.925   2.460  16.837 -1.5093 -1.3690 -1.8100
 7645TIP3    H244427   3.040   2.380  16.895 -0.5223  1.7084  0.7492
 7646TIP3   OH244428   5.166   2.738   1.696 -0.2353 -0.1060 -0.0313
 7646TIP3    H144429   5.183   2.665   1.756 -0.8535  0.7828  1.2513
 7646TIP3    H244430   5.072   2.735   1.681 -0.1079 -0.2521 -0.9180
 7647TIP3   OH244431   1.317   6.489   1.741  0.1367  0.0053 -0.1939
 7647TIP3    H144432   1.277   6.575   1.746 -0.0299 -0.0743 -0.1399
 7647TIP3    H244433   1.261   6.433   1.796  1.0755  0.1913  1.0105
 7648TIP3   OH244434   2.110   1.204   1.396  0.2427  0.0168 -0.6690
 7648TIP3    H144435   2.028   1.160   1.419  0.7438  0.2935  1.9047
 7648TIP3    H244436   2.082   1.288   1.358 -0.7052  0.5041  0.9970
 7649TIP3   OH244437   5.648   1.562   2.360 -0.0369 -0.0977  0.0064
 7649TIP3    H144438   5.677   1.653   2.368 -1.5364  0.2736  1.7154
 7649TIP3    H244439   5.683   1.518   2.437 -0.0802 -0.7856 -0.3546
 7650TIP3   OH244440   6.626   0.011   5.095 -0.1210  0.4644  0.1269
 7650TIP3    H144441   6.530   0.007   5.095 -0.1833  1.3157 -1.3151
 7650TIP3    H244442   6.654  -0.051   5.028  0.3259  0.4706  0.3008
 7651TIP3   OH244443   2.712   2.430  14.240  0.1636  0.2617  0.1903
 7651TIP3    H144444   2.733   2.440  14.333  0.6282  0.0546  0.1133
 7651TIP3    H244445   2.784   2.475  14.195 -0.5118  1.1213 -0.0559
 7652TIP3   OH244446   4.807   6.532   0.852  0.1528 -0.1534  0.2461
 7652TIP3    H144447   4.724   6.570   0.879 -0.4978 -0.3143 -1.3986
 7652TIP3    H244448   4.783   6.447   0.814  1.0659 -0.2320 -0.1900
 7653TIP3   OH244449   1.625   4.727  16.931  0.1096  0.0691  0.2515
 7653TIP3    H144450   1.682   4.789  16.886 -0.6466  0.2361 -0.4883
 7653TIP3    H244451   1.664   4.641  16.915  1.3310  0.3361  1.5230
 7654TIP3   OH244452   1.560   1.121  16.782  0.0706  0.1884 -0.4191
 7654TIP3    H144453   1.563   1.109  16.877  0.0161  1.1923 -0.2786
 7654TIP3    H244454   1.614   1.050  16.747  1.6079  0.8601  0.4687
 7655TIP3   OH244455   6.131   0.633   1.021  0.0928  0.6414 -0.4012
 7655TIP3    H144456   6.127   0.551   0.972 -2.0670  1.2355 -1.3299
 7655TIP3    H244457   6.204   0.681   0.981  0.6925 -0.3618 -0.5608
 7656TIP3   OH244458   5.538   5.090   2.277  0.6982  0.5564 -0.6145
 7656TIP3    H144459   5.539   5.143   2.357  0.9518  1.3045 -1.1123
 7656TIP3    H244460   5.580   5.144   2.211  0.1042  0.1128 -1.3719
 7657TIP3   OH244461   6.775   4.660  15.926  0.1624 -0.3228  0.0246
 7657TIP3    H144462   6.779   4.638  15.833 -0.6672 -1.1104  0.1544
 7657TIP3    H244463   6.722   4.740  15.929  0.7425  0.0775 -0.2261
 7658TIP3   OH244464   4.859   6.354   2.563  0.3998  0.0345  0.5391
 7658TIP3    H144465   4.799   6.280   2.574  0.5825 -0.0876  0.7018
 7658TIP3    H244466   4.923   6.324   2.499  0.6107 -0.0321  0.7797
 7659TIP3   OH244467   2.227   3.392  10.484 -0.4608 -0.2194 -0.1533
 7659TIP3    H144468   2.184   3.446  10.550 -1.8585 -0.7434 -0.5959
 7659TIP3    H244469   2.231   3.304  10.523  0.6058 -0.1001  0.0412
 7660TIP3   OH244470   2.684   4.401  12.214 -0.2581 -0.3586  0.4557
 7660TIP3    H144471   2.689   4.315  12.174 -0.5106 -0.4739  0.6661
 7660TIP3    H244472   2.713   4.388  12.304 -0.0929 -0.1836  0.4275
 7661TIP3   OH244473   6.390   4.602   3.421  0.3825  0.0621  0.2759
 7661TIP3    H144474   6.334   4.628   3.348  1.0512 -1.0334 -0.6594
 7661TIP3    H244475   6.421   4.514   3.398 -0.9319 -1.1528  2.7847
 7662TIP3   OH244476   6.234   0.265  16.780  0.2333  0.2976  0.0340
 7662TIP3    H144477   6.313   0.245  16.831 -0.4751 -2.6113  0.1920
 7662TIP3    H244478   6.169   0.204  16.813 -2.1050  2.5202 -0.2114
 7663TIP3   OH244479   6.341   4.345   3.015  0.6638  0.8436  0.1095
 7663TIP3    H144480   6.292   4.335   3.097 -2.1825  2.2179 -1.2578
 7663TIP3    H244481   6.312   4.271   2.961 -0.0733  1.7326 -0.7589
 7664TIP3   OH244482   1.023   4.722   5.258  0.1080 -0.3467 -0.4568
 7664TIP3    H144483   0.961   4.664   5.302 -1.0146  1.3315  0.2821
 7664TIP3    H244484   1.085   4.747   5.327 -1.5752  2.1779  0.2709
 7665TIP3   OH244485   6.629   4.076   1.887  0.2589 -0.3172 -0.7147
 7665TIP3    H144486   6.540   4.088   1.855 -0.0264 -0.9374 -0.1752
 7665TIP3    H244487   6.663   4.002   1.837 -0.2294 -1.3667  0.4733
 7666TIP3   OH244488   6.553   0.832   3.142 -0.4154  0.0727 -0.2212
 7666TIP3    H144489   6.604   0.753   3.161 -0.2588  0.5778  1.6379
 7666TIP3    H244490   6.570   0.850   3.050  1.9878 -0.3544  0.0761
 7667TIP3   OH244491   3.300   5.690  14.194 -0.2924 -0.1308  0.4311
 7667TIP3    H144492   3.271   5.599  14.191  0.2438 -0.2877 -0.6591
 7667TIP3    H244493   3.330   5.708  14.105  0.1222  0.9453  0.7729
 7668TIP3   OH244494   5.899   0.480   2.516 -0.1572  0.0166 -0.3487
 7668TIP3    H144495   5.863   0.568   2.527 -1.7020 -0.6656  0.3614
 7668TIP3    H244496   5.984   0.483   2.560  0.1039  1.3048 -0.8816
 7669TIP3   OH244497   0.459   3.037   0.109  0.3287  0.2291 -0.2721
 7669TIP3    H144498   0.405   3.064   0.184 -0.0393  2.0688 -1.1378
 7669TIP3    H244499   0.533   2.991   0.149  0.3248  1.4542  1.2911
 7670TIP3   OH244500   6.368   3.787   1.451  0.1693 -0.6755 -0.1368
 7670TIP3    H144501   6.309   3.786   1.526  1.2040 -0.0384  0.7041
 7670TIP3    H244502   6.316   3.828   1.381  0.0264  1.1347  0.9567
 7671TIP3   OH244503   2.526   5.327   5.450  0.6077 -0.3761  0.8301
 7671TIP3    H144504   2.432   5.313   5.453  0.4637  0.0597 -0.7299
 7671TIP3    H244505   2.551   5.306   5.360  1.6387  1.5891  0.5900
 7672TIP3   OH244506   6.686   2.057   3.226 -0.4505  0.0480  0.2097
 7672TIP3    H144507   6.726   1.973   3.201  2.1404  1.5867 -1.2844
 7672TIP3    H244508   6.705   2.065   3.319  2.4330  0.4113 -0.3031
 7673TIP3   OH244509   5.948   1.202   1.870  0.8788 -0.1126  0.1443
 7673TIP3    H144510   6.039   1.210   1.896  0.4984  0.3755  1.3977
 7673TIP3    H244511   5.921   1.290   1.846  0.6981 -0.2318 -0.1012
 7674TIP3   OH244512   5.480   5.034  15.521  0.3368  0.6534 -0.0518
 7674TIP3    H144513   5.496   5.121  15.560  1.3203  0.5278 -0.1381
 7674TIP3    H244514   5.496   4.973  15.592 -0.1229  0.5236 -0.0557
 7675TIP3   OH244515   0.326   2.395  14.354 -0.4879 -0.0613 -0.4014
 7675TIP3    H144516   0.376   2.459  14.305 -0.1275  0.2062  0.3008
 7675TIP3    H244517   0.284   2.445  14.423 -0.5714 -0.5071 -0.1229
 7676TIP3   OH244518   2.830   5.518  12.231 -0.5424  0.1804  0.3451
 7676TIP3    H144519   2.876   5.506  12.314  0.0403 -0.7927 -0.1093
 7676TIP3    H244520   2.741   5.488  12.248 -0.4264 -0.0083  0.6243
 7677TIP3   OH244521   5.218   4.391   3.122  0.2154  0.3632 -0.5686
 7677TIP3    H144522   5.197   4.473   3.166  1.0387  0.0898  0.3802
 7677TIP3    H244523   5.312   4.396   3.105 -0.2664  0.9732 -3.4599
 7678TIP3   OH244524   6.529   2.766  16.664 -0.3377 -0.3002 -0.2125
 7678TIP3    H144525   6.508   2.759  16.570 -0.5241  0.8818 -0.2738
 7678TIP3    H244526   6.446   2.747  16.708 -0.3922 -0.2708 -0.3015
 7679TIP3   OH244527   0.197   4.876  16.071 -0.2532  0.0630  0.1337
 7679TIP3    H144528   0.237   4.957  16.103  0.1818 -0.3148  0.5686
 7679TIP3    H244529   0.188   4.822  16.150  0.2344 -0.6336 -0.2836
 7680TIP3   OH244530   0.389   1.903   3.796 -0.1501 -0.1110 -0.0978
 7680TIP3    H144531   0.315   1.861   3.751  0.3564 -2.9407  1.4771
 7680TIP3    H244532   0.360   1.910   3.887  0.4438  1.5483 -0.0114
 7681TIP3   OH244533   3.053   5.941  16.803 -0.3693  0.0829 -0.0809
 7681TIP3    H144534   3.035   5.931  16.710  0.0933  1.5376 -0.3532
 7681TIP3    H244535   3.136   5.989  16.806 -1.1425  1.4194  1.0526
 7682TIP3   OH244536   6.348   5.328  11.894 -0.0528  0.1721 -0.4963
 7682TIP3    H144537   6.341   5.308  11.801 -0.6931  0.6742 -0.5639
 7682TIP3    H244538   6.403   5.406  11.898  0.1297  0.0419 -0.4367
 7683TIP3   OH244539   5.972   5.048   4.244  0.3528 -0.6733 -0.7502
 7683TIP3    H144540   6.062   5.035   4.214  0.7724  0.2742  0.0057
 7683TIP3    H244541   5.925   5.078   4.166  0.9164 -0.2912 -0.9557
 7684TIP3   OH244542   2.236   4.654  16.342  0.2030 -0.6382  0.1260
 7684TIP3    H144543   2.147   4.669  16.310 -0.5761  2.9499  3.2291
 7684TIP3    H244544   2.290   4.652  16.263 -2.5560 -4.7397 -2.0383
 7685TIP3   OH244545   3.336   0.464   5.148  0.0761  0.4571 -0.6379
 7685TIP3    H144546   3.345   0.370   5.132 -1.3134  0.3506 -0.9470
 7685TIP3    H244547   3.293   0.497   5.069  0.7919  1.4101 -0.6389
 7686TIP3   OH244548   2.027   2.715   5.122  0.0360 -0.9361 -0.3483
 7686TIP3    H144549   1.996   2.716   5.031  1.1918 -1.2183 -0.7650
 7686TIP3    H244550   2.010   2.803   5.154  0.7718 -0.4366 -1.2680
 7687TIP3   OH244551   2.189   4.856   3.905 -0.3961  0.4390 -0.1473
 7687TIP3    H144552   2.235   4.941   3.902 -0.6685  0.5706 -0.8581
 7687TIP3    H244553   2.245   4.801   3.959 -0.0979  1.0057  0.1381
 7688TIP3   OH244554   5.839   2.077   5.684 -0.0191 -0.1670  0.2053
 7688TIP3    H144555   5.932   2.101   5.694  0.1268 -0.6511  0.0270
 7688TIP3    H244556   5.815   2.041   5.769 -0.1517  0.3174  0.3744
 7689TIP3   OH244557   0.507   2.029   4.060  0.4819  0.2049 -0.2690
 7689TIP3    H144558   0.430   1.988   4.100  1.1100 -0.5962  0.1660
 7689TIP3    H244559   0.557   1.955   4.025  2.1466  0.4548  1.4100
 7690TIP3   OH244560   3.625   4.547   2.830  0.4885 -0.3306  0.1224
 7690TIP3    H144561   3.653   4.579   2.916 -0.8676  0.6132  0.2325
 7690TIP3    H244562   3.566   4.475   2.849  0.0145  0.0205 -0.0016
 7691TIP3   OH244563   4.437   6.218   2.194  0.3610 -0.3585 -0.3189
 7691TIP3    H144564   4.514   6.259   2.233  0.5574 -0.0259 -1.0412
 7691TIP3    H244565   4.416   6.146   2.253 -2.3507  2.9070  3.2550
 7692TIP3   OH244566   5.541   6.463   2.310  0.3012  0.1348 -0.2906
 7692TIP3    H144567   5.536   6.439   2.218 -0.4186  1.3585 -0.5966
 7692TIP3    H244568   5.539   6.559   2.310  2.2729  0.2505  0.8956
 7693TIP3   OH244569   4.944   6.065  14.699  0.0668  1.0571  0.4358
 7693TIP3    H144570   4.932   5.971  14.710  2.9816  0.5709  0.2000
 7693TIP3    H244571   4.965   6.077  14.607  1.9867  1.5582  0.8775
 7694TIP3   OH244572   0.619   4.643  11.294  0.1014  0.0200  0.5492
 7694TIP3    H144573   0.623   4.551  11.270 -0.1619  0.0380  0.4319
 7694TIP3    H244574   0.585   4.643  11.383  0.0483  0.0082  0.5291
 7695TIP3   OH244575   0.621   0.577   5.505  0.1129  0.1255 -0.7000
 7695TIP3    H144576   0.555   0.606   5.442  1.3981  1.4507 -1.5047
 7695TIP3    H244577   0.575   0.576   5.589 -0.6232  2.2711 -1.0237
 7696TIP3   OH244578   3.232   5.175   4.359  0.1474  0.5751  0.4081
 7696TIP3    H144579   3.251   5.156   4.267  0.5204  0.8208  0.4313
 7696TIP3    H244580   3.152   5.228   4.358  0.1707  0.6057  0.2228
 7697TIP3   OH244581   4.466   0.834   3.806  0.0559  0.4251  0.0866
 7697TIP3    H144582   4.462   0.905   3.870 -0.0414  0.3854  0.1243
 7697TIP3    H244583   4.543   0.782   3.832 -1.0366 -0.6526  1.2821
 7698TIP3   OH244584   1.652   3.573  16.571  0.0638 -0.0863 -0.2552
 7698TIP3    H144585   1.563   3.605  16.584  0.2485  1.6261 -2.5448
 7698TIP3    H244586   1.704   3.618  16.637 -0.6734 -0.8861  0.9143
 7699TIP3   OH244587   4.666   5.648   1.569 -0.3829 -0.4713  0.2423
 7699TIP3    H144588   4.668   5.740   1.542  0.7186  0.0870  2.0899
 7699TIP3    H244589   4.585   5.639   1.619 -0.1794 -0.3288  0.6021
 7700TIP3   OH244590   4.208   4.493   2.716 -0.0273 -0.0158  0.1550
 7700TIP3    H144591   4.242   4.506   2.627 -0.0447 -0.1125  0.1341
 7700TIP3    H244592   4.116   4.520   2.710 -0.1976 -0.6071 -0.0086
 7701TIP3   OH244593   6.525   3.499  16.990  0.8504 -0.1802  0.1715
 7701TIP3    H144594   6.619   3.506  16.976  0.6395  1.5529 -0.5233
 7701TIP3    H244595   6.487   3.574  16.944 -0.8801 -0.8473  0.4147
 7702TIP3   OH244596   0.072   4.431  14.103  0.3203 -0.2549  0.6191
 7702TIP3    H144597   0.150   4.427  14.047 -0.3456  1.2741 -0.4996
 7702TIP3    H244598   0.103   4.402  14.189  2.0659  0.0429  0.1304
 7703TIP3   OH244599   1.461   4.230   2.552 -0.7388 -0.1003 -0.2117
 7703TIP3    H144600   1.505   4.195   2.474  1.1412 -2.1674  1.6431
 7703TIP3    H244601   1.528   4.283   2.595 -1.2168 -0.2887  0.7883
 7704TIP3   OH244602   5.354   4.578   2.388 -0.1132 -0.2043 -0.2974
 7704TIP3    H144603   5.263   4.577   2.419 -0.7890  0.3308 -2.1529
 7704TIP3    H244604   5.365   4.665   2.350  0.6168 -0.8675 -1.6644
 7705TIP3   OH244605   4.303   0.968  13.577  0.3445  0.2056  0.7054
 7705TIP3    H144606   4.354   0.888  13.568  0.0951  0.1691 -0.4913
 7705TIP3    H244607   4.367   1.033  13.608  0.8461 -0.1301  0.3949
 7706TIP3   OH244608   3.946   3.346  15.959 -0.4336  0.5359  0.5928
 7706TIP3    H144609   3.929   3.387  15.874  1.4434 -2.5232 -1.4763
 7706TIP3    H244610   3.890   3.268  15.959  0.7916 -0.3694  1.4274
 7707TIP3   OH244611   3.635   5.869   6.425 -0.2594 -0.3936 -0.2730
 7707TIP3    H144612   3.540   5.863   6.435 -0.0901  0.1149  2.6759
 7707TIP3    H244613   3.648   5.943   6.365 -1.7430  0.5281  0.4786
 7708TIP3   OH244614   2.297   6.249   2.191  0.2100 -0.0432  1.0074
 7708TIP3    H144615   2.210   6.274   2.220 -1.6718  0.3255 -3.9949
 7708TIP3    H244616   2.293   6.154   2.181  0.2102  0.0069  0.4717
 7709TIP3   OH244617   6.649   5.261   5.613 -0.1663 -0.1179  0.0649
 7709TIP3    H144618   6.723   5.302   5.658 -0.5349  0.8307 -0.1683
 7709TIP3    H244619   6.644   5.173   5.651  1.9556 -0.7346 -0.9086
 7710TIP3   OH244620   2.865   1.876   0.923 -0.2450  0.1298 -0.5412
 7710TIP3    H144621   2.812   1.938   0.874 -1.9783 -0.2849  0.7086
 7710TIP3    H244622   2.807   1.801   0.938  0.7367 -0.4134  0.7782
 7711TIP3   OH244623   2.544   0.766   1.690  0.0887 -0.6055 -0.1072
 7711TIP3    H144624   2.515   0.685   1.732  0.9375 -0.4856  0.7650
 7711TIP3    H244625   2.639   0.754   1.678  0.2276  0.2530  0.0402
 7712TIP3   OH244626   0.884   1.131   1.939  0.2529 -0.3920 -0.1444
 7712TIP3    H144627   0.835   1.050   1.947 -0.0175 -0.1521  0.6854
 7712TIP3    H244628   0.851   1.187   2.009  0.0791  0.6305 -1.0077
 7713TIP3   OH244629   3.158   0.332  17.028  0.4842  0.0923  0.1752
 7713TIP3    H144630   3.129   0.310  16.939  0.4968 -0.5208  0.3190
 7713TIP3    H244631   3.244   0.372  17.016  0.4652  0.0579 -0.0880
 7714TIP3   OH244632   2.860   5.433   3.523  0.2527  0.7447  0.4351
 7714TIP3    H144633   2.885   5.344   3.548  0.2879  0.6929  0.2155
 7714TIP3    H244634   2.860   5.481   3.605 -1.7064  0.0831  0.8641
 7715TIP3   OH244635   6.042   2.057  16.114 -0.0424 -0.7417  0.3999
 7715TIP3    H144636   6.096   2.129  16.146 -0.1531 -0.7005  0.4942
 7715TIP3    H244637   5.988   2.032  16.189 -0.7853 -0.2030  0.0657
 7716TIP3   OH244638   0.325   4.167  14.872  0.2128 -0.6103 -0.5397
 7716TIP3    H144639   0.278   4.102  14.924 -0.5997  1.0249  0.8522
 7716TIP3    H244640   0.289   4.158  14.784 -2.3089  0.1214  0.3275
 7717TIP3   OH244641   1.937   5.189   0.953  0.0951 -0.0506  0.5548
 7717TIP3    H144642   1.972   5.173   1.041  0.2548 -0.3943  0.4315
 7717TIP3    H244643   1.887   5.109   0.933  0.1641 -0.0251  0.2829
 7718TIP3   OH244644   2.536   4.860  11.418 -0.4414  0.0362  0.1152
 7718TIP3    H144645   2.482   4.786  11.446 -1.0272  0.0955 -0.8347
 7718TIP3    H244646   2.549   4.912  11.497 -0.1131 -1.0148  0.7723
 7719TIP3   OH244647   6.344   6.173  16.421  0.1530 -0.0154  0.4206
 7719TIP3    H144648   6.371   6.085  16.446  0.2652 -0.1895 -0.2950
 7719TIP3    H244649   6.256   6.183  16.458 -0.8623 -1.3217 -1.4904
 7720TIP3   OH244650   5.178   0.412   3.049  0.5043 -0.0083 -0.4243
 7720TIP3    H144651   5.197   0.505   3.042  0.9769 -0.1356 -0.9167
 7720TIP3    H244652   5.181   0.380   2.959  1.7642 -0.7607 -0.1520
 7721TIP3   OH244653   5.745   0.459   1.785  0.3960 -0.3893 -0.3039
 7721TIP3    H144654   5.717   0.387   1.728 -0.6466 -1.5221  1.5327
 7721TIP3    H244655   5.754   0.419   1.872  2.2609  1.1919  0.3012
 7722TIP3   OH244656   4.507   1.007  12.163 -0.2124  0.9997 -0.0718
 7722TIP3    H144657   4.595   1.008  12.201  0.4552 -1.2105 -1.3533
 7722TIP3    H244658   4.448   1.001  12.239  0.9478 -0.8180  0.7586
 7723TIP3   OH244659   4.586   4.287  15.314  0.0719  0.0932  0.3481
 7723TIP3    H144660   4.575   4.305  15.221 -0.3538  0.3253  0.4374
 7723TIP3    H244661   4.556   4.196  15.325  1.1673 -0.3164  0.0813
 7724TIP3   OH244662   6.424   1.956  13.563  0.4319  0.1616  0.6056
 7724TIP3    H144663   6.360   1.905  13.513  2.5785 -1.7821 -0.3780
 7724TIP3    H244664   6.375   1.992  13.637 -2.9005  3.1069 -2.6659
 7725TIP3   OH244665   1.720   2.140   5.862 -0.9408  0.3650  0.0380
 7725TIP3    H144666   1.809   2.173   5.845 -0.3523 -0.2917  1.5961
 7725TIP3    H244667   1.715   2.057   5.815 -0.7561  0.4362 -0.1089
 7726TIP3   OH244668   3.376   5.273  13.340  0.5201  0.0531  0.3810
 7726TIP3    H144669   3.426   5.288  13.260  1.2963  0.4945  0.9310
 7726TIP3    H244670   3.305   5.214  13.314 -0.9699  2.3915 -1.2646
 7727TIP3   OH244671   6.628   4.714  15.507 -0.2081 -0.0222 -0.1213
 7727TIP3    H144672   6.681   4.791  15.488 -0.2540 -0.2016 -1.0208
 7727TIP3    H244673   6.627   4.664  15.426 -1.6827 -0.0605 -0.1223
 7728TIP3   OH244674   2.446   2.090   3.934 -0.5799  0.2594 -0.3854
 7728TIP3    H144675   2.364   2.140   3.925  0.3041  1.5738 -1.6105
 7728TIP3    H244676   2.514   2.157   3.941  0.3857 -0.8118  1.1062
 7729TIP3   OH244677   0.274   0.565   1.868 -0.2826  0.1362  0.0909
 7729TIP3    H144678   0.292   0.479   1.831 -0.2105 -0.1196  0.7109
 7729TIP3    H244679   0.267   0.550   1.963 -1.5242  0.5878  0.0943
 7730TIP3   OH244680   6.150   1.124   2.317 -0.1565  0.2719  1.1140
 7730TIP3    H144681   6.184   1.197   2.265 -1.8232  0.6626  0.5230
 7730TIP3    H244682   6.096   1.074   2.256  0.2366 -0.9596  1.7450
 7731TIP3   OH244683   6.364   3.607  13.073  0.0598  0.2914  0.3682
 7731TIP3    H144684   6.429   3.553  13.027 -1.8804  0.4115 -2.7983
 7731TIP3    H244685   6.399   3.696  13.068  0.6831  0.0717  0.7070
 7732TIP3   OH244686   4.404   1.244   0.291 -0.4827 -0.4214 -0.5500
 7732TIP3    H144687   4.339   1.257   0.223 -0.7650 -1.9425 -0.5993
 7732TIP3    H244688   4.357   1.200   0.362 -0.3400  1.6384  0.9065
 7733TIP3   OH244689   3.101   1.853  11.255  0.0732  0.4605  0.4777
 7733TIP3    H144690   3.041   1.883  11.323 -1.6553 -0.3163 -0.6392
 7733TIP3    H244691   3.125   1.764  11.282  0.1833  0.5158  0.5655
 7734TIP3   OH244692   5.385   1.611  11.070  1.0580  0.6197  0.1078
 7734TIP3    H144693   5.445   1.576  11.135  0.5662 -3.3890 -1.3353
 7734TIP3    H244694   5.434   1.605  10.987 -0.8115 -1.8229 -0.9458
 7735TIP3   OH244695   5.652   3.027   0.715 -0.5635  0.1541 -0.0755
 7735TIP3    H144696   5.601   2.973   0.654  1.9116 -0.8969 -1.3690
 7735TIP3    H244697   5.705   3.083   0.658  2.9588 -1.9068  0.8534
 7736TIP3   OH244698   6.430   6.708   0.234  0.1236  0.5758  0.4042
 7736TIP3    H144699   6.449   6.795   0.199  0.0113 -0.0965 -1.4572
 7736TIP3    H244700   6.342   6.716   0.271  0.0051  1.1979  0.0106
 7737TIP3   OH244701   3.068   4.410  13.065  0.1461  0.1894  0.1290
 7737TIP3    H144702   3.129   4.403  13.137 -0.6107  1.1808  0.9025
 7737TIP3    H244703   3.022   4.326  13.063  1.6373 -0.6402 -0.5974
 7738TIP3   OH244704   3.586   6.567   6.228 -0.2842 -0.0641 -0.4631
 7738TIP3    H144705   3.562   6.475   6.244 -2.0227 -0.1920 -3.1159
 7738TIP3    H244706   3.511   6.617   6.260 -0.4672  0.2092 -1.2931
 7739TIP3   OH244707   4.628   6.718  12.381  1.0611 -0.8664  0.3412
 7739TIP3    H144708   4.676   6.797  12.404  1.8748 -0.8435 -1.3019
 7739TIP3    H244709   4.650   6.702  12.289  1.1658 -3.1585  0.6964
 7740TIP3   OH244710   5.816   0.487  15.148 -0.2673 -0.2308 -0.0680
 7740TIP3    H144711   5.756   0.435  15.201 -0.6396  0.6236  0.3690
 7740TIP3    H244712   5.767   0.508  15.069 -0.4754  0.2576  0.1813
 7741TIP3   OH244713   2.249   2.200  15.604  0.3004  0.9634  0.1815
 7741TIP3    H144714   2.279   2.172  15.518  0.6153 -0.1537  0.6290
 7741TIP3    H244715   2.305   2.152  15.666 -1.1301  0.2812  1.0117
 7742TIP3   OH244716   4.361   0.588   0.047 -0.7432  0.0795 -0.1738
 7742TIP3    H144717   4.374   0.527  -0.026 -2.3138 -1.3414  0.6500
 7742TIP3    H244718   4.401   0.545   0.122  0.0788  1.1238  0.0120
 7743TIP3   OH244719   5.291   3.828  11.932 -0.0611 -0.1383  0.0212
 7743TIP3    H144720   5.301   3.737  11.904 -0.2897 -0.6226  1.3945
 7743TIP3    H244721   5.223   3.824  12.001  1.1876  0.7755  1.3670
 7744TIP3   OH244722   0.680   4.634   2.102 -0.1561  0.0857 -0.4981
 7744TIP3    H144723   0.733   4.554   2.091 -0.1905 -0.2218  1.2602
 7744TIP3    H244724   0.591   4.601   2.117 -0.5849  0.5557 -1.8500
 7745TIP3   OH244725   4.496   3.921  16.691 -0.4011  0.2912 -0.5553
 7745TIP3    H144726   4.530   3.869  16.764 -1.6293  1.2042  0.7207
 7745TIP3    H244727   4.575   3.949  16.644  0.4898  0.4490  0.9551
 7746TIP3   OH244728   1.689   2.688  14.441 -0.2300  0.1786  0.0618
 7746TIP3    H144729   1.646   2.609  14.474 -1.7076  0.5738 -0.8091
 7746TIP3    H244730   1.753   2.710  14.508 -0.6586 -1.0458  0.9223
 7747TIP3   OH244731   2.527   3.356   5.992 -0.3430 -0.1197 -0.4561
 7747TIP3    H144732   2.600   3.329   6.048 -0.2485  0.4027 -0.3188
 7747TIP3    H244733   2.459   3.384   6.054 -0.6052 -0.4608 -0.5874
 7748TIP3   OH244734   4.890   4.380  11.999 -0.4264  0.2241 -0.2807
 7748TIP3    H144735   4.851   4.356  12.083  0.4723 -1.2475 -0.2450
 7748TIP3    H244736   4.896   4.476  12.002 -0.9730  0.2447  1.0651
 7749TIP3   OH244737   6.441   2.836   2.036 -0.0675  0.7129  1.0636
 7749TIP3    H144738   6.441   2.908   2.099  0.6850 -0.1512  2.0624
 7749TIP3    H244739   6.435   2.757   2.089  0.7007 -0.0347  0.0596
 7750TIP3   OH244740   3.005   3.110   0.745 -0.1719 -0.1225 -0.1818
 7750TIP3    H144741   3.091   3.142   0.774  0.5151 -2.2349  0.3117
 7750TIP3    H244742   3.006   3.120   0.650  0.2897  0.6448 -0.1023
 7751TIP3   OH244743   1.126   6.604  12.743  0.1119 -0.5646  0.0119
 7751TIP3    H144744   1.046   6.567  12.782 -0.9794 -2.3037 -3.4972
 7751TIP3    H244745   1.094   6.676  12.689  1.1288 -0.2229 -0.1360
 7752TIP3   OH244746   3.929   0.062   4.643  0.0570 -0.3699 -0.0940
 7752TIP3    H144747   3.949   0.091   4.733  1.8213 -1.7512  0.0084
 7752TIP3    H244748   3.961   0.134   4.588 -0.8606  0.4032  0.3431
 7753TIP3   OH244749   3.405   1.019   2.639  0.2513  0.0344  0.2185
 7753TIP3    H144750   3.310   1.026   2.649 -0.0157 -0.5976 -1.5409
 7753TIP3    H244751   3.437   1.107   2.656 -0.6743  0.3292  0.5141
 7754TIP3   OH244752   0.124   3.177   1.428 -0.0548  0.2993 -0.1295
 7754TIP3    H144753   0.132   3.264   1.389  0.7302  1.1130  1.7341
 7754TIP3    H244754   0.205   3.132   1.403  2.0350  1.9369  3.0251
 7755TIP3   OH244755   4.970   6.092   2.734 -0.0891  0.4324 -0.0230
 7755TIP3    H144756   4.951   6.099   2.641 -1.0996  1.4569  0.2357
 7755TIP3    H244757   4.963   5.999   2.754  1.0900  0.0672 -1.1413
 7756TIP3   OH244758   4.028   5.830  15.386 -0.0151  0.7686  0.0130
 7756TIP3    H144759   4.054   5.859  15.473  0.3134  2.5360 -0.6228
 7756TIP3    H244760   3.988   5.907  15.346  1.6863  0.6784 -2.0982
 7757TIP3   OH244761   4.872   6.308  11.795 -0.5339  0.1063 -0.1216
 7757TIP3    H144762   4.884   6.398  11.765 -1.1307 -0.0331 -0.7946
 7757TIP3    H244763   4.877   6.256  11.715  0.3116 -0.5152  0.3210
 7758TIP3   OH244764   2.765   2.304   0.841  0.2587 -0.4372  0.9567
 7758TIP3    H144765   2.814   2.386   0.849  2.1435 -1.6378  2.6256
 7758TIP3    H244766   2.712   2.300   0.921 -3.0023  0.9395 -0.8914
 7759TIP3   OH244767   5.133   2.821  12.727 -0.0201 -0.3278  0.0859
 7759TIP3    H144768   5.164   2.798  12.815  1.4799  1.1768  0.0065
 7759TIP3    H244769   5.046   2.857  12.741 -0.3022 -1.2380  0.7869
 7760TIP3   OH244770   3.898   6.509  13.270  0.9728  0.2170  0.5139
 7760TIP3    H144771   3.865   6.439  13.327  1.3501 -0.9671 -0.6649
 7760TIP3    H244772   3.824   6.569  13.262  0.4799 -0.2800  1.1933
 7761TIP3   OH244773   3.250   2.531  15.550  0.6785  0.0055  0.1043
 7761TIP3    H144774   3.236   2.584  15.472  0.1564  0.2920  0.3915
 7761TIP3    H244775   3.212   2.582  15.622 -0.7397 -1.1652  0.2431
 7762TIP3   OH244776   1.784   4.236   0.325 -0.6645 -0.1762 -0.1603
 7762TIP3    H144777   1.721   4.202   0.261  1.4126 -1.7622 -1.5232
 7762TIP3    H244778   1.842   4.162   0.342  1.6977  1.5585 -0.1337
 7763TIP3   OH244779   1.700   3.776   5.334  0.1974 -0.2881  0.0644
 7763TIP3    H144780   1.694   3.861   5.379 -4.1541 -0.0942 -0.4105
 7763TIP3    H244781   1.675   3.712   5.401 -0.1705 -0.7224 -0.4786
 7764TIP3   OH244782   2.052   1.991   5.982 -0.5516 -0.1490  0.1390
 7764TIP3    H144783   1.982   1.926   5.978  0.7905 -1.6045 -0.6769
 7764TIP3    H244784   2.030   2.053   5.912 -0.8097 -0.8327 -0.3988
 7765TIP3   OH244785   3.533   6.104   4.142  0.2936  0.5234 -0.4351
 7765TIP3    H144786   3.555   6.011   4.146  0.7580  0.6747  1.4559
 7765TIP3    H244787   3.618   6.148   4.145  0.1307  1.0358 -2.2036
 7766TIP3   OH244788   5.462   0.434  14.814 -0.0889  0.7180 -0.3460
 7766TIP3    H144789   5.482   0.443  14.907 -2.2604  1.4995  0.0866
 7766TIP3    H244790   5.471   0.341  14.796 -0.1382  0.4927  0.7483
 7767TIP3   OH244791   3.240   2.491   0.570  0.2591  0.0215  0.5496
 7767TIP3    H144792   3.173   2.425   0.552 -1.5650  1.2667  2.2991
 7767TIP3    H244793   3.297   2.451   0.636  0.8807 -0.7989 -0.4580
 7768TIP3   OH244794   0.944   2.795   0.936 -0.3996  0.1198  0.8087
 7768TIP3    H144795   0.988   2.879   0.952 -0.1313  0.3769 -1.0259
 7768TIP3    H244796   0.851   2.817   0.935 -0.4921 -0.0495  2.6039
 7769TIP3   OH244797   0.553   6.030   5.913  0.1077 -0.1095 -0.0404
 7769TIP3    H144798   0.647   6.024   5.934 -0.0663 -1.6545  0.4354
 7769TIP3    H244799   0.514   6.074   5.989  0.3941  0.1963 -0.0691
 7770TIP3   OH244800   3.671   5.170  15.667 -0.0377  0.0772  0.7093
 7770TIP3    H144801   3.679   5.252  15.716 -2.0278  0.6404  0.1601
 7770TIP3    H244802   3.598   5.125  15.708  1.4938 -1.8320  1.4812
 7771TIP3   OH244803   3.337   6.357  11.249  0.3439  0.4639  0.2890
 7771TIP3    H144804   3.282   6.291  11.290  0.7362  0.7818  1.3486
 7771TIP3    H244805   3.325   6.343  11.155 -0.5077 -0.3235  0.5019
 7772TIP3   OH244806   5.538   4.348  12.268 -0.1376  0.1706 -0.7216
 7772TIP3    H144807   5.524   4.333  12.362  1.0517  1.4904 -0.2958
 7772TIP3    H244808   5.562   4.262  12.234  2.2266  0.1289  0.7782
 7773TIP3   OH244809   1.281   6.446  16.035  0.3168 -0.4090 -0.7738
 7773TIP3    H144810   1.263   6.532  16.073  0.7841 -1.2253  1.4602
 7773TIP3    H244811   1.372   6.452  16.005  0.5299 -0.2604 -0.1269
 7774TIP3   OH244812   0.168   5.290  12.595 -0.5928 -0.2846 -0.1979
 7774TIP3    H144813   0.115   5.302  12.516 -0.4653  0.0287 -0.2363
 7774TIP3    H244814   0.104   5.284  12.666 -0.7133 -0.7007 -0.3396
 7775TIP3   OH244815   5.341   6.515   0.183  0.1055 -0.4469  0.0837
 7775TIP3    H144816   5.249   6.498   0.162 -0.1636 -0.1028  0.9495
 7775TIP3    H244817   5.367   6.585   0.123 -0.2421 -0.4368 -0.0556
 7776TIP3   OH244818   3.536   2.204   3.491  0.5204  0.5049 -0.0815
 7776TIP3    H144819   3.591   2.245   3.557  0.8263 -1.0657  0.6816
 7776TIP3    H244820   3.493   2.132   3.536  0.6678 -0.5696 -1.5630
 7777TIP3   OH244821   3.129   1.656  15.611  0.0939  0.3815  0.1446
 7777TIP3    H144822   3.100   1.568  15.591  0.5581  0.1989  0.2595
 7777TIP3    H244823   3.152   1.694  15.526 -0.3232  0.4751  0.0705
 7778TIP3   OH244824   4.263   4.000  12.963 -0.0456 -0.0218 -0.6456
 7778TIP3    H144825   4.342   3.946  12.966  0.7460  1.0447 -1.5547
 7778TIP3    H244826   4.196   3.942  12.926 -0.4358 -1.7416  2.4550
 7779TIP3   OH244827   0.350   3.138  10.242 -0.6468  0.4729  0.0952
 7779TIP3    H144828   0.283   3.164  10.179 -1.2126  2.4914  1.4441
 7779TIP3    H244829   0.426   3.191  10.221 -0.3192  0.0376  0.1592
 7780TIP3   OH244830   4.888   4.861  12.428 -0.7358  0.3102  0.4054
 7780TIP3    H144831   4.879   4.768  12.449 -0.8445  0.3200  0.4036
 7780TIP3    H244832   4.812   4.879  12.372 -0.6722  0.3811  0.3424
 7781TIP3   OH244833   3.913   5.480   4.562 -0.3473 -0.2472 -0.1302
 7781TIP3    H144834   3.818   5.478   4.546 -1.0531  3.1161  2.3987
 7781TIP3    H244835   3.927   5.414   4.629 -0.7835 -1.1209 -0.8775
 7782TIP3   OH244836   1.019   3.173  10.241 -0.2867 -0.4275  0.1517
 7782TIP3    H144837   0.976   3.088  10.228  0.6625 -1.2284  2.0231
 7782TIP3    H244838   1.067   3.164  10.323 -0.9348  2.2457  0.9327
 7783TIP3   OH244839   6.789   3.888   1.766 -0.2064  0.0851  0.0175
 7783TIP3    H144840   6.837   3.877   1.848  1.2874 -1.1162 -0.9618
 7783TIP3    H244841   6.848   3.939   1.711 -1.6352  1.8198 -0.0146
 7784TIP3   OH244842   6.449   1.310   1.241  0.9770  0.7694  0.3626
 7784TIP3    H144843   6.372   1.271   1.283  1.2075  0.8330  0.8503
 7784TIP3    H244844   6.479   1.242   1.180  0.3638  0.8597 -0.0453
 7785TIP3   OH244845   5.850   1.690   0.806 -0.5243  0.2618 -0.2765
 7785TIP3    H144846   5.923   1.657   0.860 -2.3175  0.6330  2.6027
 7785TIP3    H244847   5.840   1.624   0.737  1.1587 -0.9111  0.5070
 7786TIP3   OH244848   0.675   4.266  13.518  0.0851 -0.3115 -0.0164
 7786TIP3    H144849   0.607   4.327  13.489  1.3273  0.5454 -1.2692
 7786TIP3    H244850   0.711   4.305  13.597  1.0503  0.7857 -0.9565
 7787TIP3   OH244851   0.530   5.447  10.373 -0.3012 -0.0272 -0.3869
 7787TIP3    H144852   0.589   5.522  10.378  0.4721 -0.5785 -0.9776
 7787TIP3    H244853   0.587   5.373  10.353 -1.1924 -0.5757 -0.9503
 7788TIP3   OH244854   6.128   3.512   1.344 -0.1901  0.2746  0.3767
 7788TIP3    H144855   6.139   3.515   1.439  1.5154  1.3390  0.1965
 7788TIP3    H244856   6.038   3.540   1.329 -0.9023 -1.1721  1.7270
 7789TIP3   OH244857   3.981   5.692   4.843 -0.2676  0.0849  0.0672
 7789TIP3    H144858   3.891   5.667   4.860 -0.1796  0.3540  0.9746
 7789TIP3    H244859   4.021   5.614   4.804 -1.3770  0.5807 -2.2309
 7790TIP3   OH244860   4.822   0.463   3.794 -0.6341  0.8561  0.7810
 7790TIP3    H144861   4.737   0.505   3.783 -0.2736  1.4079 -0.0235
 7790TIP3    H244862   4.848   0.439   3.705 -1.7027 -2.9029  1.3137
 7791TIP3   OH244863   2.483   1.179   4.138 -0.0780 -0.2541 -0.2599
 7791TIP3    H144864   2.428   1.108   4.171 -2.7600  0.7890 -2.1224
 7791TIP3    H244865   2.430   1.258   4.151  2.0158  1.1605  0.0319
 7792TIP3   OH244866   3.190   3.836   3.182  0.2258  0.3149  0.3163
 7792TIP3    H144867   3.234   3.850   3.266 -0.0282  1.8246  0.2308
 7792TIP3    H244868   3.259   3.841   3.117  0.6120 -2.0385  0.4702
 7793TIP3   OH244869   4.510   4.269   5.209 -0.1267 -0.5664  0.2336
 7793TIP3    H144870   4.551   4.353   5.193  1.8981 -1.6267 -0.4560
 7793TIP3    H244871   4.441   4.263   5.143 -0.3757  0.5503  0.3639
 7794TIP3   OH244872   6.107   1.047  15.131  0.3303  0.3074 -0.1111
 7794TIP3    H144873   6.179   0.988  15.151 -1.8152 -1.5578  2.9795
 7794TIP3    H244874   6.123   1.124  15.185  0.3212  0.1456  0.1236
 7795TIP3   OH244875   2.771   5.704  13.491 -0.2185 -0.0095  0.1975
 7795TIP3    H144876   2.748   5.768  13.424  0.1071 -0.4656 -0.3482
 7795TIP3    H244877   2.708   5.721  13.562 -2.2440 -1.1742 -1.2314
 7796TIP3   OH244878   6.282   4.590   2.169 -0.1270  0.3248 -0.5902
 7796TIP3    H144879   6.332   4.638   2.235  1.7916 -0.9764 -0.9880
 7796TIP3    H244880   6.301   4.634   2.086  2.1825 -1.3628 -1.0585
 7797TIP3   OH244881   5.441   6.324   3.102  0.3258  0.1351 -0.6217
 7797TIP3    H144882   5.349   6.333   3.078  1.0969  0.3631 -4.0655
 7797TIP3    H244883   5.450   6.234   3.131 -0.9032 -0.0164 -0.6848
 7798TIP3   OH244884   3.045   6.517  11.594  0.3546  0.0963 -0.5665
 7798TIP3    H144885   3.019   6.557  11.510  0.0615 -0.2460 -0.6397
 7798TIP3    H244886   2.965   6.517  11.646  0.8984  1.8426  0.3426
 7799TIP3   OH244887   3.837   4.573   0.192  0.1640 -0.6354 -0.3128
 7799TIP3    H144888   3.750   4.563   0.152  0.5246  1.0909 -1.6507
 7799TIP3    H244889   3.827   4.644   0.255  1.0235  1.0753 -2.0080
 7800TIP3   OH244890   5.046   5.660  15.123  0.1645 -0.3781  0.1745
 7800TIP3    H144891   5.043   5.753  15.099  0.3209 -0.5169 -0.4037
 7800TIP3    H244892   4.955   5.631  15.118  0.1998 -0.4145 -0.3035
 7801TIP3   OH244893   2.818   6.388   0.868 -0.4752 -0.2402  0.1308
 7801TIP3    H144894   2.755   6.411   0.800  1.4054  0.5726 -1.4581
 7801TIP3    H244895   2.817   6.292   0.871 -0.7387 -0.2811 -0.9363
 7802TIP3   OH244896   6.638   1.454  15.573 -0.8112 -0.1579 -0.0805
 7802TIP3    H144897   6.706   1.500  15.621 -0.9316 -0.4541  0.3770
 7802TIP3    H244898   6.568   1.520  15.562 -0.7588 -0.0731  0.0964
 7803TIP3   OH244899   2.489   3.933   0.242  0.2316  0.0617 -0.2162
 7803TIP3    H144900   2.584   3.929   0.228  0.0508 -3.5819 -1.1800
 7803TIP3    H244901   2.453   3.955   0.156  0.1363 -0.1009 -0.2180
 7804TIP3   OH244902   2.712   5.205   1.682  0.1686 -0.6483 -0.2335
 7804TIP3    H144903   2.753   5.143   1.743 -0.0383 -1.8220 -1.2527
 7804TIP3    H244904   2.620   5.209   1.711  0.6054  0.7527  1.0622
 7805TIP3   OH244905   1.118   4.138   6.252  0.0678 -0.4408 -0.9403
 7805TIP3    H144906   1.175   4.197   6.202 -0.0997  0.9422  0.4050
 7805TIP3    H244907   1.065   4.197   6.305 -1.3077 -1.7845 -0.7753
 7806TIP3   OH244908   6.405   2.326   5.170 -0.0257 -0.1940 -0.1521
 7806TIP3    H144909   6.341   2.395   5.182  0.8516  0.4832  0.7308
 7806TIP3    H244910   6.473   2.365   5.115 -0.4529 -0.9767 -1.2795
 7807TIP3   OH244911   5.349   1.890  16.947  0.1646  0.0290 -0.4863
 7807TIP3    H144912   5.302   1.900  17.030  0.1294 -0.9178 -0.3734
 7807TIP3    H244913   5.280   1.880  16.882  0.1981  0.1499 -0.5403
 7808TIP3   OH244914   6.384   0.718  11.962  0.0642  0.2880  0.3581
 7808TIP3    H144915   6.467   0.713  11.914  0.1394 -0.1762  0.5285
 7808TIP3    H244916   6.347   0.630  11.955 -0.6187  0.6096 -0.0679
 7809TIP3   OH244917   3.933   6.585  15.945 -0.6527 -0.4178  0.0195
 7809TIP3    H144918   4.022   6.615  15.931 -1.1293  1.5145  0.8044
 7809TIP3    H244919   3.940   6.489  15.948  1.4113 -0.3029  0.3056
 7810TIP3   OH244920   1.451   2.915   5.228  0.0349 -0.4902 -0.3139
 7810TIP3    H144921   1.429   2.915   5.135  1.0347 -0.2171 -0.5556
 7810TIP3    H244922   1.546   2.916   5.231  0.0489  1.6272  0.7075
 7811TIP3   OH244923   2.943   0.821   2.801 -0.3532 -0.3900  0.0062
 7811TIP3    H144924   2.861   0.788   2.764 -0.1814  0.0645 -0.7979
 7811TIP3    H244925   2.950   0.777   2.886 -2.0330  0.4540  0.6475
 7812TIP3   OH244926   4.850   3.975  10.798 -0.8827  0.5168  0.0142
 7812TIP3    H144927   4.761   4.009  10.806 -1.4353 -1.2140  2.3921
 7812TIP3    H244928   4.893   3.998  10.880 -0.1592 -1.2974  0.2033
 7813TIP3   OH244929   3.008   0.059  15.385 -0.1267  0.0365  0.4662
 7813TIP3    H144930   2.966  -0.019  15.422 -0.2573  0.5844  1.5135
 7813TIP3    H244931   3.061   0.026  15.313 -1.0034 -0.8848  0.2215
 7814TIP3   OH244932   0.911   1.623  11.448  0.5927  0.1009  0.3241
 7814TIP3    H144933   0.825   1.632  11.406  0.0425 -0.0660  1.3889
 7814TIP3    H244934   0.901   1.666  11.533  0.9336 -1.7068  1.3169
 7815TIP3   OH244935   0.737   6.130  12.908  0.7729  0.3820 -0.1828
 7815TIP3    H144936   0.824   6.166  12.898  0.1703  1.6058 -1.3775
 7815TIP3    H244937   0.720   6.085  12.825 -0.0099  0.8237 -0.2753
 7816TIP3   OH244938   6.160   1.993  12.527 -0.1909  0.2687 -0.0629
 7816TIP3    H144939   6.216   1.960  12.597 -1.9591  0.2676  1.4306
 7816TIP3    H244940   6.123   1.914  12.487 -2.1029  0.2328  1.5647
 7817TIP3   OH244941   5.694   0.363   5.024 -0.6037 -0.1790  0.2534
 7817TIP3    H144942   5.660   0.288   4.975 -1.3852 -0.1682  0.7709
 7817TIP3    H244943   5.677   0.438   4.968 -1.0274 -0.2307  0.3088
 7818TIP3   OH244944   2.503   1.751   3.367  0.0794  0.2024  0.0417
 7818TIP3    H144945   2.540   1.670   3.330 -0.2891  1.0465 -2.3927
 7818TIP3    H244946   2.562   1.820   3.337  0.0032  0.9312  1.5083
 7819TIP3   OH244947   3.681   2.492  12.967  0.3467 -0.5593  0.0240
 7819TIP3    H144948   3.634   2.409  12.960  2.2138 -1.5435 -2.0267
 7819TIP3    H244949   3.627   2.554  12.918  1.0343 -1.6579 -2.2692
 7820TIP3   OH244950   1.286   6.263   4.862  0.0259  0.1739 -0.2192
 7820TIP3    H144951   1.320   6.274   4.950 -0.3935 -1.4385  0.1819
 7820TIP3    H244952   1.251   6.348   4.838  0.7337  0.8007  0.9140
 7821TIP3   OH244953   3.034   0.675   0.968  0.3722  0.3640  0.3185
 7821TIP3    H144954   3.097   0.745   0.982 -0.0987  0.5929  1.4031
 7821TIP3    H244955   3.041   0.620   1.046 -1.1312  0.6936  0.7270
 7822TIP3   OH244956   5.062   1.416   5.379 -0.2836 -0.0886  0.2716
 7822TIP3    H144957   5.056   1.447   5.289 -0.2927 -0.0421  0.2880
 7822TIP3    H244958   4.979   1.440   5.419 -0.0247  0.4988  0.4773
 7823TIP3   OH244959   4.548   6.266   2.886 -0.1117 -0.6928  0.5244
 7823TIP3    H144960   4.508   6.324   2.821 -0.2544  1.0059  2.0730
 7823TIP3    H244961   4.476   6.244   2.945 -0.0197 -2.3586  0.0600
 7824TIP3   OH244962   6.070   6.049   5.816 -0.3993 -0.4418  0.5335
 7824TIP3    H144963   6.124   6.007   5.884  0.7004 -0.5944 -0.4033
 7824TIP3    H244964   6.132   6.071   5.746 -1.1137  1.7947  0.5183
 7825TIP3   OH244965   0.251   6.226   1.245 -0.1888  0.3401  0.0531
 7825TIP3    H144966   0.325   6.235   1.185  2.0840 -3.5831  1.9214
 7825TIP3    H244967   0.281   6.264   1.327 -0.6040 -0.3392  0.5326
 7826TIP3   OH244968   2.735   0.559   2.532 -0.2529 -0.3153 -0.6295
 7826TIP3    H144969   2.717   0.466   2.524  0.2199 -0.3200 -1.8219
 7826TIP3    H244970   2.780   0.582   2.451 -1.2348  1.1615 -0.7982
 7827TIP3   OH244971   0.111   6.678  11.760 -0.1030 -0.1606  0.0473
 7827TIP3    H144972   0.200   6.678  11.725 -0.4755 -3.8564 -1.2916
 7827TIP3    H244973   0.055   6.689  11.683 -0.8930  0.5651  0.6920
 7828TIP3   OH244974   0.543   1.886   3.382  0.7094 -0.4833  0.1601
 7828TIP3    H144975   0.539   1.791   3.392  1.8149 -0.5094  0.5284
 7828TIP3    H244976   0.599   1.900   3.305 -0.8961 -0.1437 -0.9795
 7829TIP3   OH244977   4.345   1.777  14.538  0.1040  0.4979  0.5284
 7829TIP3    H144978   4.329   1.870  14.529  0.7301  0.6580  0.9832
 7829TIP3    H244979   4.394   1.753  14.459 -0.1502  0.5228  0.3597
 7830TIP3   OH244980   4.243   6.397   2.428 -0.2038 -0.5064  0.3395
 7830TIP3    H144981   4.178   6.337   2.392 -0.0924  0.1843 -1.1354
 7830TIP3    H244982   4.289   6.431   2.350  0.2469  0.8760  1.1729
 7831TIP3   OH244983   6.114   4.555   5.007  0.2008 -0.3852  0.5967
 7831TIP3    H144984   6.054   4.481   4.996 -0.4258  0.2048 -0.1482
 7831TIP3    H244985   6.195   4.516   5.040 -1.0233 -1.0342  3.0526
 7832TIP3   OH244986   2.896   5.781  11.832 -0.1045 -0.0224  0.2803
 7832TIP3    H144987   2.894   5.860  11.886  0.8265  0.0610  0.2089
 7832TIP3    H244988   2.839   5.718  11.879  0.1160  0.2843  0.9748
 7833TIP3   OH244989   6.073   4.992   0.914  0.0295  0.2504  0.4494
 7833TIP3    H144990   6.029   5.076   0.923  1.8753  1.3609 -0.3436
 7833TIP3    H244991   6.162   5.014   0.887  0.8124 -1.9323  1.0360
 7834TIP3   OH244992   4.506   5.990   3.925  0.4701  0.2256  0.2613
 7834TIP3    H144993   4.535   6.059   3.984 -3.4127  0.8617  1.7148
 7834TIP3    H244994   4.421   5.963   3.959 -0.9700 -1.0331 -3.7380
 7835TIP3   OH244995   1.900   5.886   3.469 -0.1802 -0.7333  0.1684
 7835TIP3    H144996   1.965   5.816   3.457 -1.0866 -1.4196 -0.9922
 7835TIP3    H244997   1.838   5.850   3.533  1.4075  0.5819  2.6144
 7836TIP3   OH244998   6.472   4.220  14.569  0.1665  0.2098 -0.1249
 7836TIP3    H144999   6.523   4.150  14.528  2.1695  1.1802  0.5793
 7836TIP3    H245000   6.468   4.289  14.503 -0.3876  0.0871 -0.2271
 7837TIP3   OH245001   3.243   0.800  11.706 -0.6546  0.1287 -0.1197
 7837TIP3    H145002   3.251   0.791  11.611  0.7104 -1.3409  0.0971
 7837TIP3    H245003   3.332   0.816  11.737 -1.0176  0.1617  0.9716
 7838TIP3   OH245004   0.188   4.518  15.874  0.8286 -0.1650  0.2190
 7838TIP3    H145005   0.210   4.448  15.936  2.5444  0.7933  0.7473
 7838TIP3    H245006   0.109   4.558  15.910  2.8770  1.6965  3.0558
 7839TIP3   OH245007   3.104   2.464  14.156  0.1480 -0.4494 -0.3659
 7839TIP3    H145008   3.132   2.552  14.182  0.0018 -0.3256 -0.6133
 7839TIP3    H245009   3.085   2.419  14.238  1.2185 -0.5959 -0.1834
 7840TIP3   OH245010   4.362   5.729   4.585 -0.1118 -0.4091 -0.1336
 7840TIP3    H145011   4.351   5.786   4.661  1.1870 -0.0180 -0.2136
 7840TIP3    H245012   4.365   5.640   4.622  1.0985 -0.1838  0.3681
 7841TIP3   OH245013   5.469   4.496   6.070  0.1982  0.1616 -0.3896
 7841TIP3    H145014   5.511   4.504   5.984 -1.0836  2.1486 -0.8917
 7841TIP3    H245015   5.376   4.507   6.053 -0.2225 -0.7255  1.1243
 7842TIP3   OH245016   4.293   0.784  12.086 -0.5798 -0.3732  0.6576
 7842TIP3    H145017   4.298   0.839  12.008 -1.2885 -0.2968  0.6614
 7842TIP3    H245018   4.384   0.763  12.106 -0.3448  0.2463  0.2693
 7843TIP3   OH245019   4.937   2.550   5.255 -0.1318 -0.3458  0.2085
 7843TIP3    H145020   4.954   2.633   5.211  0.2115  0.0805  1.1121
 7843TIP3    H245021   4.847   2.527   5.232 -0.3486  0.4636  0.2375
 7844TIP3   OH245022   4.249   3.101  11.579 -0.1606 -0.6939  0.4610
 7844TIP3    H145023   4.225   3.122  11.489  0.7012  1.9473  0.7708
 7844TIP3    H245024   4.305   3.024  11.572  1.4686  0.6009 -1.4782
 7845TIP3   OH245025   6.719   1.979  12.104 -0.0466  0.0756  0.0258
 7845TIP3    H145026   6.814   1.990  12.096 -0.2495  2.4754  0.0767
 7845TIP3    H245027   6.684   2.065  12.081 -2.2762 -0.9764 -0.7558
 7846TIP3   OH245028   4.366   0.432   4.444  0.1073 -0.3501 -0.1721
 7846TIP3    H145029   4.398   0.360   4.498  1.3020  0.7487  0.6537
 7846TIP3    H245030   4.312   0.390   4.377  0.1365 -1.9212  0.7423
 7847TIP3   OH245031   3.393   3.210  15.405  0.1432  0.8161 -0.1296
 7847TIP3    H145032   3.415   3.275  15.338  0.3485 -0.1975 -1.0798
 7847TIP3    H245033   3.444   3.133  15.381  1.7339  1.0085  2.3225
 7848TIP3   OH245034   2.459   3.564  13.787  0.2338 -0.0331 -0.3587
 7848TIP3    H145035   2.444   3.512  13.708  1.7791 -1.7063  0.4006
 7848TIP3    H245036   2.450   3.502  13.859  1.7166  0.8133  0.6042
 7849TIP3   OH245037   3.827   6.394  11.893  0.0308  0.4461 -0.2083
 7849TIP3    H145038   3.879   6.448  11.833  0.2674  1.1053  0.5771
 7849TIP3    H245039   3.788   6.456  11.953  1.7098 -0.3432  1.8168
 7850TIP3   OH245040   0.338   0.769  14.582  0.2973  0.4375 -0.4107
 7850TIP3    H145041   0.420   0.719  14.579 -1.3034 -2.3512 -1.3825
 7850TIP3    H245042   0.345   0.830  14.508  1.8659  0.9951  0.1473
 7851TIP3   OH245043   3.501   3.673  13.879 -0.0636  0.2751  0.0272
 7851TIP3    H145044   3.589   3.697  13.850  1.0514 -2.1063  1.1317
 7851TIP3    H245045   3.461   3.630  13.803  0.7048 -0.8794  0.2550
 7852TIP3   OH245046   2.696   2.904  16.685  0.0127 -0.7151 -0.5496
 7852TIP3    H145047   2.788   2.883  16.671  0.9748  2.0910  0.8403
 7852TIP3    H245048   2.680   2.885  16.777 -0.2661  0.5360 -0.3274
 7853TIP3   OH245049   2.180   1.561  13.889  0.1880  0.1663  0.0980
 7853TIP3    H145050   2.106   1.550  13.829  0.5495  1.1686 -0.5598
 7853TIP3    H245051   2.162   1.643  13.933 -0.1699 -0.6576  1.5357
 7854TIP3   OH245052   5.219   3.942  14.452 -0.6152  0.0506 -0.5299
 7854TIP3    H145053   5.292   4.003  14.461 -1.2331  0.8234 -0.5632
 7854TIP3    H245054   5.189   3.953  14.362 -2.2221  1.5002  0.1076
 7855TIP3   OH245055   0.601   4.664   0.693  0.5712  0.2945  0.1897
 7855TIP3    H145056   0.553   4.603   0.638  0.6914  0.1626  0.2331
 7855TIP3    H245057   0.548   4.671   0.773  0.3794  0.5123  0.0458
 7856TIP3   OH245058   5.455   3.509  14.213 -0.3036 -0.3009  0.1258
 7856TIP3    H145059   5.447   3.585  14.155 -1.7587 -0.1761  0.4432
 7856TIP3    H245060   5.504   3.542  14.289 -0.9692  0.3638  0.2853
 7857TIP3   OH245061   6.360   2.164  13.741 -0.0488  0.3173 -0.4638
 7857TIP3    H145062   6.341   2.253  13.710  1.9754  1.2050  0.6031
 7857TIP3    H245063   6.436   2.175  13.798  2.5221 -2.5169 -2.9907
 7858TIP3   OH245064   0.617   2.710  15.859  0.2475 -0.0778 -1.7945
 7858TIP3    H145065   0.566   2.786  15.829  0.0988  0.3321 -0.5489
 7858TIP3    H245066   0.554   2.638  15.862 -0.0774  0.2333 -1.0440
 7859TIP3   OH245067   2.908   0.594  16.397 -0.4255 -0.2594 -0.0196
 7859TIP3    H145068   2.972   0.527  16.375  0.8993  0.9589 -0.0753
 7859TIP3    H245069   2.849   0.552  16.459  1.1876 -1.0797  1.0418
 7860TIP3   OH245070   0.047   6.456   2.065  0.0853 -0.8989  0.4278
 7860TIP3    H145071   0.077   6.452   2.156  1.0041  0.4276  0.2196
 7860TIP3    H245072  -0.042   6.420   2.068 -0.2700 -0.0240  2.0289
 7861TIP3   OH245073   0.949   3.128   4.722  0.0984 -0.3789  0.4438
 7861TIP3    H145074   0.901   3.187   4.780 -2.4982  0.6723 -2.4623
 7861TIP3    H245075   1.014   3.184   4.679 -1.0276 -0.0162 -0.8580
 7862TIP3   OH245076   2.013   2.861  14.354  0.1057  0.3303 -0.3401
 7862TIP3    H145077   1.987   2.810  14.430 -2.7566 -0.2377 -1.5470
 7862TIP3    H245078   2.042   2.796  14.290 -1.4516  0.3543 -1.1149
 7863TIP3   OH245079   2.448   4.805   5.195 -0.3573  0.1266  0.1169
 7863TIP3    H145080   2.487   4.888   5.167  0.7247  0.3245  2.0158
 7863TIP3    H245081   2.401   4.826   5.276 -1.9498 -0.7229 -0.5316
 7864TIP3   OH245082   2.692   3.449   2.488 -0.7167  0.2832 -0.0312
 7864TIP3    H145083   2.639   3.434   2.410 -0.1931  1.0398 -0.5460
 7864TIP3    H245084   2.640   3.412   2.560 -1.5509  0.2591 -0.6296
 7865TIP3   OH245085   4.642   6.434  13.492 -0.3072 -0.1585 -0.0601
 7865TIP3    H145086   4.632   6.500  13.424  1.0136  0.0255 -0.0831
 7865TIP3    H245087   4.734   6.409  13.489 -0.6840 -1.6897  0.2374
 7866TIP3   OH245088   5.741   5.393  13.358  0.5124 -0.6161  0.3018
 7866TIP3    H145089   5.675   5.387  13.427  0.8841 -0.1775  0.7054
 7866TIP3    H245090   5.692   5.385  13.277 -0.2651  1.2248  0.5350
 7867TIP3   OH245091   2.167   6.364   2.488 -0.0268  0.6292 -0.1335
 7867TIP3    H145092   2.150   6.385   2.580 -0.1845 -0.0161 -0.0149
 7867TIP3    H245093   2.146   6.271   2.479  0.6509  0.5100 -0.6605
 7868TIP3   OH245094   3.166   2.362   0.959 -0.2262 -0.0169  0.3400
 7868TIP3    H145095   3.225   2.286   0.953 -1.3209 -0.9877  1.2036
 7868TIP3    H245096   3.224   2.436   0.977  0.7302 -1.0115  1.5941
 7869TIP3   OH245097   0.672   3.916  15.322  0.1114  0.4900 -0.4319
 7869TIP3    H145098   0.704   3.997  15.362 -0.8281  0.2242  0.9196
 7869TIP3    H245099   0.725   3.847  15.361 -0.9177  0.2126  0.5335
 7870TIP3   OH245100   0.362   3.926  11.352 -0.0575 -0.1297 -0.2421
 7870TIP3    H145101   0.312   3.894  11.277  0.2531 -1.1907 -0.0172
 7870TIP3    H245102   0.423   3.855  11.372 -1.2199 -0.6053  2.0217
 7871TIP3   OH245103   5.301   1.482  16.204 -0.0897  0.0425 -0.0928
 7871TIP3    H145104   5.270   1.404  16.159  0.4742 -0.2515  0.0119
 7871TIP3    H245105   5.222   1.526  16.234 -0.5181  0.5218 -1.8184
 7872TIP3   OH245106   6.229   2.320  15.646  0.4122 -0.6669  0.2236
 7872TIP3    H145107   6.235   2.395  15.706 -0.5595  0.9201 -1.5422
 7872TIP3    H245108   6.158   2.266  15.682 -1.0495  0.9292 -0.1033
 7873TIP3   OH245109   6.040   5.283   4.758  0.0794  0.6171 -0.1750
 7873TIP3    H145110   6.070   5.331   4.681 -0.7763  1.6008  0.0932
 7873TIP3    H245111   6.121   5.254   4.800  0.5628 -0.5698 -1.8075
 7874TIP3   OH245112   4.624   5.498  14.287  0.2041  0.4782  0.2514
 7874TIP3    H145113   4.667   5.539  14.212  0.6297 -1.6272 -0.7336
 7874TIP3    H245114   4.530   5.504  14.267  0.3420 -1.2413 -1.1952
 7875TIP3   OH245115   3.822   4.844  14.003  0.3197 -0.4126  0.2552
 7875TIP3    H145116   3.878   4.907  14.048 -2.1642  2.5633 -0.4461
 7875TIP3    H245117   3.737   4.853  14.045 -0.8519 -1.1247 -1.7925
 7876TIP3   OH245118   2.117   5.136  14.285  0.5307 -0.5249  0.1796
 7876TIP3    H145119   2.109   5.226  14.315 -2.0221 -0.3365 -0.8123
 7876TIP3    H245120   2.162   5.091  14.357  0.2483  1.1698  1.4732
 7877TIP3   OH245121   5.144   1.713  13.510  0.4157  0.3151  0.1957
 7877TIP3    H145122   5.215   1.673  13.459  0.5462  0.8994 -0.0940
 7877TIP3    H245123   5.099   1.770  13.447 -1.6224 -1.5942 -0.2041
 7878TIP3   OH245124   0.735   1.076   5.155  0.2296  0.9502 -0.2704
 7878TIP3    H145125   0.650   1.040   5.129  0.0255  2.3330 -1.6040
 7878TIP3    H245126   0.783   1.000   5.188 -1.5727  0.1707  0.7188
 7879TIP3   OH245127   3.467   5.437   1.099  0.5730 -0.2170 -0.0680
 7879TIP3    H145128   3.495   5.346   1.111 -0.5061 -0.3991  1.3526
 7879TIP3    H245129   3.372   5.434   1.112  0.1430  0.7432 -2.4650
 7880TIP3   OH245130   6.140   3.402  13.266 -0.0262 -0.5081 -0.6075
 7880TIP3    H145131   6.138   3.426  13.173  1.0313 -0.7762 -0.7115
 7880TIP3    H245132   6.133   3.485  13.312 -1.9760 -0.4671 -0.8850
 7881TIP3   OH245133   3.828   5.096  10.383  0.2209  0.3072 -0.4795
 7881TIP3    H145134   3.860   5.066  10.468  0.2123  0.2699 -0.4892
 7881TIP3    H245135   3.820   5.016  10.331 -0.4183  0.2517 -0.3035
 7882TIP3   OH245136   0.035   2.252  11.631 -0.0980 -0.1099  0.2656
 7882TIP3    H145137  -0.037   2.193  11.610  0.0950  0.6179 -3.0503
 7882TIP3    H245138  -0.004   2.339  11.635  0.5405  0.3228 -1.8140
 7883TIP3   OH245139   4.787   0.786  13.693  0.2378  0.4809 -0.0377
 7883TIP3    H145140   4.853   0.850  13.718  0.1891  0.0135  1.3551
 7883TIP3    H245141   4.830   0.701  13.703 -0.4240  0.1930  0.4307
 7884TIP3   OH245142   0.726   2.988  15.619  0.1122  0.4033 -0.0552
 7884TIP3    H145143   0.725   3.084  15.609 -1.4793  0.4372  0.1806
 7884TIP3    H245144   0.645   2.968  15.666  0.6391 -1.0310  0.2867
 7885TIP3   OH245145   3.749   6.592   2.532 -0.0914  0.0056 -0.4418
 7885TIP3    H145146   3.686   6.661   2.513  0.3227  0.5975  0.2857
 7885TIP3    H245147   3.698   6.524   2.576 -0.1521  0.6579  0.5115
 7886TIP3   OH245148   2.304   4.907   5.395  0.0371 -0.0148 -0.3028
 7886TIP3    H145149   2.286   4.993   5.432  1.8671 -0.4982  1.9210
 7886TIP3    H245150   2.246   4.847   5.442  0.8417 -0.3496  0.2885
 7887TIP3   OH245151   4.903   2.260   3.330 -0.4397  0.1509  0.0638
 7887TIP3    H145152   4.930   2.296   3.414 -0.7120  0.7598 -0.1047
 7887TIP3    H245153   4.821   2.304   3.310 -1.0941 -1.0055  0.1306
 7888TIP3   OH245154   2.437   0.833  14.423 -0.1952  0.3666 -0.0764
 7888TIP3    H145155   2.436   0.794  14.336 -0.5495  0.5008 -0.1375
 7888TIP3    H245156   2.346   0.827  14.452  0.0109 -0.0979  0.4770
 7889TIP3   OH245157   3.163   0.135  17.225 -0.5064  0.1432 -0.2565
 7889TIP3    H145158   3.252   0.118  17.253 -0.9540  0.2931  1.3343
 7889TIP3    H245159   3.168   0.216  17.174  0.0476  1.0088  1.1376
 7890TIP3   OH245160   1.695   2.705  12.676  0.2741  0.5935 -0.2655
 7890TIP3    H145161   1.617   2.754  12.703  0.3966  0.1099  1.0277
 7890TIP3    H245162   1.702   2.634  12.740 -0.3544 -1.6444 -2.4961
 7891TIP3   OH245163   2.906   3.030   2.031  0.4413  0.1975  0.4819
 7891TIP3    H145164   2.936   3.020   1.941  0.7596  1.9506  0.3575
 7891TIP3    H245165   2.866   2.946   2.052 -1.6239  0.4083 -2.0556
 7892TIP3   OH245166   5.180   0.497  13.106 -0.0956 -0.1021 -0.2408
 7892TIP3    H145167   5.126   0.538  13.174 -0.8599  0.3911 -1.1150
 7892TIP3    H245168   5.156   0.544  13.025  1.6383  0.1158 -0.6579
 7893TIP3   OH245169   6.701   0.668  13.115  0.0834  0.4516  0.3084
 7893TIP3    H145170   6.621   0.688  13.066 -0.7087 -2.1149  0.3862
 7893TIP3    H245171   6.710   0.741  13.176 -2.4453  0.6692  0.5482
 7894TIP3   OH245172   2.275   2.169  12.884  0.5038  0.6209  0.3960
 7894TIP3    H145173   2.331   2.213  12.948  0.1055 -1.1264  2.0282
 7894TIP3    H245174   2.335   2.115  12.834  0.3684 -1.2514  2.1461
 7895TIP3   OH245175   2.179   0.359   3.899 -0.6525 -0.2486 -0.1128
 7895TIP3    H145176   2.259   0.337   3.946 -2.2902  0.3106  3.2151
 7895TIP3    H245177   2.204   0.358   3.807  2.9460 -0.8810  0.7395
 7896TIP3   OH245178   6.495   3.567  12.611  0.1363  0.6109 -0.8982
 7896TIP3    H145179   6.542   3.611  12.541  1.6092 -0.1484 -0.4180
 7896TIP3    H245180   6.555   3.499  12.643 -1.6886 -1.1353 -0.9751
 7897TIP3   OH245181   2.664   5.121   0.497  0.2137  0.1925  0.5130
 7897TIP3    H145182   2.656   5.032   0.533 -0.6124 -0.4028 -1.0306
 7897TIP3    H245183   2.592   5.170   0.537 -1.0456 -0.6107 -0.6775
 7898TIP3   OH245184   0.454   3.846  16.696 -0.2817  0.0497 -0.5672
 7898TIP3    H145185   0.387   3.913  16.682 -2.3921 -1.7446  0.4062
 7898TIP3    H245186   0.442   3.785  16.623 -0.0897 -0.5733 -0.0843
 7899TIP3   OH245187   0.002   5.489   4.840 -0.0811 -0.0376 -0.0995
 7899TIP3    H145188   0.078   5.512   4.893 -0.1921  0.3219 -0.0905
 7899TIP3    H245189   0.034   5.424   4.777  0.9879  2.2023 -2.0455
 7900TIP3   OH245190   5.814   4.314   5.335 -0.3642 -0.2581 -0.0382
 7900TIP3    H145191   5.764   4.302   5.416  1.2550 -0.0029  1.0547
 7900TIP3    H245192   5.902   4.337   5.365  0.1855  0.2147 -1.8956
 7901TIP3   OH245193   0.856   5.871  12.428 -0.3844  0.1447  0.6622
 7901TIP3    H145194   0.781   5.814  12.410 -0.9744  0.7506  1.1521
 7901TIP3    H245195   0.901   5.879  12.343 -0.8166 -0.3045  0.3857
 7902TIP3   OH245196   0.055   0.038   5.603 -0.7150 -0.8186  0.4958
 7902TIP3    H145197   0.043  -0.053   5.630 -2.0577 -1.2159 -1.2157
 7902TIP3    H245198   0.027   0.039   5.511  0.1953  1.1363  0.1896
 7903TIP3   OH245199   1.925   0.295  12.049  0.5681 -0.2934  0.4424
 7903TIP3    H145200   1.954   0.256  12.132  1.4222  0.3576  0.4681
 7903TIP3    H245201   1.878   0.224  12.005  0.0608 -0.6365  1.4996
 7904TIP3   OH245202   3.023   2.457  13.886 -0.5536 -0.0388 -0.5658
 7904TIP3    H145203   3.034   2.488  13.976 -0.0755  1.4422 -1.0966
 7904TIP3    H245204   3.092   2.392  13.874 -0.0519  0.3995 -0.1243
 7905TIP3   OH245205   3.366   6.557   3.956 -0.1165  0.2196  0.0248
 7905TIP3    H145206   3.355   6.646   3.990 -0.7422  0.7768 -1.5604
 7905TIP3    H245207   3.400   6.569   3.868 -1.9825 -1.0325 -0.9212
 7906TIP3   OH245208   6.819   2.285  16.630  0.5560  0.4107  0.2301
 7906TIP3    H145209   6.799   2.376  16.652  1.6118  0.8504 -0.5944
 7906TIP3    H245210   6.846   2.246  16.714  0.9693  1.0838  0.4096
 7907TIP3   OH245211   5.389   4.984   3.094  0.4007  0.3148 -0.7159
 7907TIP3    H145212   5.445   5.012   3.021 -0.3970  1.6801 -0.8517
 7907TIP3    H245213   5.348   5.065   3.124 -1.2614 -0.5851 -0.4287
 7908TIP3   OH245214   6.556   5.478  12.459  0.0230  0.3901  0.3216
 7908TIP3    H145215   6.594   5.449  12.542 -0.0056  0.6484  0.4269
 7908TIP3    H245216   6.495   5.547  12.484 -1.1516 -0.5866  0.2450
 7909TIP3   OH245217   0.365   0.769  12.045  0.0782 -0.1451  0.0213
 7909TIP3    H145218   0.348   0.680  12.013 -0.1040 -0.3443  0.6654
 7909TIP3    H245219   0.414   0.811  11.973  3.5526 -1.9305  1.1288
 7910TIP3   OH245220   2.544   1.337  15.728 -0.5500 -0.1463  0.2276
 7910TIP3    H145221   2.529   1.429  15.750  0.8034  0.5502 -1.5041
 7910TIP3    H245222   2.532   1.333  15.633  2.6596 -0.9649 -0.2584
 7911TIP3   OH245223   6.395   3.861  14.687 -0.1355  0.5491 -0.2309
 7911TIP3    H145224   6.423   3.892  14.601 -0.1598 -0.6980 -0.7069
 7911TIP3    H245225   6.306   3.830  14.674  0.0562 -0.1701  0.0989
 7912TIP3   OH245226   1.715   6.512   1.174 -0.6613 -0.4983  0.4166
 7912TIP3    H145227   1.634   6.543   1.133 -0.6505 -0.5162  0.3820
 7912TIP3    H245228   1.785   6.545   1.118 -0.5596  0.9385  1.3572
 7913TIP3   OH245229   3.678   1.229   1.441  0.2064 -0.4908  1.0305
 7913TIP3    H145230   3.611   1.297   1.451  0.6173  0.2160 -0.7213
 7913TIP3    H245231   3.730   1.236   1.521  2.1227  3.4649 -0.2914
 7914TIP3   OH245232   2.208   6.213   3.546  0.5808 -0.4297 -0.2767
 7914TIP3    H145233   2.221   6.210   3.641 -0.1570  0.4565 -0.1328
 7914TIP3    H245234   2.219   6.123   3.517  1.3686 -0.6154  0.5747
 7915TIP3   OH245235   3.556   3.724  12.523  0.2370  0.0621 -0.2383
 7915TIP3    H145236   3.639   3.706  12.568 -0.2095 -0.1178  0.5306
 7915TIP3    H245237   3.574   3.802  12.471  1.0719 -0.3478 -0.5844
 7916TIP3   OH245238   1.659   0.933   2.256 -0.6538 -0.5930 -0.4149
 7916TIP3    H145239   1.752   0.911   2.256 -0.5458 -0.1680  0.5378
 7916TIP3    H245240   1.645   0.981   2.338 -1.6656 -0.4607 -0.6497
 7917TIP3   OH245241   0.849   4.996   1.950  0.9213  0.6643 -0.6314
 7917TIP3    H145242   0.943   4.982   1.941  0.8101 -0.3433 -0.3588
 7917TIP3    H245243   0.825   4.948   2.029 -0.0526 -0.2532 -1.4577
 7918TIP3   OH245244   1.981   3.422  11.640 -0.2516 -0.1043  0.2593
 7918TIP3    H145245   1.913   3.458  11.697 -2.2791 -0.8769 -1.5443
 7918TIP3    H245246   2.063   3.439  11.686 -1.6016  1.4743  2.2058
 7919TIP3   OH245247   4.479   2.147   4.471  0.1646 -0.1649  0.0206
 7919TIP3    H145248   4.557   2.093   4.482  0.2448 -0.0278  0.1389
 7919TIP3    H245249   4.453   2.170   4.560 -1.4510 -2.2208  0.1726
 7920TIP3   OH245250   1.225   5.568  11.827  0.1335 -0.3627 -0.2131
 7920TIP3    H145251   1.205   5.512  11.751  0.7663 -0.5696 -0.2411
 7920TIP3    H245252   1.180   5.650  11.809  0.7006 -0.2279 -1.0751
 7921TIP3   OH245253   3.166   5.267   0.853 -0.3124 -0.3628 -0.3467
 7921TIP3    H145254   3.159   5.189   0.797  1.0881 -0.2660 -0.7161
 7921TIP3    H245255   3.170   5.340   0.792  1.0195 -0.2376 -0.1516
 7922TIP3   OH245256   6.434   1.603  14.754  0.0629 -0.2045  0.8641
 7922TIP3    H145257   6.342   1.590  14.730  0.2876 -1.3634  0.5577
 7922TIP3    H245258   6.481   1.540  14.700  1.3015  1.9160 -0.6953
 7923TIP3   OH245259   5.675   3.323  12.829 -0.1768 -0.4869 -0.3935
 7923TIP3    H145260   5.613   3.330  12.902 -0.6547 -0.0697 -0.8279
 7923TIP3    H245261   5.619   3.309  12.752  0.1538  1.2537 -1.0008
 7924TIP3   OH245262   2.186   0.630  15.564 -0.5938 -0.0856  0.2697
 7924TIP3    H145263   2.264   0.610  15.615  0.2338  0.7901 -0.6280
 7924TIP3    H245264   2.156   0.544  15.532 -0.6704 -0.5533  1.5359
 7925TIP3   OH245265   0.384   6.545  13.789  0.7185 -0.2106 -0.5281
 7925TIP3    H145266   0.471   6.545  13.829 -0.3917  0.4034  2.1249
 7925TIP3    H245267   0.337   6.475  13.834 -0.4896  0.2054 -1.0933
 7926TIP3   OH245268   3.525   3.862  13.623 -0.4103 -0.4667  0.3199
 7926TIP3    H145269   3.602   3.828  13.577  0.8827  1.1294  1.2308
 7926TIP3    H245270   3.504   3.943  13.577 -0.7338 -0.2205  0.8994
 7927TIP3   OH245271   4.787   1.317   0.876  0.2003 -0.1365 -0.1307
 7927TIP3    H145272   4.752   1.406   0.879  0.5363  0.0422 -1.2166
 7927TIP3    H245273   4.817   1.305   0.786  1.7964 -0.7218  0.4280
 7928TIP3   OH245274   0.419   4.218  11.887 -0.0390  0.3862  0.7575
 7928TIP3    H145275   0.470   4.204  11.967  0.4023 -3.4091  0.0103
 7928TIP3    H245276   0.473   4.181  11.817 -2.0473  0.0604 -0.7298
 7929TIP3   OH245277   2.039   3.579  17.049 -0.9180  0.1711  0.0280
 7929TIP3    H145278   1.994   3.516  16.992 -0.0951  0.4677 -0.9683
 7929TIP3    H245279   1.999   3.663  17.027 -0.4640  0.3144 -0.2561
 7930TIP3   OH245280   3.194   1.504   1.965 -0.1830 -0.0013  0.1353
 7930TIP3    H145281   3.256   1.510   2.037 -0.2430  1.0544  0.1092
 7930TIP3    H245282   3.108   1.502   2.007 -0.1888 -0.2654  0.1178
 7931TIP3   OH245283   3.151   2.379  15.127 -0.2838 -0.6580  0.4541
 7931TIP3    H145284   3.062   2.415  15.130  0.9020  2.4882  1.2117
 7931TIP3    H245285   3.157   2.338  15.041 -1.3449  2.4521 -1.2693
 7932TIP3   OH245286   3.759   5.381   0.906 -0.1116  0.0931 -0.1539
 7932TIP3    H145287   3.810   5.409   0.982 -2.6553  1.0303  1.3302
 7932TIP3    H245288   3.700   5.455   0.888 -1.4334 -1.1734 -1.3085
 7933TIP3   OH245289   5.805   3.755  13.679  0.6999 -0.4149 -0.1927
 7933TIP3    H145290   5.783   3.848  13.690  3.3707  0.0297  3.2446
 7933TIP3    H245291   5.867   3.753  13.606  0.2372  0.4200 -0.6158
 7934TIP3   OH245292   1.076   6.361  12.416  0.8482  0.5090 -0.5185
 7934TIP3    H145293   1.130   6.439  12.400  0.8497  0.6046 -0.0487
 7934TIP3    H245294   1.002   6.394  12.467 -0.2454  0.5897 -2.1018
 7935TIP3   OH245295   5.509   1.687   5.362  0.2684 -0.5301  0.1787
 7935TIP3    H145296   5.533   1.707   5.452  0.0608  0.3763  0.0501
 7935TIP3    H245297   5.589   1.701   5.312  0.2727 -0.5961  0.1675
 7936TIP3   OH245298   0.799   2.973  14.825  0.3911  0.2327 -0.0412
 7936TIP3    H145299   0.751   2.942  14.749 -1.0137  0.3185  0.7708
 7936TIP3    H245300   0.814   3.066  14.807 -1.7549  0.7663  0.6269
 7937TIP3   OH245301   6.500   3.343   4.239 -0.4035  0.2001 -0.4058
 7937TIP3    H145302   6.529   3.283   4.170 -2.3710 -0.2198 -0.9120
 7937TIP3    H245303   6.409   3.320   4.255 -0.5600  1.5968  0.9772
 7938TIP3   OH245304   5.541   0.766  12.858  0.4831 -0.3005  0.0976
 7938TIP3    H145305   5.528   0.860  12.849 -0.3335 -0.4390 -0.3031
 7938TIP3    H245306   5.549   0.734  12.768  0.4001 -0.6593  0.2145
 7939TIP3   OH245307   3.515   4.987   0.331 -0.5201 -0.3939 -0.1683
 7939TIP3    H145308   3.600   4.945   0.347  0.6225  1.4607 -1.0673
 7939TIP3    H245309   3.483   4.946   0.251 -0.6052 -1.2561  0.2911
 7940TIP3   OH245310   4.076   4.088  17.153  0.4060 -0.1191 -0.0360
 7940TIP3    H145311   4.170   4.072  17.143  0.6714  0.6144  1.0894
 7940TIP3    H245312   4.070   4.161  17.215 -0.9332 -1.2239  1.2463
 7941TIP3   OH245313   6.573   6.765  17.050  0.2564  0.1514  0.7829
 7941TIP3    H145314   6.650   6.720  17.085  0.6216 -1.2117 -1.6008
 7941TIP3    H245315   6.561   6.728  16.963 -2.7640  0.7539  0.8345
 7942TIP3   OH245316   6.673   0.353   0.374 -0.1316 -0.1023 -0.3412
 7942TIP3    H145317   6.744   0.358   0.310 -0.8831  0.4682 -1.1733
 7942TIP3    H245318   6.639   0.264   0.364  0.0067 -0.1432 -0.4612
 7943TIP3   OH245319   5.910   6.504   3.871  0.5249  0.2209  0.3241
 7943TIP3    H145320   5.926   6.419   3.913  1.6967 -0.0252 -0.5442
 7943TIP3    H245321   5.889   6.481   3.780 -2.6784  0.6904  0.8458
 7944TIP3   OH245322   3.869   5.449  10.498  0.0643  0.4682 -0.0200
 7944TIP3    H145323   3.886   5.392  10.573  0.4955 -0.7057 -0.9716
 7944TIP3    H245324   3.775   5.466  10.502 -0.6677 -2.5850 -1.1904
 7945TIP3   OH245325   0.543   3.311   1.689 -0.4250  0.9391 -0.1730
 7945TIP3    H145326   0.612   3.371   1.718  0.8361 -1.1535  1.4582
 7945TIP3    H245327   0.565   3.292   1.598  1.4020  0.0818  0.4016
 7946TIP3   OH245328   5.081   1.754   5.049 -0.1647 -0.0645 -0.0307
 7946TIP3    H145329   5.173   1.759   5.024  0.3031  1.8991  1.7986
 7946TIP3    H245330   5.035   1.808   4.985  0.2103  0.3513  0.0467
 7947TIP3   OH245331   2.520   5.815   3.369  0.1317 -0.1232  0.6850
 7947TIP3    H145332   2.608   5.852   3.365 -0.7138  1.9880 -0.0028
 7947TIP3    H245333   2.533   5.720   3.361  2.3388  0.0939  1.0399
 7948TIP3   OH245334   2.252   5.955   5.120 -0.6081  0.1177 -0.3354
 7948TIP3    H145335   2.233   5.870   5.080  1.4228 -0.2918 -0.5224
 7948TIP3    H245336   2.192   6.016   5.075  0.5356 -0.5818 -3.0066
 7949TIP3   OH245337   0.083   6.221  11.529  0.0867  0.5224  0.2664
 7949TIP3    H145338   0.171   6.183  11.531 -0.3730 -0.5978  0.5002
 7949TIP3    H245339   0.095   6.310  11.497  0.9805 -0.5713 -2.7630
 7950TIP3   OH245340   4.816   0.707   4.166  0.0924  0.8327  0.1872
 7950TIP3    H145341   4.756   0.763   4.117 -1.0451  0.1343  0.7481
 7950TIP3    H245342   4.825   0.750   4.251 -1.6439 -0.3258  1.0191
 7951TIP3   OH245343   3.317   4.472  10.679  0.1895 -0.3374  0.1877
 7951TIP3    H145344   3.314   4.472  10.774 -0.3659 -0.7904  0.1809
 7951TIP3    H245345   3.381   4.539  10.656  0.0461  0.0412  0.8710
 7952TIP3   OH245346   4.574   4.185  14.985 -0.3036 -0.0792 -0.2654
 7952TIP3    H145347   4.626   4.106  14.997  0.1801  0.1523 -0.7635
 7952TIP3    H245348   4.638   4.256  14.982 -0.7947  0.4480  1.0560
 7953TIP3   OH245349   2.884   2.493   2.148  0.3801 -0.3293 -0.2197
 7953TIP3    H145350   2.904   2.544   2.228 -0.2253  0.2722 -0.4451
 7953TIP3    H245351   2.970   2.464   2.118  0.4950 -2.2425  1.7187
 7954TIP3   OH245352   6.332   4.571   6.169  0.7407  0.7321 -0.5605
 7954TIP3    H145353   6.405   4.544   6.225  0.1451  1.8909  0.8262
 7954TIP3    H245354   6.374   4.602   6.089  1.8920  2.2766  0.5809
 7955TIP3   OH245355   3.271   2.343  10.909 -0.2195 -0.3514  0.1236
 7955TIP3    H145356   3.270   2.437  10.896 -0.6206 -0.0450  2.0338
 7955TIP3    H245357   3.180   2.319  10.924 -0.2067 -1.1627 -0.9594
 7956TIP3   OH245358   6.460   1.234  15.530 -0.1135 -0.1647 -0.3452
 7956TIP3    H145359   6.488   1.143  15.518  1.2274 -0.1966  2.3316
 7956TIP3    H245360   6.533   1.286  15.497  0.3816 -0.1488  0.7239
 7957TIP3   OH245361   4.755   4.456  11.126  0.2656 -0.2582 -0.1467
 7957TIP3    H145362   4.793   4.464  11.038  0.7709  1.0694  0.1711
 7957TIP3    H245363   4.731   4.364  11.133  1.2900 -0.6388 -1.2427
 7958TIP3   OH245364   6.346   1.578   1.536  0.3110 -0.3068  0.1481
 7958TIP3    H145365   6.278   1.641   1.510  1.2114  0.8510  0.4739
 7958TIP3    H245366   6.426   1.610   1.494  0.7674 -1.3199  0.2219
 7959TIP3   OH245367   5.065   5.596   3.091 -0.1512  0.6591  0.4845
 7959TIP3    H145368   5.082   5.572   3.000  1.4347  0.9575  0.6875
 7959TIP3    H245369   5.058   5.512   3.137 -1.9487  0.4748 -0.0445
 7960TIP3   OH245370   3.201   4.170  11.869 -0.4309 -0.2648 -0.4814
 7960TIP3    H145371   3.208   4.207  11.957 -0.5390  1.9270 -1.3528
 7960TIP3    H245372   3.273   4.209  11.820 -1.0988 -0.5188 -1.7024
 7961TIP3   OH245373   1.488   1.240  14.845  0.4457  0.4588 -0.7106
 7961TIP3    H145374   1.467   1.322  14.890 -0.9979 -0.4997  0.4428
 7961TIP3    H245375   1.437   1.244  14.764 -1.3275 -0.1695  0.3149
 7962TIP3   OH245376   0.751   1.550   0.887  0.0277  0.2889 -0.2250
 7962TIP3    H145377   0.804   1.610   0.939 -1.0963  0.3312  0.9311
 7962TIP3    H245378   0.800   1.539   0.805  1.7166  0.4458  0.7125
 7963TIP3   OH245379   4.360   3.027   3.092  0.2469 -0.1202 -0.0245
 7963TIP3    H145380   4.293   3.093   3.113 -0.0251 -0.8469  1.5207
 7963TIP3    H245381   4.320   2.944   3.118  0.6739 -0.8976 -1.7400
 7964TIP3   OH245382   2.662   4.152   5.522 -0.4204 -0.5800  0.2474
 7964TIP3    H145383   2.663   4.203   5.603  0.1663 -0.0669 -0.0807
 7964TIP3    H245384   2.721   4.080   5.538 -0.8901 -0.9072  0.5432
 7965TIP3   OH245385   5.392   4.683  16.763  0.0917 -0.4632 -0.1123
 7965TIP3    H145386   5.482   4.714  16.760 -0.0210 -0.2212 -1.9784
 7965TIP3    H245387   5.359   4.695  16.674 -0.8627 -3.2746 -0.2345
 7966TIP3   OH245388   3.236   3.549  15.969  0.0779  0.3947  0.5229
 7966TIP3    H145389   3.151   3.550  15.927  0.3038  3.0104 -0.0140
 7966TIP3    H245390   3.256   3.456  15.981 -2.9019 -0.2792  0.8609
 7967TIP3   OH245391   5.206   4.240  12.104 -0.0283 -0.1421 -0.0004
 7967TIP3    H145392   5.244   4.304  12.163  1.9323 -0.4894 -0.8249
 7967TIP3    H245393   5.166   4.175  12.162  1.2691 -0.1332  0.9342
 7968TIP3   OH245394   6.048   5.649  16.020 -0.0910  0.1477  0.1127
 7968TIP3    H145395   5.967   5.640  16.069  0.7217 -0.8081  1.3791
 7968TIP3    H245396   6.026   5.621  15.931 -0.6345 -2.5896  1.0077
 7969TIP3   OH245397   2.228   4.036   1.118  0.3961 -0.7674  0.2371
 7969TIP3    H145398   2.214   4.070   1.030  3.2056 -2.1550 -0.8435
 7969TIP3    H245399   2.166   3.963   1.125 -0.9508  0.3019  0.0923
 7970TIP3   OH245400   0.562   6.040   2.487 -0.1222 -0.3113  0.2075
 7970TIP3    H145401   0.546   6.081   2.403 -1.2498 -0.0456  0.5352
 7970TIP3    H245402   0.510   5.960   2.485 -4.3915  2.0428  2.4625
 7971TIP3   OH245403   3.506   4.815  16.865  0.3608 -0.4530  0.3723
 7971TIP3    H145404   3.561   4.831  16.941  0.2776 -0.6614  0.4770
 7971TIP3    H245405   3.555   4.752  16.812  2.3988  2.7351 -1.8385
 7972TIP3   OH245406   0.715   0.656   5.784  0.0196 -0.0410 -0.6721
 7972TIP3    H145407   0.692   0.648   5.876  1.2560  2.5432 -0.0737
 7972TIP3    H245408   0.662   0.729   5.752  0.7175  0.0659 -1.6138
 7973TIP3   OH245409   1.469   0.936  13.697  0.0956 -0.1901  0.4688
 7973TIP3    H145410   1.391   0.881  13.704  0.6971 -1.0114  0.8934
 7973TIP3    H245411   1.531   0.899  13.760  1.8653 -1.3375 -1.8105
 7974TIP3   OH245412   3.081   3.674  14.116 -0.8402  0.0118 -0.0332
 7974TIP3    H145413   3.003   3.688  14.061  0.5402 -0.2961 -2.1801
 7974TIP3    H245414   3.047   3.669  14.205 -3.1223  1.2740 -0.7609
 7975TIP3   OH245415   2.967   4.818  15.764  0.0027  0.3154  0.2530
 7975TIP3    H145416   2.940   4.796  15.675 -0.8226 -1.7486  0.9761
 7975TIP3    H245417   3.055   4.856  15.753  0.5537 -1.2683 -1.3293
 7976TIP3   OH245418   2.618   0.305   4.611 -0.0534  0.4296  0.1677
 7976TIP3    H145419   2.670   0.378   4.645  0.0709 -0.1182  1.2108
 7976TIP3    H245420   2.677   0.258   4.553  1.1765 -1.0041  2.4173
 7977TIP3   OH245421   1.628   1.851   4.199  0.4842  0.3773 -0.1167
 7977TIP3    H145422   1.545   1.842   4.152 -0.0395 -1.5838  1.0664
 7977TIP3    H245423   1.658   1.761   4.213  0.5651  0.7750  3.2159
 7978TIP3   OH245424   4.811   0.348  12.042  0.1550  0.6489  0.0258
 7978TIP3    H145425   4.761   0.394  11.975  0.2782  1.0783  0.2309
 7978TIP3    H245426   4.840   0.268  11.999 -2.5314 -0.7182  0.4989
 7979TIP3   OH245427   2.597   4.553  16.679  0.1042  0.0776 -0.4421
 7979TIP3    H145428   2.623   4.645  16.688  0.5186  0.1040 -1.6967
 7979TIP3    H245429   2.614   4.532  16.587  0.2285 -1.3235 -0.1243
 7980TIP3   OH245430   4.396   2.915  11.452 -0.0651  0.1463 -0.0039
 7980TIP3    H145431   4.406   2.935  11.360  1.0379  0.3670  0.1538
 7980TIP3    H245432   4.469   2.857  11.472 -1.1363 -1.1206  0.3931
 7981TIP3   OH245433   0.165   1.484  11.081 -0.0219 -0.1824  0.5679
 7981TIP3    H145434   0.103   1.522  11.144 -0.7006 -1.7028  0.8622
 7981TIP3    H245435   0.251   1.498  11.121 -0.2934  0.4938  0.9440
 7982TIP3   OH245436   4.537   5.601  12.168  0.4207 -0.1515  0.5827
 7982TIP3    H145437   4.563   5.511  12.188 -1.0012 -0.8909 -0.6758
 7982TIP3    H245438   4.602   5.632  12.105  0.7427 -0.4071  0.7905
 7983TIP3   OH245439   3.200   2.474   1.620 -0.6522  1.1279 -0.6411
 7983TIP3    H145440   3.273   2.522   1.581  0.5211 -0.7422 -0.8787
 7983TIP3    H245441   3.205   2.495   1.713  2.1084 -1.1709 -0.1286
 7984TIP3   OH245442   3.867   2.495   4.406 -0.0762  0.9147  0.3031
 7984TIP3    H145443   3.897   2.529   4.321  0.0946  2.3321  0.9018
 7984TIP3    H245444   3.912   2.549   4.471 -1.3677  0.8538  1.2783
 7985TIP3   OH245445   0.351   1.105   3.092 -0.7068 -0.4379  0.1128
 7985TIP3    H145446   0.338   1.052   3.170  0.5626 -1.3858 -0.2725
 7985TIP3    H245447   0.336   1.195   3.120 -0.3164 -0.7703  1.4287
 7986TIP3   OH245448   2.368   2.433  14.819  0.2750 -0.2825  0.1032
 7986TIP3    H145449   2.370   2.475  14.905  0.2073  0.2184 -0.1396
 7986TIP3    H245450   2.450   2.383  14.815 -0.1587 -1.0844  0.8363
 7987TIP3   OH245451   3.199   1.104  15.495  0.7898 -0.4716  0.2998
 7987TIP3    H145452   3.232   1.030  15.546  0.4972 -0.6825  0.1854
 7987TIP3    H245453   3.105   1.107  15.516 -0.4010 -3.3028 -3.4776
 7988TIP3   OH245454   0.061   1.099   2.876  0.1855  0.5375  0.0208
 7988TIP3    H145455   0.027   1.030   2.933 -0.0219  1.3262  0.8749
 7988TIP3    H245456   0.156   1.085   2.876  0.3033  1.2144  1.4991
 7989TIP3   OH245457   5.511   4.129  11.177 -0.1450 -0.3561 -0.1437
 7989TIP3    H145458   5.605   4.119  11.194 -0.5373 -0.6222  2.1677
 7989TIP3    H245459   5.498   4.224  11.167  0.2909 -0.2576  0.1955
 7990TIP3   OH245460   3.654   5.265  10.466 -0.1010 -0.0577 -0.1609
 7990TIP3    H145461   3.645   5.337  10.403 -1.6250 -0.2790 -0.2343
 7990TIP3    H245462   3.720   5.208  10.427  0.2324  0.6744 -0.7066
 7991TIP3   OH245463   4.818   0.189   3.807 -0.2683  0.4501  0.5532
 7991TIP3    H145464   4.780   0.269   3.842 -0.7624 -0.4774  2.2193
 7991TIP3    H245465   4.910   0.211   3.792 -0.7211  1.7565 -0.4860
 7992TIP3   OH245466   5.484   6.825   4.258  0.4760 -0.1732 -0.6165
 7992TIP3    H145467   5.427   6.763   4.304 -0.4523 -1.4656 -3.3085
 7992TIP3    H245468   5.562   6.775   4.236  1.6140  0.8826  0.8021
 7993TIP3   OH245469   2.958   1.773   1.171 -0.0629 -0.3866 -0.6578
 7993TIP3    H145470   2.903   1.788   1.247  2.2781  0.4512  0.9770
 7993TIP3    H245471   2.940   1.847   1.113 -3.7883 -2.3110 -2.3403
 7994TIP3   OH245472   5.410   6.692  11.454 -0.2172 -0.0172 -0.3072
 7994TIP3    H145473   5.464   6.747  11.512 -1.7317 -1.3672  2.6271
 7994TIP3    H245474   5.428   6.726  11.366  2.7519  1.7893  0.8043
 7995TIP3   OH245475   6.343   2.660   2.913 -0.1350 -0.3508  0.0362
 7995TIP3    H145476   6.396   2.580   2.917  1.3528  0.5015 -1.1320
 7995TIP3    H245477   6.269   2.637   2.857 -0.1930 -1.1424  0.4217
 7996TIP3   OH245478   4.722   2.519   0.464 -0.3321  0.2927  0.4381
 7996TIP3    H145479   4.722   2.547   0.555 -0.1270 -1.2742  0.9469
 7996TIP3    H245480   4.808   2.481   0.450  0.1040  1.6522 -0.8049
 7997TIP3   OH245481   5.375   5.836   4.215  0.2221  0.1202 -0.6753
 7997TIP3    H145482   5.433   5.838   4.291  1.1973  1.8980 -1.3998
 7997TIP3    H245483   5.414   5.897   4.154 -0.8371 -0.8648 -2.4164
 7998TIP3   OH245484   3.181   1.170   4.798  0.0091  0.3219 -1.1192
 7998TIP3    H145485   3.260   1.149   4.848  0.0808  1.0139 -0.9315
 7998TIP3    H245486   3.143   1.085   4.777  0.8506 -0.0190 -1.2943
 7999TIP3   OH245487   0.444   0.714   1.223 -0.2864 -0.2658 -0.1972
 7999TIP3    H145488   0.425   0.694   1.131  0.2202 -0.0660 -0.3503
 7999TIP3    H245489   0.359   0.713   1.266 -0.9122  2.2128 -1.1635
 8000TIP3   OH245490   4.641   5.269  15.480  0.2015  0.3082  0.2565
 8000TIP3    H145491   4.584   5.282  15.556  0.5908  0.9319  0.4553
 8000TIP3    H245492   4.612   5.335  15.417  1.4830  1.5137  0.8450
 8001TIP3   OH245493   4.698   2.547  14.249  0.1546  0.4603  0.4874
 8001TIP3    H145494   4.710   2.474  14.309 -0.9211 -0.1064  0.0450
 8001TIP3    H245495   4.603   2.554  14.239  0.3002  0.6903 -0.9627
 8002TIP3   OH245496   0.159   0.592   5.220  0.0155  0.0494 -0.2908
 8002TIP3    H145497   0.067   0.612   5.237 -0.0727  0.0379 -0.7359
 8002TIP3    H245498   0.208   0.661   5.266 -0.2822  1.4697 -1.9778
 8003TIP3   OH245499   1.247   5.558  12.946  0.1663 -0.2911 -0.0206
 8003TIP3    H145500   1.242   5.523  12.857 -0.2383 -1.6204  0.5107
 8003TIP3    H245501   1.232   5.483  13.003  1.5466  0.3058  1.2133
 8004TIP3   OH245502   2.174   0.547   5.577  0.0214  0.1128 -0.0969
 8004TIP3    H145503   2.153   0.470   5.630  1.9816  0.7375  1.7241
 8004TIP3    H245504   2.197   0.512   5.491  2.3068 -1.5440  1.1038
 8005TIP3   OH245505   6.369   2.457   3.373  0.1483 -0.3438 -0.2839
 8005TIP3    H145506   6.405   2.378   3.333  0.7031 -0.2504  0.0163
 8005TIP3    H245507   6.278   2.435   3.392  0.4653 -1.1275  0.3604
 8006TIP3   OH245508   2.076   1.291   3.742 -0.3716 -0.4278 -0.0557
 8006TIP3    H145509   2.094   1.374   3.785 -0.5860  0.3607 -1.4172
 8006TIP3    H245510   2.150   1.277   3.683 -1.1061 -0.3670 -1.0254
 8007TIP3   OH245511   5.361   0.354   2.627 -0.8304 -0.2637  0.4609
 8007TIP3    H145512   5.438   0.410   2.623 -1.3288  0.3851 -1.2055
 8007TIP3    H245513   5.393   0.270   2.658  0.1760  0.5515  1.7168
 8008TIP3   OH245514   3.420   5.750   2.520  0.2457 -0.2377  0.0728
 8008TIP3    H145515   3.447   5.747   2.429 -1.0538  0.4400 -0.3622
 8008TIP3    H245516   3.409   5.843   2.539 -2.2776 -0.4585  0.0192
 8009TIP3   OH245517   6.073   6.295  15.562  0.4498 -0.5097 -0.4233
 8009TIP3    H145518   6.060   6.208  15.599  0.8880 -0.7381 -0.8095
 8009TIP3    H245519   6.147   6.332  15.610 -0.2049 -0.0570  0.2548
 8010TIP3   OH245520   0.660   6.805   1.376 -0.0761 -0.1423 -0.2073
 8010TIP3    H145521   0.745   6.848   1.385 -1.1185  1.7773  1.3772
 8010TIP3    H245522   0.646   6.798   1.282  0.3817  2.6997 -0.5844
 8011TIP3   OH245523   2.254   3.220  16.918  0.0787  0.5104 -0.3951
 8011TIP3    H145524   2.295   3.135  16.931 -0.6981  0.0510 -0.8448
 8011TIP3    H245525   2.257   3.262  17.004  1.6448  0.5814 -0.4693
 8012TIP3   OH245526   4.718   3.427  13.294  0.2808  0.0833  0.4670
 8012TIP3    H145527   4.661   3.450  13.220 -0.7814 -0.0688  1.2304
 8012TIP3    H245528   4.708   3.333  13.304  0.4721  0.0951  0.7720
 8013TIP3   OH245529   3.767   1.061  10.573 -0.4429 -1.0366 -0.2846
 8013TIP3    H145530   3.688   1.018  10.608 -1.0440  0.6008  0.4446
 8013TIP3    H245531   3.735   1.110  10.498  0.4639 -2.7759 -1.8726
 8014TIP3   OH245532   1.355   0.501   3.580  0.6214  0.1466 -0.4071
 8014TIP3    H145533   1.288   0.489   3.513  1.2405  0.3317 -1.0728
 8014TIP3    H245534   1.315   0.468   3.660 -0.7027  1.3137 -0.5355
 8015TIP3   OH245535   5.699   5.636  15.327 -0.1303 -0.1711 -0.5790
 8015TIP3    H145536   5.698   5.715  15.382  1.6210 -0.1547 -0.5056
 8015TIP3    H245537   5.618   5.641  15.276 -0.2929  1.4211 -0.2212
 8016TIP3   OH245538   1.296   0.196  11.376 -0.1052  0.5478 -0.0105
 8016TIP3    H145539   1.245   0.186  11.296 -1.1709 -0.4840  0.7637
 8016TIP3    H245540   1.321   0.288  11.377 -1.7956  1.0434 -0.5288
 8017TIP3   OH245541   5.461   1.906  12.425  0.1443  0.1302 -0.3479
 8017TIP3    H145542   5.495   1.883  12.512 -0.6889 -1.7650 -0.4737
 8017TIP3    H245543   5.520   1.863  12.364  0.2958  0.8503 -0.7191
 8018TIP3   OH245544   2.727   3.516   1.349  0.1541 -0.0111  0.0673
 8018TIP3    H145545   2.720   3.463   1.269  1.0829  0.3121 -0.2357
 8018TIP3    H245546   2.689   3.600   1.326  0.5992  0.1453 -0.0887
 8019TIP3   OH245547   4.641   2.972   5.385  0.1601  0.1795 -0.2115
 8019TIP3    H145548   4.679   2.917   5.317 -1.4757 -0.7569 -0.4274
 8019TIP3    H245549   4.697   2.960   5.461 -0.0224 -1.6079 -0.3327
 8020TIP3   OH245550   2.165   3.163  15.351 -0.1210  0.1579 -0.3858
 8020TIP3    H145551   2.115   3.104  15.293  0.9992 -0.5722 -0.6318
 8020TIP3    H245552   2.135   3.141  15.439  0.6564 -1.1941 -0.4246
 8021TIP3   OH245553   2.394   0.621   2.792 -0.3917 -0.4657 -0.3493
 8021TIP3    H145554   2.338   0.545   2.772 -1.4429  0.3891 -0.7227
 8021TIP3    H245555   2.386   0.632   2.886 -0.0778 -0.9320 -0.2631
 8022TIP3   OH245556   4.283   3.682   4.629  0.0633  0.8796  0.7468
 8022TIP3    H145557   4.203   3.735   4.626  1.5547  3.2607  0.2363
 8022TIP3    H245558   4.324   3.706   4.712  0.5297  0.1228  0.7410
 8023TIP3   OH245559   3.805   6.654   2.264  0.3055  0.5024 -0.4621
 8023TIP3    H145560   3.811   6.608   2.348 -1.9396  2.8765  1.1702
 8023TIP3    H245561   3.734   6.610   2.218  0.0999  0.5269 -0.1745
 8024TIP3   OH245562   0.657   4.157   3.785 -0.2926 -0.5166 -0.7584
 8024TIP3    H145563   0.599   4.080   3.782  0.1793 -0.8631 -0.9428
 8024TIP3    H245564   0.602   4.226   3.822 -0.5304 -1.1132  0.0239
 8025TIP3   OH245565   0.790   6.298  14.934  0.6920  0.2718  0.4692
 8025TIP3    H145566   0.843   6.262  15.004  0.1153 -0.1842  0.6826
 8025TIP3    H245567   0.731   6.360  14.977  0.7693  0.4663  0.2969
 8026TIP3   OH245568   3.617   1.788   3.773  0.0002 -0.1118  0.5098
 8026TIP3    H145569   3.614   1.759   3.865 -0.5688  1.1166  0.8989
 8026TIP3    H245570   3.563   1.724   3.727  2.1350 -2.1063  0.5882
 8027TIP3   OH245571   5.688   1.023  14.975  0.6956 -0.2142 -0.3698
 8027TIP3    H145572   5.763   1.030  14.917 -0.8967 -0.5946 -2.6247
 8027TIP3    H245573   5.657   0.933  14.963 -0.4554  0.1096  0.0254
 8028TIP3   OH245574   4.405   1.330   4.067 -0.0189 -0.7187 -0.3259
 8028TIP3    H145575   4.418   1.367   4.155 -0.9782 -0.9381 -0.0803
 8028TIP3    H245576   4.310   1.317   4.061  0.2162 -2.4607 -0.6817
 8029TIP3   OH245577   3.351   3.560  10.452 -0.7601 -0.0550 -0.0539
 8029TIP3    H145578   3.385   3.510  10.526 -2.8745 -0.4019  0.7544
 8029TIP3    H245579   3.424   3.615  10.424  0.8845 -1.8067  0.5931
 8030TIP3   OH245580   4.208   6.771   1.920 -0.5564 -0.5584  0.7001
 8030TIP3    H145581   4.190   6.859   1.952 -0.4289 -0.5042  0.6241
 8030TIP3    H245582   4.292   6.748   1.959  1.1532  0.6891 -1.9201
 8031TIP3   OH245583   2.271   3.594  11.666  0.2195 -0.1490  0.2636
 8031TIP3    H145584   2.239   3.615  11.578 -0.7273 -0.2789  0.5617
 8031TIP3    H245585   2.350   3.647  11.676 -0.4744  1.0082 -0.1258
 8032TIP3   OH245586   0.011   5.745   0.387 -0.2521  0.3479 -0.1676
 8032TIP3    H145587   0.094   5.727   0.430 -0.5763 -2.0452 -0.3983
 8032TIP3    H245588  -0.041   5.666   0.402 -2.6985  1.9674  0.4150
 8033TIP3   OH245589   2.036   3.204  10.105  0.1311  0.0824 -0.2448
 8033TIP3    H145590   2.106   3.196  10.169  0.1194  2.0972  0.0851
 8033TIP3    H245591   2.009   3.114  10.087 -0.5573 -0.5798  3.3394
 8034TIP3   OH245592   0.316   1.318   2.196  0.1923 -0.0647  0.0319
 8034TIP3    H145593   0.333   1.360   2.111  0.3334  2.1164  1.0712
 8034TIP3    H245594   0.390   1.259   2.209  0.3273 -0.1998 -1.2218
 8035TIP3   OH245595   2.336   6.284  11.659  0.3918 -0.4298 -0.2855
 8035TIP3    H145596   2.241   6.289  11.667  0.4826  0.7181  0.4384
 8035TIP3    H245597   2.368   6.279  11.749  1.0103 -1.2075 -0.5348
 8036TIP3   OH245598   0.871   5.770  11.104 -0.0577 -0.2078 -0.0617
 8036TIP3    H145599   0.842   5.709  11.173 -1.6242  1.1252  0.5291
 8036TIP3    H245600   0.844   5.728  11.022 -1.4315 -0.1896  0.3519
 8037TIP3   OH245601   3.458   6.602   4.981 -0.2482  0.2197 -0.2604
 8037TIP3    H145602   3.516   6.671   5.013 -1.0368  0.6952  0.1862
 8037TIP3    H245603   3.489   6.523   5.025 -0.3388  0.5879  0.4930
 8038TIP3   OH245604   6.099   0.196  10.939 -0.4265  0.2587  0.6626
 8038TIP3    H145605   6.057   0.123  10.895  1.3435 -0.3617 -0.0737
 8038TIP3    H245606   6.113   0.166  11.029 -2.3607  0.8422  1.2134
 8039TIP3   OH245607   4.129   3.874   3.026 -0.5474 -0.6159 -0.6245
 8039TIP3    H145608   4.084   3.914   2.952 -1.5930  1.9313  1.2545
 8039TIP3    H245609   4.061   3.861   3.092  0.8736  0.5839  1.1906
 8040TIP3   OH245610   0.912   2.818  15.548 -0.3857  0.5817  0.3136
 8040TIP3    H145611   0.901   2.816  15.452 -0.0208 -0.7124  0.2915
 8040TIP3    H245612   0.842   2.877  15.578 -1.6469 -0.3918 -0.6016
 8041TIP3   OH245613   0.282   5.208   4.327 -0.2909  0.3716 -0.6951
 8041TIP3    H145614   0.247   5.149   4.394  0.8889  0.6516  0.2013
 8041TIP3    H245615   0.224   5.284   4.330  1.0078  1.3473  1.5994
 8042TIP3   OH245616   3.670   6.515   4.337  0.0989 -0.5593  0.0502
 8042TIP3    H145617   3.609   6.579   4.372 -0.4994 -0.3699 -1.2904
 8042TIP3    H245618   3.708   6.474   4.414 -1.7383 -0.7043  0.9358
 8043TIP3   OH245619   0.472   0.556  16.583  0.3551  0.3758 -0.4744
 8043TIP3    H145620   0.556   0.593  16.611  1.0232 -0.9273 -0.6700
 8043TIP3    H245621   0.417   0.633  16.564  0.3170  1.3355  2.9262
 8044TIP3   OH245622   4.127   5.308   1.310  0.2991 -0.3013 -0.4886
 8044TIP3    H145623   4.071   5.327   1.235  0.3120  1.3816 -0.1210
 8044TIP3    H245624   4.077   5.246   1.362 -1.5721  1.6049  0.1310
 8045TIP3   OH245625   4.033   6.207  13.832  0.3696  0.3052 -0.1592
 8045TIP3    H145626   4.054   6.148  13.904 -0.9941  0.2177  0.1920
 8045TIP3    H245627   4.063   6.293  13.862  1.3107  0.0057 -0.1980
 8046TIP3   OH245628   5.012   0.599   2.315 -0.0627  0.5461 -0.0225
 8046TIP3    H145629   4.966   0.518   2.294 -1.3949  1.3561 -0.4076
 8046TIP3    H245630   5.105   0.577   2.308 -0.3873 -1.0471  0.3550
 8047TIP3   OH245631   2.833   6.156   0.364 -0.0851  0.1715  0.7436
 8047TIP3    H145632   2.844   6.201   0.280 -0.3923  0.3772  0.8114
 8047TIP3    H245633   2.906   6.094   0.368 -0.0596  0.1719  0.3316
 8048TIP3   OH245634   0.038   4.409   5.317 -0.3599  0.3771 -0.2130
 8048TIP3    H145635   0.079   4.405   5.230  2.9808 -1.5088  1.2568
 8048TIP3    H245636   0.071   4.491   5.355 -2.1770  1.4289 -0.7891
 8049TIP3   OH245637   1.272   5.370  14.038  0.3838  0.5553  0.0144
 8049TIP3    H145638   1.329   5.395  14.110 -0.6764  0.3001  0.9708
 8049TIP3    H245639   1.302   5.284  14.011 -1.1303 -0.7587  2.2547
 8050TIP3   OH245640   1.570   2.437  16.225  0.5104  0.1422  0.1322
 8050TIP3    H145641   1.619   2.519  16.230 -1.4734  1.5007 -1.0571
 8050TIP3    H245642   1.522   2.443  16.142 -0.3092 -1.8743  0.3993
 8051TIP3   OH245643   0.834   1.794  11.188  0.4187 -0.0461  0.1260
 8051TIP3    H145644   0.802   1.817  11.275  0.5531 -2.7253  0.9728
 8051TIP3    H245645   0.774   1.726  11.157 -0.0814  1.3396 -2.2700
 8052TIP3   OH245646   3.273   4.928   3.521 -0.5830  0.2065 -0.1457
 8052TIP3    H145647   3.367   4.933   3.536 -0.5377 -1.5911  0.4235
 8052TIP3    H245648   3.235   4.927   3.609 -0.8539 -2.3678 -0.1870
 8053TIP3   OH245649   3.034   5.186  15.982 -0.0108  0.2609  0.0991
 8053TIP3    H145650   2.947   5.148  15.983 -0.0695  0.3549 -0.6553
 8053TIP3    H245651   3.020   5.279  16.001  0.0402  0.0903  1.0229
 8054TIP3   OH245652   2.820   5.107   0.258 -0.3685 -0.2533 -0.1327
 8054TIP3    H145653   2.863   5.032   0.217 -2.4321 -0.4889 -2.0475
 8054TIP3    H245654   2.776   5.071   0.334 -1.4041 -1.0279 -1.0806
 8055TIP3   OH245655   0.858   4.792   0.537 -0.3476  1.1822  0.5218
 8055TIP3    H145656   0.891   4.880   0.521 -0.0464  0.9757 -0.0172
 8055TIP3    H245657   0.864   4.780   0.632 -0.0494  1.6067  0.5557
 8056TIP3   OH245658   3.235   5.554  13.537 -0.7044  0.5632 -0.2538
 8056TIP3    H145659   3.314   5.578  13.487  0.3664 -1.9603  0.1009
 8056TIP3    H245660   3.224   5.625  13.600  1.4829  0.8341 -0.1103
 8057TIP3   OH245661   6.271   6.330  11.686 -0.0538  0.6618  0.4129
 8057TIP3    H145662   6.283   6.422  11.663  1.4119  0.5490  0.5947
 8057TIP3    H245663   6.357   6.303  11.719 -0.6215 -0.6219  0.8925
 8058TIP3   OH245664   3.328   1.147  14.994 -0.0993 -0.1700 -0.0764
 8058TIP3    H145665   3.334   1.140  15.089  0.6436  0.9785 -0.0199
 8058TIP3    H245666   3.332   1.056  14.963  1.6994 -0.4622  0.8841
 8059TIP3   OH245667   3.688   4.798  17.142  0.2070  0.5427 -0.0101
 8059TIP3    H145668   3.682   4.708  17.174 -0.3557  0.7451  0.4659
 8059TIP3    H245669   3.770   4.800  17.093 -0.6703 -0.7535 -1.6786
 8060TIP3   OH245670   2.337   1.453   4.152 -0.3388  0.3712  0.0558
 8060TIP3    H145671   2.388   1.447   4.232  0.0419 -0.8024 -0.2668
 8060TIP3    H245672   2.350   1.543   4.122  2.7197 -0.2535 -0.7711
 8061TIP3   OH245673   3.382   0.617  14.029 -0.3823 -0.4178 -0.4561
 8061TIP3    H145674   3.440   0.647  13.959 -0.3505 -0.7314 -0.5643
 8061TIP3    H245675   3.440   0.601  14.103 -0.2941 -1.0102 -0.6536
 8062TIP3   OH245676   0.423   5.424   0.506 -0.7712 -0.0330  0.4354
 8062TIP3    H145677   0.485   5.352   0.507 -0.4299  0.1755 -1.5501
 8062TIP3    H245678   0.427   5.460   0.594  2.0276  0.0372  0.3803
 8063TIP3   OH245679   3.241   4.852   3.256 -0.2106 -0.5038 -0.4287
 8063TIP3    H145680   3.241   4.864   3.351 -0.4583 -2.3704 -0.1613
 8063TIP3    H245681   3.229   4.941   3.221 -0.1878  0.2103  1.2677
 8064TIP3   OH245682   1.508   1.150  12.794 -0.4697 -0.1020  0.1562
 8064TIP3    H145683   1.473   1.207  12.726  0.0041  0.0848  0.0628
 8064TIP3    H245684   1.469   1.182  12.876  0.7968  1.2199  0.2854
 8065TIP3   OH245685   6.691   1.689  12.017  0.1464  0.2076  0.0884
 8065TIP3    H145686   6.693   1.603  11.975 -0.7538 -0.0311  0.5104
 8065TIP3    H245687   6.634   1.741  11.961  0.3896  0.4209  0.0379
 8066TIP3   OH245688   5.108   3.527   3.303 -0.3713 -0.2563  0.1723
 8066TIP3    H145689   5.046   3.509   3.373 -0.0317 -0.3549  0.4508
 8066TIP3    H245690   5.057   3.574   3.236 -0.7174 -0.2532  0.4398
 8067TIP3   OH245691   3.871   2.623   0.711 -0.1176  0.1512 -0.9419
 8067TIP3    H145692   3.896   2.637   0.620 -0.0995 -1.2019 -1.1625
 8067TIP3    H245693   3.775   2.625   0.711 -0.1654  3.4210 -0.4082
 8068TIP3   OH245694   1.688   3.529   3.390 -0.2603  0.6010 -0.2852
 8068TIP3    H145695   1.700   3.437   3.367 -0.0252  0.1671  1.3872
 8068TIP3    H245696   1.725   3.535   3.478 -1.7143  1.9494  0.2609
 8069TIP3   OH245697   2.879   5.922  16.591  0.0536 -0.1688  0.5948
 8069TIP3    H145698   2.849   5.844  16.637  0.2579 -0.5333  0.1277
 8069TIP3    H245699   2.800   5.961  16.554 -0.2274  0.5910  1.9173
 8070TIP3   OH245700   2.942   3.234  12.453  0.3887 -0.1533 -0.3497
 8070TIP3    H145701   3.031   3.265  12.439  0.7683 -1.2930 -0.6137
 8070TIP3    H245702   2.930   3.237  12.548  1.2995 -1.4690 -0.1614
 8071TIP3   OH245703   1.676   6.759  16.578  0.0007 -0.0923 -0.0521
 8071TIP3    H145704   1.708   6.754  16.488  0.2691 -2.6167  0.1210
 8071TIP3    H245705   1.601   6.819  16.573 -0.9092 -1.2846 -2.2711
 8072TIP3   OH245706   5.039   2.124   2.140  0.2020 -0.1681  0.2967
 8072TIP3    H145707   5.100   2.171   2.084 -0.1444 -0.6425 -0.4826
 8072TIP3    H245708   5.093   2.087   2.209  0.5867  0.7022  0.4777
 8073TIP3   OH245709   6.198   5.659  11.630  0.6311 -0.7236  0.2268
 8073TIP3    H145710   6.285   5.621  11.616  0.5562 -0.9439  0.3475
 8073TIP3    H245711   6.168   5.681  11.542 -0.0173 -2.5044 -0.0443
 8074TIP3   OH245712   0.173   0.146   1.693  0.2272  0.3544 -0.1856
 8074TIP3    H145713   0.223   0.213   1.740 -0.5405  2.0616 -1.6352
 8074TIP3    H245714   0.237   0.106   1.634  0.7311 -0.3515  0.8123
 8075TIP3   OH245715   4.224   1.137   2.202  0.2806  0.2026 -0.2088
 8075TIP3    H145716   4.152   1.171   2.256 -0.8820 -0.4195 -1.2882
 8075TIP3    H245717   4.192   1.144   2.112  1.7587  0.2826 -0.7562
 8076TIP3   OH245718   6.199   1.862  15.531 -0.6862 -0.4095 -0.0624
 8076TIP3    H145719   6.118   1.909  15.549 -1.2508 -1.0416 -0.8496
 8076TIP3    H245720   6.213   1.872  15.437  0.2814 -0.1182  0.0993
 8077TIP3   OH245721   6.641   3.853  13.666  0.1444  0.4101  0.5545
 8077TIP3    H145722   6.630   3.759  13.650 -0.4974  0.2542  1.7714
 8077TIP3    H245723   6.565   3.893  13.624  1.1681  0.5751 -1.2513
 8078TIP3   OH245724   2.760   1.420   1.197 -0.3391 -0.0818  0.3069
 8078TIP3    H145725   2.714   1.404   1.115 -0.3123  0.3282  0.2114
 8078TIP3    H245726   2.853   1.416   1.174 -0.3319  0.2636  0.2700
 8079TIP3   OH245727   5.112   0.073   4.181  0.4224  0.2728 -0.3259
 8079TIP3    H145728   5.116   0.167   4.163  1.1727  0.7940  2.1861
 8079TIP3    H245729   5.192   0.037   4.142  0.3671  0.7573 -0.8860
 8080TIP3   OH245730   6.492   5.649  16.870 -0.4049  0.4748 -0.1003
 8080TIP3    H145731   6.413   5.601  16.847 -1.2591  1.9179 -0.3583
 8080TIP3    H245732   6.479   5.676  16.961 -0.5250  1.2692 -0.3435
 8081TIP3   OH245733   0.968   6.283   2.272  0.2105  0.4576  0.0575
 8081TIP3    H145734   1.035   6.345   2.243  0.0046  1.0176  0.7576
 8081TIP3    H245735   1.013   6.226   2.334  1.1391 -1.9199 -2.6173
 8082TIP3   OH245736   4.046   2.762  13.557  0.6597 -0.5316 -0.5074
 8082TIP3    H145737   4.043   2.677  13.514  0.8277  0.1373 -1.9076
 8082TIP3    H245738   3.954   2.783  13.574  0.6861 -1.5439  1.0378
 8083TIP3   OH245739   2.146   4.487  11.671 -0.2593 -0.3907 -0.4821
 8083TIP3    H145740   2.225   4.504  11.619  0.1793 -2.2793 -0.4839
 8083TIP3    H245741   2.123   4.573  11.707  2.7091 -0.0168  0.8041
 8084TIP3   OH245742   6.253   3.431  14.665 -0.0123 -0.0021 -0.1701
 8084TIP3    H145743   6.313   3.386  14.725  0.1791  1.8327  1.1276
 8084TIP3    H245744   6.171   3.383  14.671 -0.1279  0.3675  1.9793
 8085TIP3   OH245745   3.991   6.523  13.573 -0.0303 -0.4447  0.5948
 8085TIP3    H145746   3.966   6.546  13.662 -1.7349 -1.1811  0.3535
 8085TIP3    H245747   3.948   6.588  13.518 -0.8184 -1.2502  0.2148
 8086TIP3   OH245748   0.032   2.328   0.750 -0.0307 -0.4004  0.1995
 8086TIP3    H145749  -0.051   2.374   0.761 -0.9197 -2.4335  3.2424
 8086TIP3    H245750   0.010   2.247   0.706  0.5504 -0.4497 -0.0116
 8087TIP3   OH245751   2.062   2.037  15.312  0.2453 -0.0499 -0.5080
 8087TIP3    H145752   1.977   2.044  15.268 -0.6300  0.4827  1.1923
 8087TIP3    H245753   2.123   2.081  15.253 -0.6691 -0.3684 -1.7221
 8088TIP3   OH245754   2.526   5.994  14.792 -0.0272  0.1133  0.4717
 8088TIP3    H145755   2.443   5.947  14.796 -0.7457  1.0720 -1.7719
 8088TIP3    H245756   2.502   6.086  14.783  1.3118  0.5475  1.0803
 8089TIP3   OH245757   2.864   1.612  13.952 -0.4279  0.3559  0.7207
 8089TIP3    H145758   2.940   1.596  13.896 -1.4915 -1.0491 -0.4278
 8089TIP3    H245759   2.789   1.592  13.896 -1.6077  0.4050  2.2125
 8090TIP3   OH245760   6.128   4.833   6.270 -0.6676  0.1791  0.5369
 8090TIP3    H145761   6.203   4.821   6.328 -1.9015 -2.1027  1.8268
 8090TIP3    H245762   6.159   4.804   6.184  0.3469  0.7495  0.6964
 8091TIP3   OH245763   4.953   4.092  11.946  0.0596 -0.4865  0.2145
 8091TIP3    H145764   4.901   4.051  11.876 -1.0184  2.4906 -0.8690
 8091TIP3    H245765   4.894   4.092  12.022 -1.0620  1.5121 -0.5892
 8092TIP3   OH245766   3.543   2.896   5.954 -0.2190 -0.5262  0.0289
 8092TIP3    H145767   3.600   2.824   5.925 -1.2203 -1.2483 -0.2116
 8092TIP3    H245768   3.486   2.856   6.019 -1.9472 -0.4181 -1.3386
 8093TIP3   OH245769   0.422   1.283   4.134 -0.2662 -0.3149  0.4903
 8093TIP3    H145770   0.421   1.199   4.180  0.0080  0.0121  1.1064
 8093TIP3    H245771   0.435   1.348   4.203  0.1792  0.1868 -0.0525
 8094TIP3   OH245772   6.811   0.041   2.247  0.0804  0.2429 -0.0005
 8094TIP3    H145773   6.905   0.039   2.266  0.0228  1.9917  0.7258
 8094TIP3    H245774   6.805   0.026   2.153  1.1627  0.7607 -0.1741
 8095TIP3   OH245775   0.632   6.165  16.046 -0.8428 -0.5410 -0.2987
 8095TIP3    H145776   0.551   6.213  16.028 -0.2617  1.1581  1.2928
 8095TIP3    H245777   0.648   6.114  15.967 -3.5347 -1.0654 -0.6120
 8096TIP3   OH245778   2.588   4.429   3.523  0.4084 -0.0558  0.2636
 8096TIP3    H145779   2.521   4.496   3.511 -0.7541 -1.1846  0.3129
 8096TIP3    H245780   2.601   4.424   3.617 -0.5382 -0.8587  0.3700
 8097TIP3   OH245781   2.687   3.335  11.368 -0.0039  0.4729 -0.1924
 8097TIP3    H145782   2.684   3.424  11.402  3.2593  0.8609 -0.5553
 8097TIP3    H245783   2.763   3.295  11.411 -2.1167 -2.7021  1.0217
 8098TIP3   OH245784   5.600   1.655   4.901  0.1652  0.0015 -0.0994
 8098TIP3    H145785   5.606   1.712   4.977 -0.0042 -0.5653  0.3524
 8098TIP3    H245786   5.691   1.632   4.882  0.2109  0.1668 -0.0831
 8099TIP3   OH245787   3.159   4.776  16.021  0.2397  0.8471  0.0100
 8099TIP3    H145788   3.195   4.832  15.953  2.2687 -1.0237 -0.5819
 8099TIP3    H245789   3.066   4.799  16.025  0.4790  2.3956 -1.9871
 8100TIP3   OH245790   0.586   4.788   3.472  0.2227  0.7255 -1.0015
 8100TIP3    H145791   0.620   4.840   3.545 -0.2108 -0.1223 -0.1784
 8100TIP3    H245792   0.663   4.766   3.420  0.7765 -0.0769  0.1252
 8101TIP3   OH245793   2.860   1.058   0.161  0.3763 -0.2561 -0.9875
 8101TIP3    H145794   2.766   1.041   0.162  0.2324  0.4325 -1.6030
 8101TIP3    H245795   2.899   0.979   0.123  0.0793 -0.6767 -0.4176
 8102TIP3   OH245796   3.854   6.107  14.632 -0.0491 -0.4919 -0.5736
 8102TIP3    H145797   3.928   6.165  14.612 -0.6369  0.4151 -0.1817
 8102TIP3    H245798   3.848   6.049  14.556  1.7664 -1.3410 -0.1362
 8103TIP3   OH245799   4.654   4.651  13.184 -0.2367  0.3946 -0.3142
 8103TIP3    H145800   4.570   4.618  13.216  0.4629 -1.8371 -0.6563
 8103TIP3    H245801   4.718   4.615  13.245  0.5575  1.4386 -0.5116
 8104TIP3   OH245802   5.722   5.871   2.913 -0.4896 -0.1629 -0.2112
 8104TIP3    H145803   5.745   5.840   2.826  1.6131  1.1757 -0.1939
 8104TIP3    H245804   5.750   5.800   2.972  1.5191  0.4167 -0.3906
 8105TIP3   OH245805   3.071   2.440   5.752  0.1749  0.0934 -0.1325
 8105TIP3    H145806   3.072   2.398   5.666 -1.1660  0.1961 -0.2112
 8105TIP3    H245807   3.139   2.394   5.802 -1.1851 -2.1523 -0.2255
 8106TIP3   OH245808   2.588   1.840  11.305 -0.3969 -0.3498 -0.3090
 8106TIP3    H145809   2.518   1.775  11.309  0.3201 -1.1457 -0.2421
 8106TIP3    H245810   2.650   1.803  11.242  0.7525 -0.4841  0.8665
 8107TIP3   OH245811   5.700   6.376   3.409  0.3809 -0.2523  0.4370
 8107TIP3    H145812   5.633   6.439   3.436  0.4761  0.4463 -0.8318
 8107TIP3    H245813   5.731   6.410   3.324  2.7133 -0.2473  1.2078
 8108TIP3   OH245814   1.637   4.741   1.258 -0.1467 -0.3533  0.3218
 8108TIP3    H145815   1.663   4.830   1.281 -4.1222  1.0706  0.1553
 8108TIP3    H245816   1.577   4.715   1.327  0.6172 -2.8409  0.1585
 8109TIP3   OH245817   6.830   5.773   2.424  1.1316 -0.4554  0.7615
 8109TIP3    H145818   6.767   5.701   2.420  0.4731  0.1110  0.7743
 8109TIP3    H245819   6.826   5.802   2.515 -1.4228  2.0232  0.0108
 8110TIP3   OH245820   3.045   4.021   2.398 -0.1268  0.2419 -0.4978
 8110TIP3    H145821   3.040   4.112   2.429  0.2681  0.7585 -1.8868
 8110TIP3    H245822   2.958   3.985   2.416 -0.1362  0.7152  0.5425
 8111TIP3   OH245823   6.348   1.399  15.232  0.6366  0.2231 -0.1812
 8111TIP3    H145824   6.321   1.412  15.323  0.0871 -0.9136 -0.1673
 8111TIP3    H245825   6.407   1.472  15.214  0.4316  0.6907  0.9556
 8112TIP3   OH245826   4.149   2.353   5.215 -0.2254 -0.6443  0.7245
 8112TIP3    H145827   4.190   2.422   5.162  0.5896 -1.5971  0.0686
 8112TIP3    H245828   4.145   2.390   5.303 -1.7795  1.0514  0.0153
 8113TIP3   OH245829   5.782   1.031  13.533 -0.5225 -0.1205  0.1700
 8113TIP3    H145830   5.783   1.062  13.442 -0.9134  1.4803  0.6738
 8113TIP3    H245831   5.867   1.059  13.569 -0.5239 -0.4099  0.4032
 8114TIP3   OH245832   4.870   0.012   6.918  0.0113 -0.2505 -0.2218
 8114TIP3    H145833   4.869   0.027   7.012  0.0016  0.2051 -0.2942
 8114TIP3    H245834   4.871   0.099   6.879  0.5191 -0.4394 -0.6424
 8115TIP3   OH245835   1.039   3.168  13.295 -0.4344  0.0163  0.5040
 8115TIP3    H145836   1.043   3.073  13.302 -0.8988 -0.0929 -0.5008
 8115TIP3    H245837   0.946   3.187  13.284 -0.2106  0.4568 -0.7759
 8116TIP3   OH245838   1.452   0.754  15.483 -0.1941 -0.2464  0.3503
 8116TIP3    H145839   1.459   0.754  15.578  2.9705  0.8941  0.2410
 8116TIP3    H245840   1.423   0.666  15.461  0.2008 -0.9249  2.3162
 8117TIP3   OH245841   1.147   3.321   5.760  0.4486 -0.1572 -0.3151
 8117TIP3    H145842   1.141   3.395   5.821 -0.9646  0.4416 -1.1418
 8117TIP3    H245843   1.119   3.245   5.812  1.3183 -0.0409  0.3617
 8118TIP3   OH245844   5.614   5.884  11.589 -0.0047 -0.1787  0.0032
 8118TIP3    H145845   5.695   5.932  11.570 -0.0713 -0.1943 -0.3352
 8118TIP3    H245846   5.625   5.853  11.679  0.7082 -0.8385 -0.2942
 8119TIP3   OH245847   6.672   1.753  13.642  0.2087  0.2376 -0.1470
 8119TIP3    H145848   6.593   1.789  13.682  0.7543 -0.2852  1.5097
 8119TIP3    H245849   6.723   1.720  13.716  1.5432 -0.3017 -1.2587
 8120TIP3   OH245850   5.711   1.540   0.378  0.5412  0.3182 -0.5119
 8120TIP3    H145851   5.779   1.526   0.312 -0.6598 -1.9165 -1.3562
 8120TIP3    H245852   5.759   1.554   0.459  2.1013 -2.9343 -0.7366
 8121TIP3   OH245853   3.042   4.127  11.119  0.1199  0.1955  0.2180
 8121TIP3    H145854   3.099   4.050  11.125  0.3490  0.0799 -2.4774
 8121TIP3    H245855   3.038   4.147  11.026 -0.5405  3.0259  0.7681
 8122TIP3   OH245856   0.113   0.036  11.521 -0.3710 -0.0501  0.1316
 8122TIP3    H145857   0.046   0.099  11.495 -0.1495 -0.7369 -2.3588
 8122TIP3    H245858   0.182   0.089  11.560 -1.1798  0.9543  0.2378
 8123TIP3   OH245859   5.967   3.090  12.033 -0.1162 -0.1952  0.4413
 8123TIP3    H145860   5.965   3.002  12.071 -1.6108 -0.5099 -0.3046
 8123TIP3    H245861   6.027   3.083  11.958 -0.3639 -0.6230  0.2829
 8124TIP3   OH245862   4.781   4.438   2.113  0.0555  0.3139 -0.2249
 8124TIP3    H145863   4.729   4.359   2.099  0.1350  0.3386 -0.6884
 8124TIP3    H245864   4.825   4.424   2.196 -2.2659  1.1622  1.2638
 8125TIP3   OH245865   1.769   5.844  10.983 -0.2575  0.0175 -0.5446
 8125TIP3    H145866   1.827   5.829  10.909  0.7946 -1.2869  0.4857
 8125TIP3    H245867   1.814   5.910  11.036  0.5593 -1.3256  0.4871
 8126TIP3   OH245868   6.629   3.417  11.672 -0.3736  0.1833 -0.5793
 8126TIP3    H145869   6.611   3.503  11.634 -1.7032 -0.0270 -0.4697
 8126TIP3    H245870   6.724   3.415  11.682 -0.0822  0.7040 -2.7868
 8127TIP3   OH245871   0.701   0.627   4.296 -0.4909 -0.4410  0.1523
 8127TIP3    H145872   0.773   0.688   4.309 -1.2467  0.5380 -0.1127
 8127TIP3    H245873   0.704   0.606   4.203 -2.3064  1.9587 -0.5487
 8128TIP3   OH245874   4.126   2.728  14.303  0.2253  0.0747  0.7628
 8128TIP3    H145875   4.113   2.749  14.396  0.4208 -0.8296  1.0003
 8128TIP3    H245876   4.041   2.744  14.263  0.4067  1.4811  0.8890
 8129TIP3   OH245877   0.137   3.261  16.939  0.4527 -0.5804  0.0271
 8129TIP3    H145878   0.154   3.193  16.875  0.0787 -1.5406  0.9189
 8129TIP3    H245879   0.087   3.218  17.008  0.2823  0.5728  0.6622
 8130TIP3   OH245880   3.061   4.718   5.569 -0.2703 -0.2387  0.4894
 8130TIP3    H145881   3.116   4.658   5.519 -0.6146 -0.2358  0.1007
 8130TIP3    H245882   2.978   4.672   5.579  0.3054 -0.9469  2.5160
 8131TIP3   OH245883   1.547   4.485  16.593  0.5437  0.1619  0.2315
 8131TIP3    H145884   1.558   4.488  16.688 -0.4962 -0.5981  0.3914
 8131TIP3    H245885   1.635   4.464  16.559  0.7077 -0.6051  1.0896
 8132TIP3   OH245886   6.540   0.507  16.581 -0.4180 -0.5094  0.3858
 8132TIP3    H145887   6.567   0.415  16.572 -2.1685 -1.0482  0.1466
 8132TIP3    H245888   6.463   0.503  16.638 -0.8809  0.7419 -0.1209
 8133TIP3   OH245889   5.884   0.005  14.895  0.2790  0.3315  0.3073
 8133TIP3    H145890   5.845   0.042  14.974  0.7464 -2.1620  1.8106
 8133TIP3    H245891   5.951  -0.056  14.927  0.4588 -0.8088 -2.0047
 8134TIP3   OH245892   2.115   4.367   0.719  0.3056  0.2706  0.0369
 8134TIP3    H145893   2.039   4.394   0.668  1.3293  1.1174 -1.1142
 8134TIP3    H245894   2.089   4.379   0.810 -2.3696 -3.3583 -0.0262
 8135TIP3   OH245895   3.279   3.154   6.103  0.0802  0.7134  0.0551
 8135TIP3    H145896   3.352   3.193   6.151  0.6345  1.6397 -1.4560
 8135TIP3    H245897   3.213   3.136   6.169  1.6640 -0.1471  1.4700
 8136TIP3   OH245898   4.974   2.728  14.688  0.5078 -0.0201  0.2258
 8136TIP3    H145899   4.950   2.778  14.766 -1.5840  0.5101 -0.6859
 8136TIP3    H245900   5.059   2.689  14.709  0.5827  1.1258  2.2668
 8137TIP3   OH245901   0.132   3.085   1.716 -0.5384 -0.0147  0.4969
 8137TIP3    H145902   0.207   3.133   1.752  0.1259 -1.1713  0.7363
 8137TIP3    H245903   0.134   3.104   1.623  1.4284 -1.7262  0.1128
 8138TIP3   OH245904   1.628   2.453  11.143 -0.3544 -0.5111 -0.4101
 8138TIP3    H145905   1.537   2.428  11.127 -0.0362 -1.7441 -0.4507
 8138TIP3    H245906   1.672   2.439  11.059 -0.1625  0.2571 -0.4409
 8139TIP3   OH245907   1.597   4.066  14.076  0.0836 -0.0387  0.2039
 8139TIP3    H145908   1.655   4.138  14.052  3.0339 -1.7813  1.5262
 8139TIP3    H245909   1.564   4.090  14.163 -0.0611  0.3135  0.0543
 8140TIP3   OH245910   2.155   1.839   0.221 -0.1273 -0.1972 -0.0338
 8140TIP3    H145911   2.208   1.835   0.142  1.3220  0.6401  0.8455
 8140TIP3    H245912   2.183   1.763   0.273 -0.7022 -0.4523 -0.0795
 8141TIP3   OH245913   6.670   4.581  12.656 -0.2806 -0.6963  0.0395
 8141TIP3    H145914   6.635   4.531  12.729 -0.4770 -0.3493  0.1885
 8141TIP3    H245915   6.598   4.639  12.631  0.6009  1.0031  1.2370
 8142TIP3   OH245916   3.427   4.697  12.242  0.3667 -0.1032  0.1948
 8142TIP3    H145917   3.454   4.789  12.236 -0.8642  0.5328  3.0263
 8142TIP3    H245918   3.484   4.660  12.310  1.5701 -1.8124 -1.6170
 8143TIP3   OH245919   2.652   5.251   4.203 -0.5534 -0.0441 -0.1730
 8143TIP3    H145920   2.647   5.330   4.258  0.8310 -0.6312  0.8629
 8143TIP3    H245921   2.584   5.264   4.137 -2.0416  0.8597  1.4478
 8144TIP3   OH245922   4.350   4.497  15.846  0.4483 -0.2244 -0.2436
 8144TIP3    H145923   4.288   4.537  15.908 -0.2022 -0.0729 -0.9692
 8144TIP3    H245924   4.302   4.424  15.808  1.3572 -1.2275  0.4854
 8145TIP3   OH245925   3.465   5.226  17.013 -0.0680 -0.5402  0.5358
 8145TIP3    H145926   3.542   5.269  17.050 -1.1721  1.6551  0.4437
 8145TIP3    H245927   3.489   5.209  16.921 -0.6358  2.8446 -0.3455
 8146TIP3   OH245928   2.096   0.316  11.472  0.1164  0.3696  0.1508
 8146TIP3    H145929   2.145   0.343  11.549 -1.0033  0.4608  0.8619
 8146TIP3    H245930   2.125   0.227  11.455  1.5285  0.8998 -0.2967
 8147TIP3   OH245931   0.875   0.281   4.134  0.1968  0.1920 -0.6320
 8147TIP3    H145932   0.862   0.325   4.217  0.4687 -0.4798 -0.2212
 8147TIP3    H245933   0.897   0.191   4.158  1.6486  0.3108 -1.3745
 8148TIP3   OH245934   0.193   1.099  11.564 -0.0214  0.1309  0.3101
 8148TIP3    H145935   0.279   1.098  11.607 -0.1988  2.4180  0.8250
 8148TIP3    H245936   0.178   1.008  11.539  2.8690 -0.2480 -0.4180
 8149TIP3   OH245937   1.178   4.090   1.298 -0.1411 -0.4213 -0.2420
 8149TIP3    H145938   1.089   4.057   1.283 -0.1399 -0.6224  0.1969
 8149TIP3    H245939   1.207   4.048   1.379  0.6424 -0.9376 -0.7727
 8150TIP3   OH245940   3.089   5.610   0.309 -0.4263 -0.0072 -0.1493
 8150TIP3    H145941   3.166   5.664   0.287  0.9345 -1.5761  0.5433
 8150TIP3    H245942   3.026   5.631   0.240 -0.1411  2.7370  0.3075
 8151TIP3   OH245943   6.198   3.962   5.410 -0.3251 -0.3283  0.0617
 8151TIP3    H145944   6.279   4.013   5.404  0.1265 -1.0585 -0.2415
 8151TIP3    H245945   6.193   3.916   5.326 -2.1259  1.2473 -0.7534
 8152TIP3   OH245946   4.608   0.007   6.850 -0.2351 -0.6531 -0.2464
 8152TIP3    H145947   4.622   0.100   6.832 -2.0727 -0.5513 -1.3812
 8152TIP3    H245948   4.697  -0.030   6.853  0.4802  0.8070 -1.6179
 8153TIP3   OH245949   1.852   0.242  16.459  0.6335  0.6864  0.2183
 8153TIP3    H145950   1.884   0.244  16.549 -0.7029 -1.4000  0.8249
 8153TIP3    H245951   1.757   0.253  16.468  0.4007 -0.2993 -0.8654
 8154TIP3   OH245952   0.024   2.154   5.605 -0.6932 -0.1798 -0.3671
 8154TIP3    H145953   0.021   2.166   5.510 -1.6764  0.0107 -0.3131
 8154TIP3    H245954  -0.058   2.110   5.627 -0.2527 -0.6878  0.3388
 8155TIP3   OH245955   1.600   4.768  12.150  0.0566  0.3143  0.1283
 8155TIP3    H145956   1.524   4.773  12.093  0.5920  2.7601 -0.4943
 8155TIP3    H245957   1.577   4.702  12.215 -0.6708 -2.4263 -2.6859
 8156TIP3   OH245958   2.813   3.267  11.094 -0.0124  0.4348  0.4258
 8156TIP3    H145959   2.885   3.205  11.109  0.5549  0.3241 -2.3280
 8156TIP3    H245960   2.741   3.233  11.148  0.6486 -1.9380 -0.0530
 8157TIP3   OH245961   3.032   3.102  10.820 -0.4485 -0.2461 -0.0371
 8157TIP3    H145962   3.083   3.158  10.761 -1.1296  0.6012  0.1511
 8157TIP3    H245963   3.094   3.076  10.888 -0.7757  2.8393  1.6168
 8158TIP3   OH245964   0.859   4.210  14.106 -0.0032  0.3188 -0.0439
 8158TIP3    H145965   0.919   4.150  14.150 -0.9979 -1.7533 -1.3576
 8158TIP3    H245966   0.861   4.289  14.160 -0.0701 -1.5198  2.8992
 8159TIP3   OH245967   2.096   4.976   1.909  0.1315 -0.2758 -0.1982
 8159TIP3    H145968   2.161   4.907   1.894  0.3128 -0.4937  1.3661
 8159TIP3    H245969   2.034   4.937   1.970 -0.2083  0.6822  0.0831
 8160TIP3   OH245970   5.854   4.893  13.000 -0.0408 -0.4480 -0.3449
 8160TIP3    H145971   5.781   4.931  13.048  0.8135  2.4180 -1.1147
 8160TIP3    H245972   5.822   4.886  12.910 -0.1344 -1.4931 -0.2423
 8161TIP3   OH245973   3.167   4.961   0.195  0.3571 -0.2921 -0.4428
 8161TIP3    H145974   3.160   4.866   0.198  0.4277 -0.3154 -0.9526
 8161TIP3    H245975   3.104   4.988   0.128  0.3778  0.0141 -0.3411
 8162TIP3   OH245976   0.960   5.835  12.159 -0.2054 -0.0428 -0.2544
 8162TIP3    H145977   0.920   5.884  12.088 -0.7843 -0.5404 -0.2791
 8162TIP3    H245978   0.931   5.745  12.145  0.1700 -0.2490  0.2616
 8163TIP3   OH245979   0.712   0.643  12.287  0.2157 -0.3105  0.3182
 8163TIP3    H145980   0.780   0.700  12.251 -0.4371 -0.6944 -1.6431
 8163TIP3    H245981   0.664   0.611  12.211  1.2249 -4.4353  1.1677
 8164TIP3   OH245982   1.294   6.270   1.267 -0.6239  0.3988  0.2308
 8164TIP3    H145983   1.309   6.361   1.241  0.3508  0.4796  1.0074
 8164TIP3    H245984   1.298   6.272   1.363  0.5414 -0.6417  0.2205
 8165TIP3   OH245985   3.083   3.456   4.380 -0.2538 -0.2450 -0.4682
 8165TIP3    H145986   3.063   3.549   4.397 -1.7841 -0.4899 -0.7874
 8165TIP3    H245987   3.179   3.453   4.377 -0.1710  1.4258 -0.9725
 8166TIP3   OH245988   5.363   3.827   5.836  0.4196 -0.1668  0.0193
 8166TIP3    H145989   5.412   3.853   5.758 -1.2276  0.7311 -0.7705
 8166TIP3    H245990   5.321   3.745   5.812  0.3987 -0.2014  0.1745
 8167TIP3   OH245991   6.611   0.053  11.032 -0.2154  0.1921 -0.4105
 8167TIP3    H145992   6.668   0.022  11.102  0.4818  1.9643 -0.1312
 8167TIP3    H245993   6.543  -0.014  11.024 -0.3250 -0.0691  1.9771
 8168TIP3   OH245994   0.152   3.332   1.996  0.4528 -0.1292  0.4214
 8168TIP3    H145995   0.154   3.425   2.018 -0.9624  0.3211 -1.1230
 8168TIP3    H245996   0.220   3.320   1.930 -0.0290  0.0450 -0.1166
 8169TIP3   OH245997   0.856   6.340  16.078 -0.7380 -0.1562  0.1095
 8169TIP3    H145998   0.856   6.349  16.173  0.4273 -0.8434  0.1978
 8169TIP3    H245999   0.779   6.286  16.059 -1.7610  1.1207  0.5110
 8170TIP3   OH246000   3.159   5.009   5.170  0.5111 -0.2263  0.4633
 8170TIP3    H146001   3.251   4.997   5.194  0.6373 -0.9118 -0.3341
 8170TIP3    H246002   3.110   4.982   5.248  0.9498 -1.2770  0.3858
 8171TIP3   OH246003   4.331   2.907  11.185  0.2495 -0.0859  0.4479
 8171TIP3    H146004   4.236   2.912  11.201  0.6061  1.7500  2.5388
 8171TIP3    H246005   4.342   2.937  11.095 -1.1479 -0.5434  0.0886
 8172TIP3   OH246006   3.267   4.831  13.027 -0.1275 -0.2856  0.4662
 8172TIP3    H146007   3.244   4.778  12.950  1.5073  0.4711 -0.5950
 8172TIP3    H246008   3.256   4.772  13.101 -4.7905 -0.2031  0.1237
 8173TIP3   OH246009   1.653   3.012  15.933 -0.4023 -0.3971  0.2770
 8173TIP3    H146010   1.740   2.971  15.934  0.2696  0.9309 -0.3095
 8173TIP3    H246011   1.613   2.986  16.016  1.0390 -0.0892  1.1120
 8174TIP3   OH246012   0.197   5.672   2.983  0.1313  0.3073  0.3456
 8174TIP3    H146013   0.198   5.717   3.068 -0.4130  1.0447 -0.0162
 8174TIP3    H246014   0.198   5.579   3.005 -0.8074  0.4717  1.1921
 8175TIP3   OH246015   6.567   6.530   3.814 -0.2615 -0.0039  0.3446
 8175TIP3    H146016   6.497   6.512   3.877  1.2256 -0.6440  1.8734
 8175TIP3    H246017   6.589   6.622   3.828  0.1443 -0.1745  0.8630
 8176TIP3   OH246018   4.431   1.159   5.981 -0.1540  0.3134 -0.1264
 8176TIP3    H146019   4.523   1.155   6.009  0.3189 -0.2915 -1.6191
 8176TIP3    H246020   4.405   1.067   5.974 -0.5023  0.4617 -0.8249
 8177TIP3   OH246021   5.885   4.378  11.273  0.4167  0.4998  0.2542
 8177TIP3    H146022   5.809   4.321  11.262  0.9408 -0.6525  2.0883
 8177TIP3    H246023   5.848   4.462  11.298 -0.2855  0.2132  0.2160
 8178TIP3   OH246024   4.447   2.918   2.034  0.1815  0.2785 -0.5162
 8178TIP3    H146025   4.440   2.824   2.019 -1.0041  0.5380 -1.7163
 8178TIP3    H246026   4.506   2.949   1.965  0.4071  0.4516 -0.2482
 8179TIP3   OH246027   1.586   1.932   1.937  0.0722 -0.2687 -0.3901
 8179TIP3    H146028   1.612   1.846   1.903 -0.6614 -0.5679 -0.2118
 8179TIP3    H246029   1.588   1.989   1.860  0.8720 -0.3712 -0.4503
 8180TIP3   OH246030   2.967   0.315  15.285 -0.4771 -0.2036  0.2046
 8180TIP3    H146031   3.046   0.357  15.320 -0.4738  1.8139 -1.9667
 8180TIP3    H246032   2.983   0.221  15.295  2.0948  0.1402  0.0768
 8181TIP3   OH246033   6.556   4.945   4.560  0.2056 -0.4391  0.1964
 8181TIP3    H146034   6.547   4.861   4.516 -2.1247  1.0813 -2.5748
 8181TIP3    H246035   6.645   4.973   4.542 -0.2385 -0.5315 -2.5063
 8182TIP3   OH246036   2.839   4.120   6.620 -0.2283  0.4547 -0.1351
 8182TIP3    H146037   2.834   4.206   6.579 -0.5852 -0.2455 -1.6336
 8182TIP3    H246038   2.919   4.081   6.586 -1.8865 -1.2008 -2.4511
 8183TIP3   OH246039   5.369   1.692   5.067 -0.2811  0.1029 -0.2577
 8183TIP3    H146040   5.392   1.666   4.978 -1.0598  0.1203 -0.4697
 8183TIP3    H246041   5.446   1.739   5.098 -0.1966  0.5642 -1.1159
 8184TIP3   OH246042   4.776   5.260  13.651 -0.0811 -0.3619 -0.1057
 8184TIP3    H146043   4.731   5.268  13.568 -0.5850  0.5781  0.2469
 8184TIP3    H246044   4.841   5.191  13.637 -0.7524 -0.8252 -1.0007
 8185TIP3   OH246045   5.067   3.613  17.129  0.4357 -0.4749 -0.0660
 8185TIP3    H146046   5.156   3.639  17.105 -0.0571  0.6236 -0.7859
 8185TIP3    H246047   5.076   3.522  17.159  2.1705  0.3139  2.1104
 8186TIP3   OH246048   2.005   3.615  13.282 -0.0742  0.0957  0.0139
 8186TIP3    H146049   2.079   3.635  13.225 -0.5591  0.2362 -0.5680
 8186TIP3    H246050   1.973   3.700  13.310  0.7433  0.0175  1.2703
 8187TIP3   OH246051   5.606   0.521  14.292  0.0166  0.3488  0.2973
 8187TIP3    H146052   5.690   0.560  14.314 -0.6470  0.8887  2.0909
 8187TIP3    H246053   5.564   0.505  14.377 -2.2270  1.2848 -0.5590
 8188TIP3   OH246054   3.707   2.749   5.054  0.2685 -0.3727 -0.3609
 8188TIP3    H146055   3.790   2.748   5.007  0.1172 -1.4877 -0.6319
 8188TIP3    H246056   3.677   2.658   5.052 -1.4255  0.1762 -1.0850
 8189TIP3   OH246057   1.322   1.459  13.456 -0.2047 -0.1320 -0.4783
 8189TIP3    H146058   1.346   1.376  13.498  3.0938  0.6087 -0.6722
 8189TIP3    H246059   1.288   1.433  13.370 -1.9676 -1.3561  0.5084
 8190TIP3   OH246060   4.091   3.792  12.393  0.1117  0.6113  0.4272
 8190TIP3    H146061   4.096   3.697  12.385 -1.8716  0.4641  0.4907
 8190TIP3    H246062   4.123   3.825  12.309  0.9646 -0.0945  0.4641
 8191TIP3   OH246063   1.808   1.669  16.486 -0.3411  0.3887  0.7558
 8191TIP3    H146064   1.889   1.642  16.442  0.0069  0.5257  1.3108
 8191TIP3    H246065   1.801   1.762  16.467 -0.1803  0.4520  1.0140
 8192TIP3   OH246066   6.088   1.668  13.700  0.0588  0.2133  0.5939
 8192TIP3    H146067   6.026   1.679  13.772 -0.0480  0.3568  0.4795
 8192TIP3    H246068   6.174   1.671  13.742  0.0154  0.8540  0.6431
 8193TIP3   OH246069   1.395   4.016   0.494 -0.0864 -0.1934  0.1553
 8193TIP3    H146070   1.466   4.065   0.535 -1.1656 -0.0664  2.0077
 8193TIP3    H246071   1.372   4.066   0.416 -0.8169  2.0101  1.7074
 8194TIP3   OH246072   0.617   0.484   2.160  0.2856 -0.1461 -0.0149
 8194TIP3    H146073   0.616   0.579   2.171 -1.2556  0.3395 -3.0402
 8194TIP3    H246074   0.536   0.465   2.112  0.5847 -2.9896  0.4193
 8195TIP3   OH246075   1.508   0.288  12.092  0.3268 -0.3612 -0.0197
 8195TIP3    H146076   1.426   0.327  12.123  1.3528  2.4497 -0.5264
 8195TIP3    H246077   1.481   0.204  12.054 -1.7511 -1.2756  3.0474
 8196TIP3   OH246078   3.336   2.689  12.018 -0.7797  0.1365  0.2069
 8196TIP3    H146079   3.355   2.770  12.065  1.3575 -0.3407  0.2685
 8196TIP3    H246080   3.327   2.716  11.926  2.0059  0.2766 -0.1058
 8197TIP3   OH246081   5.148   1.105  15.938  0.7474  0.0133  0.1926
 8197TIP3    H146082   5.174   1.134  15.850  1.3299 -3.0477 -0.7824
 8197TIP3    H246083   5.058   1.073  15.926  0.8407 -0.4420  0.6738
 8198TIP3   OH246084   2.196   4.843   2.786 -0.5304  0.2586  0.4922
 8198TIP3    H146085   2.139   4.908   2.746  0.3250  0.2012 -0.8900
 8198TIP3    H246086   2.183   4.854   2.880 -3.2642 -0.1720  0.2552
 8199TIP3   OH246087   1.825   4.555  14.726  0.1041  0.0890 -0.1262
 8199TIP3    H146088   1.832   4.580  14.819  0.8930  0.0020 -0.1551
 8199TIP3    H246089   1.862   4.629  14.678  0.9292 -0.4111 -0.2931
 8200TIP3   OH246090   3.045   0.084   4.002  0.3136  0.2587  0.1796
 8200TIP3    H146091   3.122   0.028   3.994 -0.0512 -0.6918  2.4425
 8200TIP3    H246092   2.983   0.050   3.937  0.7620 -0.8358  0.2982
 8201TIP3   OH246093   4.963   3.390  15.144 -0.5782 -0.3098 -0.8355
 8201TIP3    H146094   4.879   3.345  15.138 -1.1055  0.4573  0.4804
 8201TIP3    H246095   5.020   3.342  15.083 -1.6041 -1.6310 -0.8048
 8202TIP3   OH246096   0.827   1.581  15.826 -0.2289  0.0084 -0.0874
 8202TIP3    H146097   0.812   1.618  15.913  0.7125 -2.4224  1.2256
 8202TIP3    H246098   0.783   1.496  15.829  0.1543 -0.2945 -1.8786
 8203TIP3   OH246099   2.823   0.344  12.565 -0.2399  0.0312 -0.3828
 8203TIP3    H146100   2.891   0.410  12.550 -0.1590  0.2643  0.8857
 8203TIP3    H246101   2.819   0.336  12.661 -2.0934  0.1304 -0.4180
 8204TIP3   OH246102   6.665   3.661  15.881 -0.1408 -0.0018 -0.8946
 8204TIP3    H146103   6.723   3.621  15.816 -0.5520 -1.7975 -0.2092
 8204TIP3    H246104   6.621   3.587  15.922  0.1539  1.0697  1.4997
 8205TIP3   OH246105   3.153   2.646   5.399 -0.0543  0.1351 -0.5848
 8205TIP3    H146106   3.182   2.607   5.482 -1.4393  3.0605  1.4078
 8205TIP3    H246107   3.224   2.705   5.374 -0.3117  0.4243 -0.6376
 8206TIP3   OH246108   3.635   0.280  13.382 -0.1555 -0.0156  0.0979
 8206TIP3    H146109   3.675   0.283  13.468 -0.2362 -1.9571  0.2554
 8206TIP3    H246110   3.569   0.210  13.388 -0.3377 -0.0286 -1.4511
 8207TIP3   OH246111   4.776   5.981   3.358 -0.3677  0.0793  0.0250
 8207TIP3    H146112   4.759   6.028   3.276 -1.0697  0.4329  0.3699
 8207TIP3    H246113   4.703   6.003   3.415 -0.6052 -1.2557  0.2843
 8208TIP3   OH246114   3.368   2.299  15.308  0.1635 -0.2389  0.1204
 8208TIP3    H146115   3.365   2.318  15.215 -2.4367 -1.3105 -0.1108
 8208TIP3    H246116   3.298   2.353  15.346  2.4553  1.7393  1.8621
 8209TIP3   OH246117   3.523   5.732   6.038 -0.2070 -0.4308 -0.4237
 8209TIP3    H146118   3.610   5.726   6.075  0.0867 -0.8526 -1.1623
 8209TIP3    H246119   3.468   5.679   6.095  0.0773 -0.4128 -0.1329
 8210TIP3   OH246120   5.670   1.471   1.904 -0.1797  0.3968 -0.0428
 8210TIP3    H146121   5.740   1.495   1.844  0.1413  0.7850  0.4892
 8210TIP3    H246122   5.621   1.552   1.919  0.2135  0.4786  0.8401
 8211TIP3   OH246123   3.200   2.511  12.148 -0.0397  0.1434 -0.1541
 8211TIP3    H146124   3.279   2.457  12.150 -0.0551  0.0653 -1.0509
 8211TIP3    H246125   3.222   2.583  12.088 -0.3140  0.6641  0.3620
 8212TIP3   OH246126   6.259   1.683  16.137 -0.6050  0.0895  0.6608
 8212TIP3    H146127   6.262   1.596  16.177  0.2973  0.3604  1.2187
 8212TIP3    H246128   6.194   1.731  16.188  1.0249  0.6458  2.3022
 8213TIP3   OH246129   0.824   1.967  12.780 -0.0404  0.2268  0.1427
 8213TIP3    H146130   0.877   1.888  12.790 -0.2516  0.1083  0.3560
 8213TIP3    H246131   0.882   2.030  12.737 -0.2155 -0.3931 -1.0450
 8214TIP3   OH246132   2.973   3.733   0.163 -0.7503 -0.2737 -0.1849
 8214TIP3    H146133   2.916   3.664   0.129 -2.4649  0.4191  1.1426
 8214TIP3    H246134   3.046   3.686   0.204 -0.0577 -1.1618 -2.3086
 8215TIP3   OH246135   4.710   3.095  13.089  0.2987  0.5613 -0.2867
 8215TIP3    H146136   4.764   3.156  13.039 -0.8579  1.2595 -0.7276
 8215TIP3    H246137   4.634   3.079  13.033 -0.8357  1.0328  1.0516
 8216TIP3   OH246138   3.614   3.265  15.256  0.3710 -0.0526 -0.8278
 8216TIP3    H146139   3.632   3.195  15.319  0.1582 -0.0901 -0.8104
 8216TIP3    H246140   3.663   3.240  15.177 -0.6841 -0.8537 -1.2507
 8217TIP3   OH246141   0.391   0.731  11.014  0.3852 -0.6308 -0.1780
 8217TIP3    H146142   0.483   0.722  10.990  0.2371 -1.1646 -0.5722
 8217TIP3    H246143   0.356   0.642  11.009 -0.2770 -0.3604 -0.5659
 8218TIP3   OH246144   1.395   4.407   1.196 -0.3685  0.1178  0.2074
 8218TIP3    H146145   1.469   4.389   1.137 -1.1474  1.7105 -1.3721
 8218TIP3    H246146   1.318   4.374   1.148 -0.7771 -1.0749  1.6135
 8219TIP3   OH246147   1.898   4.188   0.648  0.2998  0.3793  0.0619
 8219TIP3    H146148   1.923   4.134   0.573 -0.9283 -0.2885  0.1033
 8219TIP3    H246149   1.868   4.271   0.609 -0.0355  0.1527 -0.1665
 8220TIP3   OH246150   2.554   3.064  10.928  0.1345 -0.1321 -0.5082
 8220TIP3    H146151   2.498   3.141  10.937 -0.9559 -0.7413 -1.7134
 8220TIP3    H246152   2.625   3.092  10.871 -1.5241 -0.5675 -2.9610
 8221TIP3   OH246153   2.125   6.230  13.226 -0.2424  0.1237  0.2156
 8221TIP3    H146154   2.217   6.222  13.249  0.1755 -0.1735 -1.4135
 8221TIP3    H246155   2.100   6.143  13.194 -0.4464  0.7340 -1.4123
 8222TIP3   OH246156   4.416   0.083   6.261  0.2849 -0.9471 -0.1021
 8222TIP3    H146157   4.462   0.027   6.198  0.6792  0.7070 -1.3659
 8222TIP3    H246158   4.363   0.022   6.312  1.4421 -2.5762 -0.7245
 8223TIP3   OH246159   2.249   2.057   4.313 -0.3667  0.0768 -0.1167
 8223TIP3    H146160   2.252   1.969   4.277 -0.8551 -0.0696  0.1997
 8223TIP3    H246161   2.250   2.045   4.408 -1.4760  0.3668 -0.0558
 8224TIP3   OH246162   4.785   0.453   5.805  0.0029  0.3918  0.1311
 8224TIP3    H146163   4.873   0.463   5.842  0.4039 -1.4118 -0.2542
 8224TIP3    H246164   4.772   0.532   5.753  1.9205  0.1261 -0.8358
 8225TIP3   OH246165   0.284   4.023   5.716  0.0515  0.1667  0.7119
 8225TIP3    H146166   0.340   4.073   5.656  0.1029  2.4130  2.4832
 8225TIP3    H246167   0.340   4.005   5.792 -0.7586 -0.2408  1.2269
 8226TIP3   OH246168   4.914   5.911  16.143 -0.6476  0.0884  0.3761
 8226TIP3    H146169   4.856   5.980  16.111 -0.4182 -0.4575 -1.3370
 8226TIP3    H246170   4.881   5.831  16.103 -0.2573 -0.6401  1.4589
 8227TIP3   OH246171   2.843   2.684   2.651 -0.0652  0.2327  0.6053
 8227TIP3    H146172   2.932   2.682   2.687 -0.3418  0.2019  1.2967
 8227TIP3    H246173   2.787   2.656   2.723 -0.4681 -1.6692 -0.3995
 8228TIP3   OH246174   0.008   0.228  15.787 -0.5204 -0.3483  0.2370
 8228TIP3    H146175   0.100   0.211  15.806  0.5548  2.6905 -1.4036
 8228TIP3    H246176  -0.018   0.160  15.725  1.8341  0.7001 -2.0742
 8229TIP3   OH246177   3.633   1.817   0.706 -0.1684 -0.0838  0.2695
 8229TIP3    H146178   3.538   1.815   0.699 -0.0982 -2.6024 -1.7465
 8229TIP3    H246179   3.653   1.755   0.776 -0.0156 -1.3058 -0.8153
 8230TIP3   OH246180   3.820   6.125  13.348 -0.7460 -0.1161 -0.9434
 8230TIP3    H146181   3.733   6.161  13.365 -1.3183 -1.2683 -1.2975
 8230TIP3    H246182   3.878   6.175  13.404 -1.5590  1.0422 -1.0974
 8231TIP3   OH246183   1.938   4.762  15.969 -0.4380  0.3328 -0.0417
 8231TIP3    H146184   1.919   4.854  15.952  0.8757  0.6707  0.1982
 8231TIP3    H246185   1.932   4.753  16.064 -4.4189 -0.7757 -0.2283
 8232TIP3   OH246186   0.158   5.182   1.384 -0.5275 -0.6746  0.5244
 8232TIP3    H146187   0.160   5.100   1.335  0.9110  0.1475 -0.9267
 8232TIP3    H246188   0.136   5.248   1.318 -0.3636  0.2498  1.3705
 8233TIP3   OH246189   1.206   0.272   3.381  0.1340 -0.5817 -0.4636
 8233TIP3    H146190   1.212   0.179   3.358 -1.9325 -1.1284  0.9374
 8233TIP3    H246191   1.157   0.312   3.309 -2.5115 -1.4292  0.7640
 8234TIP3   OH246192   0.203   6.294  16.683  0.2633 -0.1088 -0.2460
 8234TIP3    H146193   0.139   6.226  16.706 -0.2686  0.6599  0.5823
 8234TIP3    H246194   0.158   6.346  16.616 -0.0676  0.5344  0.4590
 8235TIP3   OH246195   3.627   4.414  11.505  0.2854 -0.0737  0.0430
 8235TIP3    H146196   3.631   4.334  11.452 -1.4136 -0.3627  0.2804
 8235TIP3    H246197   3.689   4.398  11.576  1.6731 -0.1937 -1.1476
 8236TIP3   OH246198   4.724   3.901   3.699  0.0686 -0.5631  0.2851
 8236TIP3    H146199   4.786   3.894   3.626  0.2484  0.8479  0.2587
 8236TIP3    H246200   4.643   3.862   3.666  0.4392 -0.8436 -0.3078
 8237TIP3   OH246201   0.418   4.908  14.778 -0.2935 -0.3388 -0.1882
 8237TIP3    H146202   0.467   4.854  14.717  0.5558  1.2860 -1.0021
 8237TIP3    H246203   0.367   4.967  14.723  1.5343  2.0982  0.5727
 8238TIP3   OH246204   6.466   3.986   4.633  0.8790 -0.3687  0.2676
 8238TIP3    H146205   6.492   4.063   4.684  0.1969 -1.1856  1.9442
 8238TIP3    H246206   6.546   3.956   4.591  1.1569  1.2358 -0.4108
 8239TIP3   OH246207   6.618   2.328  14.715 -0.2327 -0.0786  0.6677
 8239TIP3    H146208   6.608   2.279  14.633 -0.9594 -0.8554  1.1997
 8239TIP3    H246209   6.535   2.376  14.724  0.1939  0.7075  0.5129
 8240TIP3   OH246210   1.126   2.557   1.264  0.7014 -0.3994  0.4341
 8240TIP3    H146211   1.117   2.550   1.359  0.3312  0.2093  0.4470
 8240TIP3    H246212   1.220   2.565   1.249  0.6366  1.8740  0.9243
 8241TIP3   OH246213   5.060   6.742  15.071 -0.1635  0.1612  0.5285
 8241TIP3    H146214   5.104   6.700  14.997  0.1167  0.6857  0.3943
 8241TIP3    H246215   5.102   6.704  15.148 -1.1865 -1.1996  0.4722
 8242TIP3   OH246216   6.570   4.378  16.250 -0.3353  0.0592  0.5922
 8242TIP3    H146217   6.532   4.295  16.281 -2.6195  0.8264  0.0011
 8242TIP3    H246218   6.622   4.409  16.325  0.4538 -1.7861  0.8817
 8243TIP3   OH246219   4.427   0.574  11.859  0.3986 -0.0764 -0.0585
 8243TIP3    H146220   4.458   0.486  11.838 -0.4887 -0.3934 -0.0758
 8243TIP3    H246221   4.477   0.600  11.936 -2.1953 -2.2779  2.5993
 8244TIP3   OH246222   3.083   1.131   5.670 -0.0841 -0.6140 -0.0941
 8244TIP3    H146223   3.171   1.156   5.642  0.0491 -1.8981 -0.9187
 8244TIP3    H246224   3.026   1.164   5.601 -0.2111 -0.1585  0.2250
 8245TIP3   OH246225   3.570   4.016  14.109  0.5743  0.6386 -0.3278
 8245TIP3    H146226   3.598   3.984  14.023  1.4982  1.1266 -0.2245
 8245TIP3    H246227   3.480   3.984  14.119  1.1376 -1.1351 -0.6107
 8246TIP3   OH246228   4.861   2.923   4.345 -0.4868 -0.3814 -0.2861
 8246TIP3    H146229   4.826   2.944   4.432  1.7031  0.1333  0.5315
 8246TIP3    H246230   4.815   2.982   4.285 -1.0586  0.1964  0.7032
 8247TIP3   OH246231   2.108   5.895   2.813  1.0167 -0.1924  0.4907
 8247TIP3    H146232   2.074   5.898   2.903  0.3459  0.8844  0.2155
 8247TIP3    H246233   2.199   5.866   2.823  1.1217  0.4626  1.5722
 8248TIP3   OH246234   4.779   3.303   4.623  0.1861 -0.2031 -0.1326
 8248TIP3    H146235   4.686   3.296   4.645 -0.1380 -0.0563 -1.3978
 8248TIP3    H246236   4.823   3.249   4.689 -0.8808 -1.0401 -0.0787
 8249TIP3   OH246237   0.040   4.129  15.086 -0.4636  0.2984  0.5239
 8249TIP3    H146238   0.078   4.048  15.052  0.7040  0.8139  0.5405
 8249TIP3    H246239  -0.054   4.117  15.076 -0.2444 -0.3586 -1.0843
 8250TIP3   OH246240   4.921   0.341   2.158  0.3078 -0.1177 -0.5870
 8250TIP3    H146241   4.840   0.390   2.167 -0.1749 -0.1534 -3.6708
 8250TIP3    H246242   4.979   0.399   2.109  1.8207 -0.4892  0.6787
 8251TIP3   OH246243   0.236   5.771  15.301 -0.3188 -0.1729 -0.6854
 8251TIP3    H146244   0.258   5.686  15.264  0.0343 -0.2868 -0.2226
 8251TIP3    H246245   0.151   5.793  15.262  0.6982  0.4152 -2.7659
 8252TIP3   OH246246   1.215   5.829   0.153 -0.0449  0.6342 -0.4080
 8252TIP3    H146247   1.261   5.896   0.102  1.4661  0.5657  0.7899
 8252TIP3    H246248   1.168   5.777   0.088 -0.6842  2.4022 -1.4307
 8253TIP3   OH246249   6.270   4.429   1.373 -0.0147  0.3158 -0.2437
 8253TIP3    H146250   6.248   4.394   1.459 -0.8168  2.1993  0.3620
 8253TIP3    H246251   6.192   4.415   1.320  1.0921 -2.5740 -1.3483
 8254TIP3   OH246252   6.684   5.553   2.510  0.9902  0.6406  0.4928
 8254TIP3    H146253   6.754   5.514   2.561 -0.3952 -1.5456  0.8574
 8254TIP3    H246254   6.683   5.504   2.428  0.3464  1.1381  0.1877
 8255TIP3   OH246255   4.472   2.948  10.920 -0.3467  0.4901 -0.0205
 8255TIP3    H146256   4.527   2.893  10.865  0.0440  2.8621 -2.1704
 8255TIP3    H246257   4.382   2.926  10.894 -0.2527 -0.1170  0.1616
 8256TIP3   OH246258   4.891   0.155  15.137 -0.2989  0.7895 -0.4325
 8256TIP3    H146259   4.835   0.228  15.110 -0.8478  0.6057  0.1750
 8256TIP3    H246260   4.925   0.120  15.055 -0.9926  0.9712 -0.8129
 8257TIP3   OH246261   1.028   6.640   0.944  0.1400  0.4498  0.2364
 8257TIP3    H146262   0.983   6.656   0.861  0.8205  1.9222  0.1127
 8257TIP3    H246263   1.004   6.551   0.968 -2.3837  0.9674 -0.0795
 8258TIP3   OH246264   6.253   0.002   1.188  0.1885 -0.2386  0.1512
 8258TIP3    H146265   6.266  -0.064   1.120  0.8472 -0.8889  0.8876
 8258TIP3    H246266   6.296  -0.034   1.265 -1.8275 -0.2423  1.3549
 8259TIP3   OH246267   5.320   6.520   4.047  0.2688 -0.3887 -0.3399
 8259TIP3    H146268   5.262   6.593   4.027  2.3236  0.7515 -2.6791
 8259TIP3    H246269   5.265   6.443   4.038 -1.2179  0.6919 -0.9922
 8260TIP3   OH246270   0.134   4.501  10.730  0.1637  0.4115  0.2935
 8260TIP3    H146271   0.093   4.577  10.688  0.3458 -0.3244 -1.2875
 8260TIP3    H246272   0.089   4.425  10.691  0.1011 -0.3055  1.7168
 8261TIP3   OH246273   4.753   0.825  14.061 -0.0092 -0.1985 -0.2555
 8261TIP3    H146274   4.737   0.744  14.012  0.5946 -3.6662  4.6172
 8261TIP3    H246275   4.839   0.854  14.032  1.0731 -3.0287 -0.1671
 8262TIP3   OH246276   2.373   2.240  12.023 -0.1040  0.2235 -0.5792
 8262TIP3    H146277   2.379   2.170  11.958 -0.4962  0.5444 -0.9675
 8262TIP3    H246278   2.292   2.286  12.002 -0.3673  0.1840  0.2849
 8263TIP3   OH246279   3.763   0.153  16.077  0.1549  0.2942 -0.6774
 8263TIP3    H146280   3.749   0.245  16.055 -1.1730  0.0701 -0.8716
 8263TIP3    H246281   3.808   0.116  16.001 -2.8150 -0.0672 -2.3903
 8264TIP3   OH246282   3.634   0.140  13.906 -0.9379  0.2629 -0.4268
 8264TIP3    H146283   3.692   0.100  13.841 -0.8014 -1.2659  0.6038
 8264TIP3    H246284   3.547   0.136  13.866 -1.1002 -2.0295  0.0090
 8265TIP3   OH246285   0.399   0.247  17.228 -0.2975 -0.9496 -0.3980
 8265TIP3    H146286   0.395   0.157  17.261  0.4630 -0.5283  0.9123
 8265TIP3    H246287   0.453   0.294  17.292  1.0784 -0.0294 -2.1275
 8266TIP3   OH246288   1.025   3.896   4.488 -0.3405  0.5380 -0.0910
 8266TIP3    H146289   1.025   3.936   4.401  0.2649  0.3448 -0.1834
 8266TIP3    H246290   1.078   3.818   4.479 -0.1149  0.6178  0.4971
 8267TIP3   OH246291   5.984   5.287   6.579  0.6397  0.1916  0.4448
 8267TIP3    H146292   5.925   5.308   6.506  0.8060  0.8849  0.4973
 8267TIP3    H246293   5.929   5.242   6.642  0.6858 -1.2185 -0.4746
 8268TIP3   OH246294   1.891   2.179   0.716  0.2060 -0.0875 -0.4411
 8268TIP3    H146295   1.799   2.175   0.744  0.6907 -2.1775  1.0790
 8268TIP3    H246296   1.888   2.155   0.623 -0.9335  1.8125 -0.9553
 8269TIP3   OH246297   1.331   5.605   2.112 -0.3055  0.3570 -0.6248
 8269TIP3    H146298   1.377   5.521   2.104  0.8925  1.1291 -2.2566
 8269TIP3    H246299   1.238   5.582   2.101 -0.3896 -1.1480  2.1709
 8270TIP3   OH246300   3.084   6.819  13.130  0.0986  0.7213  0.1351
 8270TIP3    H146301   3.086   6.865  13.046 -1.1209  0.5585 -0.0110
 8270TIP3    H246302   3.091   6.726  13.107 -2.1624  0.5220  0.0016
 8271TIP3   OH246303   2.152   2.283  11.538  0.8231 -0.4483  1.1102
 8271TIP3    H146304   2.059   2.287  11.559  0.1325 -0.6540 -1.5217
 8271TIP3    H246305   2.186   2.369  11.562 -0.0774 -0.3017  1.9215
 8272TIP3   OH246306   1.171   2.934  16.260 -0.0782 -0.0059 -0.3185
 8272TIP3    H146307   1.169   2.891  16.175 -0.3281 -1.8498  0.5666
 8272TIP3    H246308   1.092   2.903  16.304 -0.3838  1.5667  0.2990
 8273TIP3   OH246309   6.017   2.135  16.555 -0.1726 -0.1526  0.5506
 8273TIP3    H146310   5.957   2.122  16.482  2.1375 -3.2246 -1.0439
 8273TIP3    H246311   6.002   2.060  16.612  0.2369  0.5495  1.6178
 8274TIP3   OH246312   0.574   2.583   2.498 -0.2587  0.5208  0.2388
 8274TIP3    H146313   0.564   2.490   2.515 -0.5442  0.5460  0.2097
 8274TIP3    H246314   0.509   2.625   2.554 -0.0531  0.7097  0.3370
 8275TIP3   OH246315   4.335   0.014  11.746 -0.1420  0.4332 -0.4718
 8275TIP3    H146316   4.386   0.085  11.707 -2.0361  1.2884 -1.4828
 8275TIP3    H246317   4.282   0.057  11.813 -1.5832  0.0899 -1.3454
 8276TIP3   OH246318   3.654   1.878  15.992 -0.0038 -0.4153 -0.2152
 8276TIP3    H146319   3.736   1.927  15.997 -0.7106  0.6842  2.3785
 8276TIP3    H246320   3.615   1.889  16.079 -3.0882 -0.5847 -1.4767
 8277TIP3   OH246321   0.935   0.536   3.398 -0.1378 -0.4781 -0.2331
 8277TIP3    H146322   0.879   0.592   3.452  1.2977  1.5445 -0.7430
 8277TIP3    H246323   0.881   0.458   3.381 -2.3806  0.8802  0.1981
 8278TIP3   OH246324   0.629   1.871   2.445  0.1014  0.1729  0.0778
 8278TIP3    H146325   0.671   1.908   2.367 -0.5273  1.6683  0.3900
 8278TIP3    H246326   0.682   1.795   2.468  0.6259  0.0207 -1.4787
 8279TIP3   OH246327   5.938   5.057  11.593 -0.4826  0.3044 -0.5024
 8279TIP3    H146328   5.980   5.091  11.672 -0.5575 -2.1744  0.7004
 8279TIP3    H246329   5.858   5.109  11.584  1.1542  2.9417 -0.9997
 8280TIP3   OH246330   2.785   0.890  11.467  0.0957 -0.0013  0.3239
 8280TIP3    H146331   2.703   0.920  11.429  0.5108  1.5673  0.5793
 8280TIP3    H246332   2.823   0.832  11.401  0.1731  1.6028 -1.1030
 8281TIP3   OH246333   6.496   4.223   0.634  0.9055  0.1757  0.2510
 8281TIP3    H146334   6.471   4.138   0.598 -1.4698  1.1811 -0.6182
 8281TIP3    H246335   6.480   4.214   0.728  0.5167 -0.2844  0.1451
 8282TIP3   OH246336   2.240   6.504  15.242 -0.1658  0.4263  0.1613
 8282TIP3    H146337   2.245   6.504  15.338 -1.3053 -0.9341  0.2515
 8282TIP3    H246338   2.179   6.575  15.222  1.3865  1.8729  0.2990
 8283TIP3   OH246339   4.457   5.758  16.044  0.2023  0.8369  0.4441
 8283TIP3    H146340   4.408   5.756  16.126  0.7444  0.5762  0.7653
 8283TIP3    H246341   4.532   5.700  16.059  0.0137  0.3406 -0.4182
 8284TIP3   OH246342   6.052   6.715  14.185  0.0876  0.1698  0.1264
 8284TIP3    H146343   6.007   6.685  14.263  2.0525 -0.3441  1.1177
 8284TIP3    H246344   6.131   6.662  14.181  0.2871  0.5423 -1.9402
 8285TIP3   OH246345   0.123   6.039   3.384 -0.2316  0.2525  0.0459
 8285TIP3    H146346   0.191   6.103   3.404 -0.1534  0.4920 -0.9078
 8285TIP3    H246347   0.042   6.090   3.385 -0.3132  0.1177  0.4558
 8286TIP3   OH246348   1.625   4.403  16.867 -0.1816  0.1354 -0.0527
 8286TIP3    H146349   1.631   4.313  16.898 -0.3292  0.8176  2.0869
 8286TIP3    H246350   1.713   4.425  16.838 -0.0353 -0.5203 -0.1123
 8287TIP3   OH246351   5.818   0.792   4.493  0.4377  0.2314  0.3046
 8287TIP3    H146352   5.744   0.785   4.552 -0.5353  2.3280 -0.5649
 8287TIP3    H246353   5.795   0.738   4.418  0.5615 -0.4550  0.7550
 8288TIP3   OH246354   1.804   2.277   5.262 -0.0778  0.5961  0.2875
 8288TIP3    H146355   1.882   2.234   5.226 -0.2528  0.2130  0.3669
 8288TIP3    H246356   1.766   2.212   5.321  0.2400  1.2240  1.2216
 8289TIP3   OH246357   0.563   2.722  14.672  0.1666 -0.0230 -0.1245
 8289TIP3    H146358   0.604   2.708  14.757 -0.8970  0.8777  0.5485
 8289TIP3    H246359   0.518   2.805  14.680  1.0775  0.7130 -1.9834
 8290TIP3   OH246360   2.928   4.369  14.131  0.0780  0.2008 -0.3845
 8290TIP3    H146361   2.893   4.281  14.117 -0.5131  0.2652  0.6050
 8290TIP3    H246362   2.856   4.428  14.109  0.3619  0.4299 -0.7173
 8291TIP3   OH246363   2.985   4.145  13.064 -0.0542 -0.2814 -0.6040
 8291TIP3    H146364   3.011   4.053  13.065 -0.5007 -0.4137 -0.3380
 8291TIP3    H246365   2.957   4.162  13.154  0.0108  0.1076 -0.6579
 8292TIP3   OH246366   2.588   0.343   0.094 -0.8241 -0.6447 -0.2754
 8292TIP3    H146367   2.559   0.340   0.185 -2.0156 -1.5802 -0.6547
 8292TIP3    H246368   2.586   0.251   0.065  1.0867 -0.5673 -0.7977
 8293TIP3   OH246369   1.140   1.625  11.076 -0.1650  0.3139 -0.0881
 8293TIP3    H146370   1.063   1.604  11.023 -0.1539 -0.4954  0.1886
 8293TIP3    H246371   1.206   1.562  11.047  0.2362  0.6898  0.0109
 8294TIP3   OH246372   5.625   1.958   1.490  0.1891  0.2539 -0.7309
 8294TIP3    H146373   5.543   1.957   1.441  0.1981 -1.2201 -0.7730
 8294TIP3    H246374   5.609   1.897   1.563  0.5974  1.4492  0.3904
 8295TIP3   OH246375   2.553   5.403  16.587 -0.2046  0.0131 -0.2531
 8295TIP3    H146376   2.551   5.331  16.650  0.9956 -1.7884 -2.1375
 8295TIP3    H246377   2.568   5.481  16.641 -0.3004 -1.2757  1.7658
 8296TIP3   OH246378   3.082   1.920   2.795  0.0359 -0.0063 -0.7058
 8296TIP3    H146379   2.994   1.942   2.825 -0.3210  0.0775 -1.7876
 8296TIP3    H246380   3.139   1.982   2.840 -0.0322 -2.0853  2.5768
 8297TIP3   OH246381   3.556   4.011   1.990 -0.1597 -0.1238 -0.1396
 8297TIP3    H146382   3.594   4.084   1.942  1.9029 -0.5691  0.7070
 8297TIP3    H246383   3.623   3.943   1.988 -1.0375 -1.0887  1.1846
 8298TIP3   OH246384   5.364   3.561   0.847  0.5695 -0.4898  0.4996
 8298TIP3    H146385   5.373   3.542   0.941  2.0716  0.1855  0.5175
 8298TIP3    H246386   5.271   3.577   0.835 -0.1662 -3.5473  1.2883
 8299TIP3   OH246387   4.901   4.074  13.726  0.1052  0.1531 -0.1903
 8299TIP3    H146388   4.885   4.118  13.643 -0.8260  0.9128  0.3671
 8299TIP3    H246389   4.831   4.105  13.783  0.2778 -0.9533  0.6507
 8300TIP3   OH246390   3.950   2.223   4.739  0.1576 -0.0818 -0.0990
 8300TIP3    H146391   3.969   2.150   4.798 -0.7736 -0.3285 -0.0938
 8300TIP3    H246392   3.990   2.197   4.656 -0.6677 -0.8776 -0.2602
 8301TIP3   OH246393   5.691   5.124  11.205 -0.2104 -0.3453  0.5046
 8301TIP3    H146394   5.768   5.077  11.238  0.5630  0.5855  0.0746
 8301TIP3    H246395   5.725   5.210  11.179 -2.0770  1.7478  4.2411
 8302TIP3   OH246396   5.972   0.715   1.923  0.3861  0.1078  0.2910
 8302TIP3    H146397   5.939   0.791   1.876  0.3058 -0.6947 -0.9964
 8302TIP3    H246398   6.031   0.672   1.861  1.2424 -0.3166  1.3654
 8303TIP3   OH246399   5.617   4.935  13.140 -0.8402  0.0472  0.1228
 8303TIP3    H146400   5.555   4.937  13.068 -1.5020  2.4359  0.6671
 8303TIP3    H246401   5.584   4.999  13.203  1.5996  0.6518  0.9194
 8304TIP3   OH246402   6.183   6.619   5.449 -0.1582 -0.0606 -0.5953
 8304TIP3    H146403   6.278   6.614   5.458 -0.1914 -0.3741 -0.4023
 8304TIP3    H246404   6.151   6.540   5.493 -0.5701  0.6240  0.3864
 8305TIP3   OH246405   0.880   2.103  12.358  0.4384 -0.4719 -0.2308
 8305TIP3    H146406   0.881   2.054  12.440  0.1815 -1.5993 -0.8909
 8305TIP3    H246407   0.894   2.194  12.385 -0.7811 -0.6559  1.1832
 8306TIP3   OH246408   0.047   5.661  13.748  0.1385  0.4238 -0.0347
 8306TIP3    H146409   0.038   5.568  13.731  1.1980  0.0019  1.5780
 8306TIP3    H246410   0.114   5.691  13.686 -2.1100  0.7702 -2.5023
 8307TIP3   OH246411   2.629   1.322   0.974 -0.0793  0.4719 -0.4936
 8307TIP3    H146412   2.592   1.369   0.899 -0.8302  1.2650  0.3481
 8307TIP3    H246413   2.563   1.257   0.997  0.8669 -0.9036 -1.5214
 8308TIP3   OH246414   5.347   0.006  12.151 -0.1164 -0.1323  0.7190
 8308TIP3    H146415   5.342   0.100  12.166  1.0440  0.0594 -0.0506
 8308TIP3    H246416   5.363  -0.003  12.057 -1.9853 -1.1676  0.4541
 8309TIP3   OH246417   6.201   2.183  13.502 -0.0197 -0.3621 -0.3045
 8309TIP3    H146418   6.162   2.118  13.443 -0.4431  0.1327 -0.5728
 8309TIP3    H246419   6.211   2.136  13.585 -2.4098 -0.1596  0.1631
 8310TIP3   OH246420   2.927   0.379   6.565 -0.3883 -0.2202 -0.5737
 8310TIP3    H146421   3.003   0.383   6.506  0.1808  0.3186  0.1773
 8310TIP3    H246422   2.894   0.469   6.567 -0.1685 -0.1533  0.2187
 8311TIP3   OH246423   5.024   4.134  12.750 -0.2630 -0.3807 -0.2357
 8311TIP3    H146424   5.040   4.140  12.656  0.9085  0.8585  0.0085
 8311TIP3    H246425   5.104   4.095  12.785  0.0574  0.8263  0.4239
 8312TIP3   OH246426   4.477   1.307  14.018  0.4419 -0.7301 -0.8523
 8312TIP3    H146427   4.516   1.227  13.983  0.1915 -0.7989 -0.9762
 8312TIP3    H246428   4.535   1.334  14.089  0.6097 -0.9364 -0.9139
 8313TIP3   OH246429   4.985   1.817   2.899  0.2020 -0.0745 -0.2415
 8313TIP3    H146430   4.998   1.732   2.858  2.0485  0.7886 -1.5888
 8313TIP3    H246431   4.907   1.853   2.857  0.5645 -0.2882 -1.1151
 8314TIP3   OH246432   1.061   4.019  16.450 -0.6288  0.0612 -0.4572
 8314TIP3    H146433   1.011   3.938  16.436 -1.3648  0.4481 -0.1178
 8314TIP3    H246434   1.078   4.021  16.544 -1.0385  0.5446 -0.3929
 8315TIP3   OH246435   4.035   2.690  17.077 -0.4066  0.5399  0.4493
 8315TIP3    H146436   4.028   2.601  17.042  1.5410 -0.1336  1.6597
 8315TIP3    H246437   3.964   2.695  17.142 -0.3236 -0.2624  0.6200
 8316TIP3   OH246438   6.386   2.247  13.323 -0.2980 -0.2786  0.7328
 8316TIP3    H146439   6.341   2.323  13.286 -1.0925 -1.4884 -0.8862
 8316TIP3    H246440   6.345   2.234  13.408 -4.0077 -1.9918 -1.0895
 8317TIP3   OH246441   6.531   5.763   1.095  0.0210 -0.3288 -0.1711
 8317TIP3    H146442   6.548   5.756   1.189 -0.5464 -0.0836 -0.0469
 8317TIP3    H246443   6.526   5.672   1.065  0.8460 -0.4076 -0.0882
 8318TIP3   OH246444   0.049   2.880   0.986 -0.3356  0.1080 -0.1244
 8318TIP3    H146445   0.015   2.885   1.075  0.0350 -0.8061  0.0708
 8318TIP3    H246446  -0.006   2.814   0.943 -0.5560  0.5921 -0.6020
 8319TIP3   OH246447   2.321   4.117   1.981  0.6532 -0.5199  0.2458
 8319TIP3    H146448   2.303   4.042   1.924  1.4269 -0.6619  0.1731
 8319TIP3    H246449   2.410   4.144   1.958  0.8502 -0.3616  1.1444
 8320TIP3   OH246450   3.394   4.952   4.378  0.2991  0.0741  0.2635
 8320TIP3    H146451   3.339   5.020   4.341  0.8498 -0.1441 -1.0414
 8320TIP3    H246452   3.382   4.877   4.318  0.4973 -0.6253  1.0782
 8321TIP3   OH246453   4.375   6.095   5.319 -0.0937  0.0566 -0.1086
 8321TIP3    H146454   4.456   6.128   5.359 -0.0794  0.7993 -0.7226
 8321TIP3    H246455   4.346   6.167   5.263 -1.9715  0.3848  1.2078
 8322TIP3   OH246456   2.588   5.123  11.539 -0.8047 -0.1054 -0.9110
 8322TIP3    H146457   2.598   5.098  11.631  1.2885  0.6050 -0.9041
 8322TIP3    H246458   2.532   5.201  11.541 -0.3392  0.2150 -0.1877
 8323TIP3   OH246459   3.107   2.871  16.387  0.2268  0.4637 -0.1766
 8323TIP3    H146460   3.119   2.864  16.482  0.9644 -3.3320 -0.4025
 8323TIP3    H246461   3.173   2.935  16.360  3.3609 -1.8198  1.4464
 8324TIP3   OH246462   1.399   5.566   3.761  0.0864 -0.7527 -0.5147
 8324TIP3    H146463   1.349   5.587   3.682  0.7756 -0.2432 -0.8221
 8324TIP3    H246464   1.475   5.516   3.729 -0.6116 -2.2254  0.0233
 8325TIP3   OH246465   0.836   0.998  13.702 -0.2870  0.3735 -0.6271
 8325TIP3    H146466   0.929   0.987  13.681 -0.4184 -2.0414 -0.2221
 8325TIP3    H246467   0.822   1.092  13.699  2.9766  1.2183  2.5081
 8326TIP3   OH246468   1.918   2.654   0.420 -0.0533 -0.1960  0.0585
 8326TIP3    H146469   1.957   2.582   0.371  0.2834 -0.2541  0.4027
 8326TIP3    H246470   1.896   2.615   0.505 -0.6679 -0.1094 -0.0570
 8327TIP3   OH246471   2.966   4.030   4.742  0.5863 -0.3315  0.2855
 8327TIP3    H146472   2.960   4.116   4.700  1.1247  0.1873  1.2406
 8327TIP3    H246473   3.040   4.038   4.802 -0.7567 -0.6895  2.0928
 8328TIP3   OH246474   4.225   2.370  13.676 -0.3666 -0.5455 -0.2939
 8328TIP3    H146475   4.216   2.286  13.632  0.5498 -0.7799 -0.0705
 8328TIP3    H246476   4.280   2.351  13.753  3.0147  0.8194 -2.1252
 8329TIP3   OH246477   4.576   3.078   2.216  0.1625 -1.1649  0.1821
 8329TIP3    H146478   4.609   3.149   2.161 -1.6842 -0.8746 -0.6346
 8329TIP3    H246479   4.530   3.020   2.155 -1.5895 -1.0469  1.3195
 8330TIP3   OH246480   4.753   5.273   6.682 -0.0558 -0.5589 -0.0362
 8330TIP3    H146481   4.802   5.220   6.746 -1.6791 -2.9341 -0.6200
 8330TIP3    H246482   4.731   5.353   6.729  1.2874 -0.9734  1.3944
 8331TIP3   OH246483   0.551   4.153   3.167  0.2965 -0.4991 -0.2701
 8331TIP3    H146484   0.542   4.065   3.203  0.2285  0.2390  1.5959
 8331TIP3    H246485   0.631   4.150   3.115  0.3376 -1.6337 -0.1592
 8332TIP3   OH246486   0.757   4.143  11.728  0.4080 -0.5522  0.0357
 8332TIP3    H146487   0.742   4.100  11.644 -0.4003 -2.2125  0.9721
 8332TIP3    H246488   0.778   4.072  11.788 -0.4970  0.3989  1.5645
 8333TIP3   OH246489   6.777   0.058  16.699 -0.5243  0.3567  0.5469
 8333TIP3    H146490   6.863   0.074  16.660  0.5437  0.9125  2.9258
 8333TIP3    H246491   6.740   0.145  16.711 -1.2599  0.1395 -0.0961
 8334TIP3   OH246492   2.078   4.029  11.309 -0.4485  0.6669  0.4958
 8334TIP3    H146493   2.013   3.983  11.255 -1.2736 -0.4157  2.3293
 8334TIP3    H246494   2.026   4.078  11.373  0.4550  3.3621 -0.7000
 8335TIP3   OH246495   4.076   1.448  11.768  0.4624 -0.6367 -0.9795
 8335TIP3    H146496   4.078   1.358  11.802 -0.2402 -0.8520 -1.4741
 8335TIP3    H246497   4.141   1.495  11.820 -1.7055 -0.4908  1.8870
 8336TIP3   OH246498   0.904   4.939   5.917 -0.7484  0.0425 -0.5751
 8336TIP3    H146499   0.997   4.962   5.920 -1.0124  1.1264 -0.4235
 8336TIP3    H246500   0.867   4.979   5.995 -2.0357  2.8917 -2.4588
 8337TIP3   OH246501   1.071   5.700   0.518  0.1604 -0.4063  0.4009
 8337TIP3    H146502   1.084   5.644   0.441 -0.4480 -0.7828  0.5655
 8337TIP3    H246503   1.125   5.777   0.501  1.1518 -1.1181  0.2393
 8338TIP3   OH246504   1.475   1.566  11.898 -0.3806  0.6367  0.3158
 8338TIP3    H146505   1.405   1.514  11.938  0.4784 -1.6067 -0.9027
 8338TIP3    H246506   1.432   1.614  11.827 -0.8591 -0.1187  0.0823
 8339TIP3   OH246507   5.846   1.370   1.037 -0.1552  0.1208  0.0201
 8339TIP3    H146508   5.895   1.385   0.956  0.9140 -0.3925  0.5564
 8339TIP3    H246509   5.911   1.381   1.107 -1.4520  2.5877  0.9747
 8340TIP3   OH246510   5.389   3.316   2.850  0.3259 -0.1183  0.6088
 8340TIP3    H146511   5.360   3.332   2.760  0.2063 -0.3923  0.5981
 8340TIP3    H246512   5.309   3.307   2.901  0.3837 -0.8439  0.5855
 8341TIP3   OH246513   0.578   5.217  14.554  0.1470 -0.8500 -0.0733
 8341TIP3    H146514   0.515   5.233  14.624 -0.5971 -2.6565 -0.2819
 8341TIP3    H246515   0.557   5.130  14.521  1.2444 -0.5319 -1.7681
 8342TIP3   OH246516   4.380   2.218  12.138  0.3697  0.0959  0.4262
 8342TIP3    H146517   4.343   2.297  12.177  0.2874 -0.6512  1.9064
 8342TIP3    H246518   4.475   2.234  12.139  0.3831  0.0090  1.1224
 8343TIP3   OH246519   3.192   5.544  13.095 -0.0574 -0.5393 -0.1376
 8343TIP3    H146520   3.211   5.630  13.058 -1.0990 -0.6695 -1.0104
 8343TIP3    H246521   3.250   5.537  13.171 -0.5659  1.2640  0.4429
 8344TIP3   OH246522   1.623   2.327   0.642  0.4081  0.6494  0.8136
 8344TIP3    H146523   1.635   2.255   0.704  0.0092  2.1935  2.7769
 8344TIP3    H246524   1.528   2.335   0.634  0.3120 -1.7412 -2.8385
 8345TIP3   OH246525   4.321   5.855  16.886  0.2468 -0.0573  0.4340
 8345TIP3    H146526   4.271   5.896  16.956  0.2222 -1.6572  1.4045
 8345TIP3    H246527   4.409   5.845  16.922  0.5828  0.3162 -0.2699
 8346TIP3   OH246528   4.726   3.100  14.104 -0.7983  0.0277  0.2164
 8346TIP3    H146529   4.634   3.107  14.079 -1.0737 -1.4501  0.6888
 8346TIP3    H246530   4.765   3.045  14.035  0.1365  1.9768 -0.8799
 8347TIP3   OH246531   2.158   1.132   1.807  0.3460 -0.2523  0.4088
 8347TIP3    H146532   2.206   1.190   1.867  1.4869  0.0756 -0.7803
 8347TIP3    H246533   2.194   1.045   1.826  0.2056 -0.2563  0.6699
 8348TIP3   OH246534   5.631   4.169   3.511  0.0215  0.1137  0.0104
 8348TIP3    H146535   5.659   4.259   3.492 -2.5138  1.3528  1.5929
 8348TIP3    H246536   5.626   4.128   3.424  3.0225  0.8017 -0.6217
 8349TIP3   OH246537   6.472   0.361   2.309 -0.2725 -0.6393  0.5691
 8349TIP3    H146538   6.461   0.382   2.216 -0.9144 -1.1495  0.5220
 8349TIP3    H246539   6.421   0.281   2.321 -4.2676  1.9093  2.4085
 8350TIP3   OH246540   4.236   3.002   5.890  0.1974 -0.2233 -0.6198
 8350TIP3    H146541   4.255   3.028   5.980 -0.2672 -0.6799 -0.3853
 8350TIP3    H246542   4.159   2.946   5.897 -0.4205  0.4912 -1.3983
 8351TIP3   OH246543   0.887   0.645   5.418 -0.1825  0.4881 -0.2249
 8351TIP3    H146544   0.902   0.709   5.487  1.8352 -1.9540  1.7899
 8351TIP3    H246545   0.798   0.613   5.434 -0.6254  1.6264 -0.3116
 8352TIP3   OH246546   1.680   5.138  11.058  0.3711 -0.4898  0.6158
 8352TIP3    H146547   1.588   5.121  11.039  1.0215 -2.5323 -1.2391
 8352TIP3    H246548   1.679   5.210  11.121 -2.4437 -0.0350  0.1961
 8353TIP3   OH246549   2.515   6.448   3.813 -0.7845 -0.4667 -0.1230
 8353TIP3    H146550   2.537   6.422   3.903 -0.5674 -1.7172 -0.5144
 8353TIP3    H246551   2.474   6.534   3.822  0.1608 -0.1182  1.0721
 8354TIP3   OH246552   1.617   1.214   2.888 -0.1613 -0.2981 -0.8779
 8354TIP3    H146553   1.620   1.137   2.944 -0.6060 -0.5458 -1.1927
 8354TIP3    H246554   1.635   1.287   2.947  4.5263 -0.9111 -1.2061
 8355TIP3   OH246555   1.950   4.530   4.122 -0.0891  0.2483 -0.8353
 8355TIP3    H146556   1.926   4.514   4.213  1.8992 -0.0540 -0.3073
 8355TIP3    H246557   1.975   4.443   4.088 -0.3710  0.4280 -1.5232
 8356TIP3   OH246558   2.468   1.827  16.841  0.2011  0.2038 -0.2924
 8356TIP3    H146559   2.441   1.856  16.929  0.2038  0.3544 -0.3420
 8356TIP3    H246560   2.558   1.798  16.853 -0.4427 -1.7408  0.2077
 8357TIP3   OH246561   5.204   6.271   4.103 -0.4116  0.3700 -0.2980
 8357TIP3    H146562   5.169   6.188   4.135 -2.8816  1.2913 -0.4136
 8357TIP3    H246563   5.237   6.251   4.015 -0.6348 -0.5432 -0.1826
 8358TIP3   OH246564   0.260   2.764   1.942 -0.5104 -0.3753 -0.3096
 8358TIP3    H146565   0.171   2.797   1.951  0.2313  1.6376  0.2387
 8358TIP3    H246566   0.272   2.751   1.848 -1.3144 -0.4958 -0.4034
 8359TIP3   OH246567   5.391   2.723   4.926 -0.2733  0.3684  0.2875
 8359TIP3    H146568   5.428   2.768   4.850  0.0372 -0.0641  0.1785
 8359TIP3    H246569   5.305   2.692   4.897 -0.4149  0.7318  0.3090
 8360TIP3   OH246570   3.994   6.524  11.752 -0.2843 -0.2456  0.1857
 8360TIP3    H146571   3.963   6.608  11.717  2.2828  0.9612  0.5512
 8360TIP3    H246572   4.089   6.535  11.758 -0.1987 -1.6861  4.0741
 8361TIP3   OH246573   3.062   4.976   2.202  0.4666  0.3634 -0.8397
 8361TIP3    H146574   3.047   5.024   2.283  0.8393 -2.3018  0.9233
 8361TIP3    H246575   3.007   5.021   2.137 -3.6020 -0.1176  1.9133
 8362TIP3   OH246576   2.908   5.404   6.106  0.3071 -0.1526 -0.3632
 8362TIP3    H146577   2.853   5.345   6.157 -0.3989  1.0162  0.2518
 8362TIP3    H246578   2.906   5.487   6.154  3.2201 -0.2511  0.1156
 8363TIP3   OH246579   3.695   2.768  16.060  0.2492 -0.1179  0.5453
 8363TIP3    H146580   3.680   2.682  16.019  1.3146 -0.3525  0.6283
 8363TIP3    H246581   3.625   2.823  16.025 -1.8486 -1.5652  2.2102
 8364TIP3   OH246582   5.028   1.187   2.095 -0.4526 -0.1602  0.1342
 8364TIP3    H146583   4.994   1.254   2.154 -2.3789  0.0624 -1.1247
 8364TIP3    H246584   4.989   1.208   2.010  1.4888 -1.0066 -1.0309
 8365TIP3   OH246585   5.981   0.183   4.022  0.0468  0.7301  0.2375
 8365TIP3    H146586   6.068   0.158   3.989 -0.6953  0.9004 -2.0609
 8365TIP3    H246587   5.960   0.116   4.087  0.6197 -1.1868 -1.4263
 8366TIP3   OH246588   1.989   3.307   3.461  0.0382  0.2679 -0.6393
 8366TIP3    H146589   1.988   3.350   3.375  2.3681  0.1756 -0.7637
 8366TIP3    H246590   2.027   3.372   3.520  1.5185 -0.7749 -0.3870
 8367TIP3   OH246591   2.907   2.079  15.490 -0.1704 -0.3737  0.3390
 8367TIP3    H146592   2.886   2.172  15.489 -1.3640 -0.6205 -0.4010
 8367TIP3    H246593   2.982   2.071  15.549 -1.4997  0.7401  2.2655
 8368TIP3   OH246594   5.762   1.285   5.336  0.1458  0.3730 -0.3417
 8368TIP3    H146595   5.798   1.373   5.321  3.4459 -1.2468 -3.0722
 8368TIP3    H246596   5.721   1.262   5.253  0.9864 -1.3470 -0.3048
 8369TIP3   OH246597   1.249   1.341  16.750  0.5142  0.2463  0.2318
 8369TIP3    H146598   1.281   1.251  16.742 -0.8270 -0.3218  0.9286
 8369TIP3    H246599   1.253   1.376  16.661  0.2672 -0.7982 -0.2090
 8370TIP3   OH246600   2.821   3.326  16.091  0.1788  0.4163 -0.5215
 8370TIP3    H146601   2.803   3.293  16.003  0.9343 -0.6402 -0.2938
 8370TIP3    H246602   2.746   3.297  16.143  0.2107  0.1802 -0.6050
 8371TIP3   OH246603   3.520   4.005   2.608 -0.2362  0.1252  0.0208
 8371TIP3    H146604   3.502   4.062   2.682  1.3374 -0.2420  0.7315
 8371TIP3    H246605   3.434   3.985   2.571 -1.2037 -0.7734  2.5636
 8372TIP3   OH246606   1.336   4.132   0.229  0.3291  0.3074 -0.1028
 8372TIP3    H146607   1.365   4.068   0.164 -2.2704 -0.7258 -0.3858
 8372TIP3    H246608   1.309   4.208   0.177 -0.8528 -0.1520 -0.1836
 8373TIP3   OH246609   1.127   1.180  14.991  0.2184  0.4607  0.2577
 8373TIP3    H146610   1.088   1.118  14.930  0.0691  1.2262 -0.4469
 8373TIP3    H246611   1.197   1.223  14.941 -0.5102  1.7582  0.3172
 8374TIP3   OH246612   6.573   0.310  16.227 -0.0825 -0.5842 -0.0824
 8374TIP3    H146613   6.668   0.321  16.235 -0.0083  0.1834 -1.6244
 8374TIP3    H246614   6.561   0.215  16.216  0.5687 -0.6323 -0.4365
 8375TIP3   OH246615   2.099   6.401   2.757  0.0495 -0.2880 -0.0401
 8375TIP3    H146616   2.118   6.400   2.851 -0.4273 -0.0689  0.0615
 8375TIP3    H246617   2.012   6.362   2.749 -0.3421  0.6066 -0.2876
 8376TIP3   OH246618   4.092   2.530   5.997 -0.0433 -0.0562  0.1783
 8376TIP3    H146619   4.152   2.455   6.002 -2.2933 -1.9484  0.2881
 8376TIP3    H246620   4.084   2.561   6.087  6.5128  5.4026 -0.2389
 8377TIP3   OH246621   5.605   2.984   3.212 -0.4673 -0.3012  0.4881
 8377TIP3    H146622   5.594   2.937   3.295  0.4394 -1.2999  0.0506
 8377TIP3    H246623   5.677   3.045   3.229 -1.7992  1.1980  1.1333
 8378TIP3   OH246624   6.147   4.614   5.318 -0.1445  0.3746 -0.1587
 8378TIP3    H146625   6.161   4.670   5.394 -0.1002 -0.1808  0.2523
 8378TIP3    H246626   6.121   4.529   5.355 -0.5890  0.2337 -0.7795
 8379TIP3   OH246627   0.059   2.268  14.485  0.5900 -0.4673 -0.2152
 8379TIP3    H146628   0.079   2.252  14.577 -0.8937 -0.4481  0.1311
 8379TIP3    H246629   0.042   2.362  14.480  1.4540 -0.3248 -0.6840
 8380TIP3   OH246630   4.175   6.027  13.589  0.1033 -0.4649 -0.7447
 8380TIP3    H146631   4.091   6.027  13.543 -0.1491 -1.7422 -0.3363
 8380TIP3    H246632   4.180   6.113  13.631 -1.4724 -0.7211  0.0421
 8381TIP3   OH246633   5.895   1.691  11.554  0.1535  0.0492  0.5013
 8381TIP3    H146634   5.830   1.678  11.485  0.3070 -0.3424  0.4304
 8381TIP3    H246635   5.971   1.727  11.508  0.1392  0.0999  0.5169
 8382TIP3   OH246636   1.057   0.916  13.325  0.1314 -0.4683 -0.1269
 8382TIP3    H146637   1.080   0.970  13.249  3.1212 -3.0803 -1.2894
 8382TIP3    H246638   0.975   0.873  13.300 -0.1158  0.4330 -0.9054
 8383TIP3   OH246639   3.553   5.271   5.523 -0.1849  0.0532  0.3995
 8383TIP3    H146640   3.517   5.249   5.608  2.2743 -0.3032  1.4277
 8383TIP3    H246641   3.598   5.355   5.536 -0.9963  0.7318 -0.9358
 8384TIP3   OH246642   6.092   5.739   0.658  0.0351  0.1664  0.8794
 8384TIP3    H146643   6.087   5.834   0.671  1.8303  0.5904 -0.9732
 8384TIP3    H246644   6.004   5.714   0.631 -0.9067  0.9799  2.9835
 8385TIP3   OH246645   3.012   2.054   4.424  0.1021  0.1911  0.4982
 8385TIP3    H146646   3.095   2.008   4.434 -0.3471 -0.4903  1.1817
 8385TIP3    H246647   2.945   1.987   4.438 -0.5695  0.9014  0.7694
 8386TIP3   OH246648   0.205   1.148   5.653 -0.5123 -0.0399 -0.5267
 8386TIP3    H146649   0.300   1.144   5.644 -0.1954 -0.3413  2.0268
 8386TIP3    H246650   0.182   1.237   5.627  0.0931 -0.6240 -3.3590
 8387TIP3   OH246651   5.800   3.473   5.437  0.5847 -0.3972  0.0327
 8387TIP3    H146652   5.884   3.435   5.462 -0.2604 -1.3235  1.6207
 8387TIP3    H246653   5.780   3.436   5.351  1.7402 -0.2157 -0.3303
 8388TIP3   OH246654   2.488   4.712   3.639 -0.1032  0.0315 -0.1195
 8388TIP3    H146655   2.509   4.743   3.551  0.3510  0.8763  0.2778
 8388TIP3    H246656   2.534   4.773   3.698  1.1905 -1.6691  0.6985
 8389TIP3   OH246657   0.261   0.041   4.595 -0.1945 -0.1365 -0.3999
 8389TIP3    H146658   0.332  -0.018   4.619  1.6784  2.2666  0.3311
 8389TIP3    H246659   0.264   0.110   4.660 -0.7123  2.0199 -2.5096
 8390TIP3   OH246660   1.599   2.264   4.679  0.1134  0.1681  0.0278
 8390TIP3    H146661   1.666   2.209   4.639  0.1274 -0.6798  1.1681
 8390TIP3    H246662   1.521   2.251   4.624  0.7399  0.7818 -1.0189
 8391TIP3   OH246663   5.850   6.545   2.651 -0.1210 -0.0652 -0.0808
 8391TIP3    H146664   5.755   6.540   2.651 -0.0837 -3.3213  1.8822
 8391TIP3    H246665   5.875   6.534   2.743  2.1820 -1.6800 -0.8048
 8392TIP3   OH246666   2.323   3.897  11.206  0.1951 -0.4525  0.2514
 8392TIP3    H146667   2.246   3.943  11.238 -0.3798 -1.2002 -0.0232
 8392TIP3    H246668   2.336   3.929  11.116  0.3026 -0.2143  0.3506
 8393TIP3   OH246669   2.029   2.143  17.220  0.7687 -0.2435  0.3838
 8393TIP3    H146670   1.993   2.067  17.266 -0.0989 -2.0213 -2.9199
 8393TIP3    H246671   2.073   2.107  17.144  0.0338  2.5417 -1.5496
 8394TIP3   OH246672   2.043   1.521  11.170  0.1441  0.2891 -0.3194
 8394TIP3    H146673   2.036   1.573  11.249 -1.1589 -0.1667 -0.1162
 8394TIP3    H246674   2.135   1.493  11.168  0.4083  1.0500  0.5306
 8395TIP3   OH246675   5.100   3.683   0.871  0.4086  0.2122 -0.0202
 8395TIP3    H146676   5.084   3.720   0.958  0.5539  0.2091  0.0084
 8395TIP3    H246677   5.144   3.754   0.824 -3.2692  1.8426 -1.4525
 8396TIP3   OH246678   5.040   5.922  12.498 -0.6932 -0.4947  0.1309
 8396TIP3    H146679   5.060   5.989  12.432 -0.0718 -0.0957  0.7047
 8396TIP3    H246680   5.106   5.854  12.484  0.7498  0.5065  1.5821
 8397TIP3   OH246681   0.466   0.935  10.832  0.0790 -0.6570  0.1201
 8397TIP3    H146682   0.414   0.913  10.909  1.5622  0.6607  1.5777
 8397TIP3    H246683   0.527   0.862  10.822 -1.6736 -2.0276 -1.3743
 8398TIP3   OH246684   3.314   1.420   2.707  0.2708 -0.6215  0.0934
 8398TIP3    H146685   3.223   1.393   2.722 -0.3836  2.1715  1.7688
 8398TIP3    H246686   3.366   1.349   2.745 -1.2080 -1.7308  0.1527
 8399TIP3   OH246687   3.624   5.901  16.105  0.6956 -0.2966  0.4548
 8399TIP3    H146688   3.705   5.936  16.141  1.3934 -3.3176  2.1735
 8399TIP3    H246689   3.651   5.855  16.025  0.7866 -1.5070  1.1529
 8400TIP3   OH246690   1.572   2.883   1.512 -0.2954 -0.4842 -0.1756
 8400TIP3    H146691   1.645   2.853   1.566 -0.3178  1.2098  0.8881
 8400TIP3    H246692   1.592   2.852   1.424  1.2975 -0.7201  0.2464
 8401TIP3   OH246693   1.345   5.247  15.119  0.3085  0.0366 -0.0098
 8401TIP3    H146694   1.256   5.216  15.135  0.4165  0.6034  1.9284
 8401TIP3    H246695   1.401   5.173  15.141  0.3475 -0.4299 -1.5439
 8402TIP3   OH246696   5.323   0.492   3.811  0.3288 -0.0217  0.5126
 8402TIP3    H146697   5.291   0.448   3.732  1.6634 -1.0772  0.5163
 8402TIP3    H246698   5.412   0.519   3.788  0.5499  0.1068  1.4957
 8403TIP3   OH246699   3.149   3.888  14.968  0.5740  0.0913  0.0349
 8403TIP3    H146700   3.087   3.948  15.010 -1.8170 -2.5044  0.4909
 8403TIP3    H246701   3.138   3.906  14.874  0.4120  0.8142  0.1791
 8404TIP3   OH246702   3.063   5.228  14.721 -0.1684 -0.0279  0.5201
 8404TIP3    H146703   2.995   5.182  14.769 -0.6007  0.8231  0.7409
 8404TIP3    H246704   3.108   5.159  14.671 -1.0896 -0.6207  0.4850
 8405TIP3   OH246705   3.064   0.301   5.071 -0.0297 -0.3191 -0.4871
 8405TIP3    H146706   3.071   0.312   5.166  1.2231  2.1229 -0.7513
 8405TIP3    H246707   2.979   0.260   5.057 -1.3305  1.4174  1.6093
 8406TIP3   OH246708   2.021   5.207  15.157  0.5559 -0.1201  0.4761
 8406TIP3    H146709   2.075   5.285  15.151 -0.4905  0.5042 -1.4676
 8406TIP3    H246710   1.939   5.237  15.197 -0.1079 -0.0410 -0.8916
 8407TIP3   OH246711   4.159   5.758   6.067  0.3672  0.2654 -0.2975
 8407TIP3    H146712   4.126   5.759   6.157 -2.0223 -2.2446 -1.0050
 8407TIP3    H246713   4.201   5.673   6.058  1.0129  0.6784 -1.4432
 8408TIP3   OH246714   4.360   6.599   0.176  0.3835 -0.5580 -0.4315
 8408TIP3    H146715   4.381   6.666   0.241 -1.3669 -0.5116  0.1475
 8408TIP3    H246716   4.339   6.648   0.096 -1.5153 -0.3085  0.1648
 8409TIP3   OH246717   6.613   6.322  15.081 -0.4557 -0.0085  0.2125
 8409TIP3    H146718   6.658   6.265  15.019  0.2320  1.4216 -0.6748
 8409TIP3    H246719   6.683   6.358  15.136 -0.8063  0.3709  0.4214
 8410TIP3   OH246720   1.322   2.829  12.016  0.3743  0.0249 -0.0496
 8410TIP3    H146721   1.290   2.740  12.023 -1.7967  0.5672 -2.0171
 8410TIP3    H246722   1.248   2.884  12.042  0.1623  1.2813 -2.9131
 8411TIP3   OH246723   3.909   2.507   3.903 -0.0201 -0.0489 -0.4714
 8411TIP3    H146724   3.927   2.599   3.921 -0.6035  0.0620 -0.4415
 8411TIP3    H246725   3.988   2.476   3.858  0.4736  0.2802  0.1386
 8412TIP3   OH246726   2.885   4.092   0.605  0.2577 -0.2113 -0.1167
 8412TIP3    H146727   2.862   4.160   0.667 -0.3599 -0.9630  0.5044
 8412TIP3    H246728   2.971   4.117   0.572  0.3432  0.4947  0.6246
 8413TIP3   OH246729   1.143   0.233  12.110 -0.6361 -0.3393  0.1835
 8413TIP3    H146730   1.109   0.309  12.156 -1.1273 -0.7883  0.5750
 8413TIP3    H246731   1.102   0.236  12.024  0.1872  0.4306 -0.2031
 8414TIP3   OH246732   2.903   3.280  15.631 -0.4568  0.0830  0.0865
 8414TIP3    H146733   2.842   3.273  15.558 -0.7830 -0.3214  0.3890
 8414TIP3    H246734   2.989   3.262  15.593 -0.4450  1.1936 -0.4465
 8415TIP3   OH246735   5.619   0.708  13.761 -0.0742 -0.1810 -0.6672
 8415TIP3    H146736   5.602   0.711  13.854  1.2872  1.1707 -0.4193
 8415TIP3    H246737   5.542   0.666  13.723 -0.8070 -0.4082  1.0077
 8416TIP3   OH246738   6.662   4.879   3.184  0.3324 -0.2464 -0.2079
 8416TIP3    H146739   6.665   4.838   3.270 -0.3757  0.3042  0.0950
 8416TIP3    H246740   6.589   4.942   3.190  0.4362 -0.0213 -1.1229
 8417TIP3   OH246741   6.379   2.663  13.731  0.3662 -0.4082  0.0610
 8417TIP3    H146742   6.440   2.737  13.732  0.2586 -0.3245  0.4169
 8417TIP3    H246743   6.296   2.700  13.703  0.8917 -0.8524 -2.3642
 8418TIP3   OH246744   4.833   1.139  16.461  0.1763  0.1312  0.1101
 8418TIP3    H146745   4.848   1.086  16.383  0.9391  0.2100  0.1963
 8418TIP3    H246746   4.823   1.075  16.532 -2.7484 -0.0721 -0.3316
 8419TIP3   OH246747   0.331   6.106  11.958  0.4645 -0.1707 -0.0582
 8419TIP3    H146748   0.305   6.023  11.917 -0.8415 -0.0671  0.5161
 8419TIP3    H246749   0.297   6.173  11.899 -2.2131 -0.0026  1.5539
 8420TIP3   OH246750   6.596   5.986  16.336  0.2022 -0.5847 -0.4845
 8420TIP3    H146751   6.538   6.043  16.285 -0.1996 -1.3896 -0.9676
 8420TIP3    H246752   6.536   5.934  16.389  0.6701  1.4962  2.2744
 8421TIP3   OH246753   1.577   0.176  14.392 -0.0796 -0.2945 -0.6893
 8421TIP3    H146754   1.670   0.162  14.374 -0.1958 -0.7912 -0.9516
 8421TIP3    H246755   1.533   0.132  14.319 -0.5721 -2.3908  0.7820
 8422TIP3   OH246756   3.436   5.964   3.624 -0.1678 -0.0869 -0.6668
 8422TIP3    H146757   3.505   5.994   3.683  1.3338 -0.8589 -1.9693
 8422TIP3    H246758   3.402   6.043   3.583  0.0210  0.2892 -0.0931
 8423TIP3   OH246759   5.902   1.761  13.127  0.3141  1.1395 -0.2718
 8423TIP3    H146760   5.886   1.722  13.041  1.2435  0.0168  0.0410
 8423TIP3    H246761   5.841   1.835  13.131 -0.0996  0.9116 -1.6847
 8424TIP3   OH246762   5.387   2.229   4.356  0.2427 -0.1999  0.1087
 8424TIP3    H146763   5.437   2.211   4.436 -0.2845 -1.0405  0.2539
 8424TIP3    H246764   5.324   2.296   4.382  0.3523 -0.1614  0.2815
 8425TIP3   OH246765   2.600   3.642  16.117  0.5332  0.5513  0.0882
 8425TIP3    H146766   2.589   3.642  16.212 -0.0981 -1.0604  0.0468
 8425TIP3    H246767   2.522   3.597  16.084  0.8526  0.8898 -1.1835
 8426TIP3   OH246768   2.854   0.654   6.627  0.0248  0.3115 -0.1462
 8426TIP3    H146769   2.789   0.722   6.643  0.6626  0.9757 -0.3295
 8426TIP3    H246770   2.934   0.702   6.606  1.0438 -0.4300  1.7641
 8427TIP3   OH246771   0.976   0.604  11.160 -0.4845 -0.1914 -0.1624
 8427TIP3    H146772   0.990   0.601  11.254 -0.1226  0.7340 -0.1764
 8427TIP3    H246773   0.900   0.662  11.149 -1.5096 -1.5316 -0.3568
 8428TIP3   OH246774   5.309   0.451   0.762 -0.0152  0.1099 -0.2010
 8428TIP3    H146775   5.223   0.461   0.720 -1.4681 -1.1015  2.2524
 8428TIP3    H246776   5.336   0.362   0.741  0.7417  0.5269 -1.0645
 8429TIP3   OH246777   1.927   6.770   5.045 -0.1681 -0.1002 -0.2293
 8429TIP3    H146778   1.875   6.840   5.005 -1.0944 -0.7845 -0.2546
 8429TIP3    H246779   1.968   6.811   5.121  1.6153  1.2275 -1.8015
 8430TIP3   OH246780   5.515   4.109  13.345 -0.8959 -0.4249 -0.0146
 8430TIP3    H146781   5.582   4.171  13.375 -0.3068 -0.9787 -0.1573
 8430TIP3    H246782   5.501   4.131  13.253  1.3119 -2.2004 -0.8627
 8431TIP3   OH246783   1.506   2.008  15.565 -0.1537  0.2977  1.0703
 8431TIP3    H146784   1.588   2.040  15.602  0.5533  0.1469 -0.3196
 8431TIP3    H246785   1.456   1.979  15.641  0.9272  0.7153  1.9741
 8432TIP3   OH246786   1.806   1.780  11.053  0.2071  1.8694 -0.2100
 8432TIP3    H146787   1.748   1.704  11.041  1.6870  0.5437  0.6606
 8432TIP3    H246788   1.812   1.791  11.147  1.8402  1.5793 -0.2539
 8433TIP3   OH246789   0.459   1.618  12.066 -0.3306  0.4347  0.3317
 8433TIP3    H146790   0.378   1.668  12.073 -0.3095  0.7118 -1.1557
 8433TIP3    H246791   0.529   1.683  12.071 -0.3216  0.9413 -3.4319
 8434TIP3   OH246792   1.976   3.489  10.335 -0.8099  0.1514 -0.4003
 8434TIP3    H146793   1.997   3.484  10.242 -1.0628  1.8777 -0.5965
 8434TIP3    H246794   2.060   3.479  10.380 -0.8331 -1.8970 -0.7101
 8435TIP3   OH246795   3.723   6.216   0.375  0.4611 -0.8349 -0.4031
 8435TIP3    H146796   3.727   6.310   0.355  1.5857 -0.9629 -0.8578
 8435TIP3    H246797   3.787   6.177   0.316 -0.7751 -2.0355 -0.9810
 8436TIP3   OH246798   5.613   3.239   1.573 -0.1251  0.6703  0.3890
 8436TIP3    H146799   5.598   3.158   1.526  0.6734  0.5858  0.2638
 8436TIP3    H246800   5.610   3.214   1.666 -0.7413  0.6612  0.3683
 8437TIP3   OH246801   2.308   6.029   0.774  0.1789  0.1062  0.5976
 8437TIP3    H146802   2.271   6.067   0.695 -0.6088 -1.0189  0.4054
 8437TIP3    H246803   2.384   6.083   0.793  0.6668  0.1131 -1.2009
 8438TIP3   OH246804   3.781   5.429  16.496  0.4953 -0.0238 -0.3929
 8438TIP3    H146805   3.776   5.363  16.426  0.7126 -0.9810  0.4727
 8438TIP3    H246806   3.765   5.512  16.451 -1.7647 -0.8157 -1.2258
 8439TIP3   OH246807   5.627   2.623   5.332 -0.2548  0.2305  0.1135
 8439TIP3    H146808   5.658   2.704   5.293 -0.3472 -0.3451 -1.2073
 8439TIP3    H246809   5.706   2.574   5.354 -0.1253 -0.8941 -2.5209
 8440TIP3   OH246810   0.363   6.057   1.752 -0.0940 -0.6826 -0.1472
 8440TIP3    H146811   0.409   6.065   1.836 -1.3519 -0.1726  0.5276
 8440TIP3    H246812   0.424   6.010   1.695  0.1468 -2.5599  1.5532
 8441TIP3   OH246813   0.936   3.572   2.688  0.1675  0.3373  0.2399
 8441TIP3    H146814   0.919   3.493   2.637  0.7690  0.3239  0.0613
 8441TIP3    H246815   0.938   3.642   2.623 -3.0476  0.9620  0.6112
 8442TIP3   OH246816   0.798   0.322  15.127  0.4821 -0.4763  0.0172
 8442TIP3    H146817   0.780   0.236  15.088 -0.1735  0.0943 -0.9794
 8442TIP3    H246818   0.878   0.309  15.177 -0.5573 -2.1274  1.3610
 8443TIP3   OH246819   5.507   4.121  11.594 -0.2024 -0.6564 -0.1359
 8443TIP3    H146820   5.601   4.133  11.597 -0.3703  0.6012  2.3314
 8443TIP3    H246821   5.471   4.203  11.627 -2.2730 -0.4728 -2.5247
 8444TIP3   OH246822   6.465   5.424  13.412  0.4854 -0.2001  0.0393
 8444TIP3    H146823   6.559   5.421  13.392  0.3345  0.3864 -0.7771
 8444TIP3    H246824   6.462   5.427  13.508  1.2859 -0.6138  0.0892
 8445TIP3   OH246825   2.529   1.609  12.829  1.0504 -0.6122 -1.0286
 8445TIP3    H146826   2.568   1.575  12.909  0.1719 -0.1102 -0.3732
 8445TIP3    H246827   2.445   1.647  12.857 -1.1481 -3.7834 -2.6573
 8446TIP3   OH246828   3.162   6.578  11.066 -0.2897 -0.5691 -0.2792
 8446TIP3    H146829   3.165   6.635  10.988  0.7769 -0.4786 -0.1893
 8446TIP3    H246830   3.205   6.497  11.038  1.3071 -0.0637  0.5525
 8447TIP3   OH246831   4.225   6.630  14.679  0.6078 -0.5916 -0.3758
 8447TIP3    H146832   4.255   6.676  14.758 -0.4355 -0.7407  0.1212
 8447TIP3    H246833   4.176   6.555  14.712  0.6798 -1.0031 -1.1839
 8448TIP3   OH246834   3.902   2.418  13.836 -0.3264 -1.1162 -0.1120
 8448TIP3    H146835   3.994   2.394  13.845  0.3462  1.5136  0.9615
 8448TIP3    H246836   3.856   2.356  13.892  1.3335  0.0556  2.7998
 8449TIP3   OH246837   3.962   0.457   4.460  0.4231  0.5284  0.8034
 8449TIP3    H146838   3.934   0.511   4.386 -0.0896 -1.2821 -0.3939
 8449TIP3    H246839   3.902   0.481   4.531 -0.2808  1.0033  0.0732
 8450TIP3   OH246840   0.556   1.186  14.090 -0.0938 -0.1092 -0.2524
 8450TIP3    H146841   0.635   1.235  14.068  0.3075 -1.1355 -1.1762
 8450TIP3    H246842   0.534   1.138  14.010 -1.5207 -0.0289  0.0521
 8451TIP3   OH246843   6.132   6.559  12.644 -0.2670  0.6806 -0.3080
 8451TIP3    H146844   6.150   6.651  12.661 -1.5264  1.2663 -1.8797
 8451TIP3    H246845   6.048   6.559  12.598 -1.1258 -1.3863  1.0810
 8452TIP3   OH246846   3.693   3.195   5.766 -0.3570 -0.2236 -0.5214
 8452TIP3    H146847   3.756   3.267   5.762 -0.8969  0.3338  0.4852
 8452TIP3    H246848   3.734   3.131   5.824 -0.6106  0.0506 -0.0282
 8453TIP3   OH246849   2.224   1.384  13.276 -0.3052  0.4336 -0.3299
 8453TIP3    H146850   2.240   1.296  13.242 -0.7130 -0.8728  2.5981
 8453TIP3    H246851   2.311   1.424  13.280 -0.3197  1.0728 -3.6496
 8454TIP3   OH246852   4.340   6.488  13.844  0.3086  0.3446  0.7187
 8454TIP3    H146853   4.366   6.524  13.760 -0.9526  1.1331  0.6404
 8454TIP3    H246854   4.358   6.394  13.837 -0.4397  0.2784 -0.7016
 8455TIP3   OH246855   6.014   4.116   1.759 -0.2379 -0.3230  0.2951
 8455TIP3    H146856   6.027   4.186   1.823 -2.6606 -0.1575  0.7142
 8455TIP3    H246857   5.920   4.120   1.738  0.0182 -1.9305 -1.4625
 8456TIP3   OH246858   1.090   0.052   3.690  0.1383 -0.4441  0.0801
 8456TIP3    H146859   1.034   0.028   3.616 -0.0403  2.1557 -0.7243
 8456TIP3    H246860   1.051   0.006   3.765 -2.8949  0.9204 -0.5157
 8457TIP3   OH246861   1.801   0.501  13.816  0.4273  0.2236  0.3066
 8457TIP3    H146862   1.711   0.490  13.785  0.8747 -1.5302 -0.5108
 8457TIP3    H246863   1.854   0.448  13.756  2.1184  1.7608  0.3378
 8458TIP3   OH246864   3.441   1.100   4.833  0.3935 -0.9883 -0.0906
 8458TIP3    H146865   3.481   1.161   4.896  1.3968  0.8274 -2.3428
 8458TIP3    H246866   3.504   1.028   4.826  1.0274 -0.4417 -0.1293
 8459TIP3   OH246867   3.750   0.855   0.777  0.4278  0.4882  0.2196
 8459TIP3    H146868   3.824   0.910   0.750 -1.3349  2.5677 -0.6968
 8459TIP3    H246869   3.740   0.871   0.870  1.3844 -0.1851  0.4549
 8460TIP3   OH246870   4.006   4.565  16.923  0.0006 -0.5849  0.2559
 8460TIP3    H146871   4.078   4.575  16.861 -0.3806  0.3402 -0.0446
 8460TIP3    H246872   3.964   4.651  16.926 -1.2096 -1.1627  0.2927
 8461TIP3   OH246873   6.310   1.616   5.370  0.2515 -0.2540 -0.0414
 8461TIP3    H146874   6.291   1.563   5.448  0.2871 -1.7056 -0.9861
 8461TIP3    H246875   6.388   1.576   5.332 -0.8408 -0.7906 -1.8539
 8462TIP3   OH246876   3.851   1.830   1.741  0.9684 -0.1206 -0.9634
 8462TIP3    H146877   3.883   1.834   1.651 -0.4588 -0.1442 -1.4832
 8462TIP3    H246878   3.758   1.809   1.734  0.8253 -0.1249  0.5167
 8463TIP3   OH246879   3.394   1.280  14.027 -0.5744 -0.7750 -0.6430
 8463TIP3    H146880   3.388   1.203  14.084 -0.2294  0.8034  1.6903
 8463TIP3    H246881   3.487   1.295  14.016 -0.5209  0.9737  1.4934
 8464TIP3   OH246882   2.782   2.764  12.546  0.0828  0.0139 -0.3444
 8464TIP3    H146883   2.824   2.679  12.563  0.3166  0.0416 -0.7716
 8464TIP3    H246884   2.856   2.825  12.538 -0.0490  0.1201 -0.7806
 8465TIP3   OH246885   2.282   1.388  14.086  0.3734 -0.3818  0.1798
 8465TIP3    H146886   2.374   1.380  14.060 -0.4470 -1.0344 -2.9712
 8465TIP3    H246887   2.243   1.446  14.021 -0.9991  2.1733  3.0333
 8466TIP3   OH246888   5.087   2.772   4.083  0.1800  0.3173  0.3191
 8466TIP3    H146889   5.091   2.840   4.015  1.5276 -0.3676 -0.3270
 8466TIP3    H246890   5.098   2.820   4.165  0.1715  0.9926 -0.0626
 8467TIP3   OH246891   4.263   0.360   3.230 -0.1699  0.7878  0.0562
 8467TIP3    H146892   4.293   0.297   3.296 -1.5165 -0.6345 -0.6198
 8467TIP3    H246893   4.253   0.442   3.278 -1.4496 -0.2749  1.7305
 8468TIP3   OH246894   4.550   1.391  14.785 -0.4489 -0.4520 -0.1650
 8468TIP3    H146895   4.605   1.456  14.828 -0.8697  0.2186 -0.6149
 8468TIP3    H246896   4.505   1.346  14.857  1.2230 -1.5383  0.2585
 8469TIP3   OH246897   3.046   4.703   4.551  0.3052  0.3559  0.4835
 8469TIP3    H146898   3.081   4.670   4.634  0.2028 -2.1465 -0.3953
 8469TIP3    H246899   3.075   4.640   4.486 -0.2812  1.8469 -1.3051
 8470TIP3   OH246900   0.732   4.511   4.857 -0.1159 -0.3587  0.3360
 8470TIP3    H146901   0.638   4.496   4.871 -0.4433  1.0319 -0.2235
 8470TIP3    H246902   0.737   4.599   4.819  1.3479 -0.7893 -0.5386
 8471TIP3   OH246903   6.301   4.326   1.082  0.0037  0.3980  0.5876
 8471TIP3    H146904   6.303   4.422   1.089  0.6641  0.3896  0.5669
 8471TIP3    H246905   6.214   4.302   1.115 -0.6608  1.0920 -0.5828
 8472TIP3   OH246906   3.810   3.683  15.703  0.1214 -0.1086  0.3792
 8472TIP3    H146907   3.798   3.713  15.793  0.2827 -1.3702  0.8362
 8472TIP3    H246908   3.728   3.705  15.660  0.1869  0.8589  0.7225
 8473TIP3   OH246909   0.234   3.865  12.990 -0.2650 -0.5771 -0.6990
 8473TIP3    H146910   0.217   3.880  12.897 -0.2698 -2.1044 -0.9586
 8473TIP3    H246911   0.256   3.772  12.996  0.2174 -0.3897  0.7620
 8474TIP3   OH246912   6.243   3.801   5.142 -0.3194  0.0433  0.1856
 8474TIP3    H146913   6.217   3.721   5.097 -1.2388  0.4491 -0.0250
 8474TIP3    H246914   6.322   3.777   5.191 -0.0266 -0.7294 -0.6440
 8475TIP3   OH246915   3.522   2.352   0.364  0.8645  0.3431  0.4360
 8475TIP3    H146916   3.563   2.269   0.389  0.7212  0.0421 -0.2964
 8475TIP3    H246917   3.532   2.408   0.441 -1.2501 -1.1449  1.9137
 8476TIP3   OH246918   3.505   1.688  14.582 -0.0117  0.0842 -0.0774
 8476TIP3    H146919   3.488   1.662  14.492  0.3523 -0.7923  0.0903
 8476TIP3    H246920   3.418   1.706  14.619 -0.1473  0.6086 -0.6391
 8477TIP3   OH246921   1.988   5.054   3.237  0.3435 -0.1732 -0.6339
 8477TIP3    H146922   2.058   5.026   3.296  0.2597 -0.9827 -0.9137
 8477TIP3    H246923   1.956   4.973   3.197 -0.3480  0.2516 -0.9595
 8478TIP3   OH246924   1.281   3.426  11.138 -0.2238 -0.3569 -0.4979
 8478TIP3    H146925   1.222   3.500  11.146  0.5658  0.5765 -2.4947
 8478TIP3    H246926   1.362   3.463  11.104  1.2026 -1.7472  1.1684
 8479TIP3   OH246927   4.232   1.839  11.725  0.7818  0.4277  0.2953
 8479TIP3    H146928   4.256   1.788  11.803 -0.1484 -0.4634  0.0141
 8479TIP3    H246929   4.264   1.787  11.651 -1.9098 -0.8173 -0.0993
 8480TIP3   OH246930   1.869   4.100  14.346  0.6160  0.6325 -0.4032
 8480TIP3    H146931   1.927   4.129  14.276 -0.4832  0.2108 -1.5000
 8480TIP3    H246932   1.889   4.159  14.419  1.2522  1.5411 -1.2889
 8481TIP3   OH246933   3.833   3.927  11.781 -0.4842 -0.3474 -0.1109
 8481TIP3    H146934   3.745   3.890  11.775 -0.9726  0.7842 -0.1207
 8481TIP3    H246935   3.840   3.959  11.871 -1.0582  1.8872 -0.8141
 8482TIP3   OH246936   5.537   3.652  10.626 -0.0840  1.1173  0.3553
 8482TIP3    H146937   5.611   3.603  10.590 -0.5167  0.9724 -0.3652
 8482TIP3    H246938   5.577   3.718  10.683  0.4663 -0.5957  2.0260
 8483TIP3   OH246939   3.104   3.409   3.086 -0.0790 -0.0503 -0.1007
 8483TIP3    H146940   3.110   3.449   3.173 -2.6380 -3.1770  1.7305
 8483TIP3    H246941   3.012   3.420   3.061 -0.7071 -3.7376  0.1113
 8484TIP3   OH246942   3.138   5.430  17.145 -0.2519 -0.0128  0.4433
 8484TIP3    H146943   3.078   5.490  17.101 -1.5971  1.1140  3.4854
 8484TIP3    H246944   3.196   5.488  17.195  1.1190 -1.1899  0.2892
 8485TIP3   OH246945   5.045   6.599   6.321 -0.2151  0.2672 -0.1607
 8485TIP3    H146946   5.110   6.549   6.370 -0.2823 -1.5501 -1.8289
 8485TIP3    H246947   5.046   6.685   6.363  0.3740 -0.8798  2.3998
 8486TIP3   OH246948   2.690   4.407  13.795 -0.3515  0.0999 -0.0857
 8486TIP3    H146949   2.638   4.433  13.719  0.6899  2.8075  0.0074
 8486TIP3    H246950   2.638   4.338  13.837 -1.1875 -1.1154 -2.9169
 8487TIP3   OH246951   3.904   3.818   1.075  0.3236  0.5441 -0.0330
 8487TIP3    H146952   3.998   3.837   1.086  0.4571  1.0733 -1.7444
 8487TIP3    H246953   3.866   3.837   1.160  1.9765 -1.0852  1.1606
 8488TIP3   OH246954   4.060   5.225   0.440  0.4988  0.0545  0.1229
 8488TIP3    H146955   4.114   5.283   0.494  2.7017 -0.7045 -1.1271
 8488TIP3    H246956   4.017   5.284   0.377  0.9553  0.5602  0.2753
 8489TIP3   OH246957   6.047   3.757   2.311  0.5936  0.0544 -0.1108
 8489TIP3    H146958   6.111   3.711   2.257 -0.4413 -1.9441  0.2855
 8489TIP3    H246959   6.096   3.785   2.388  2.2116  3.3400 -2.0870
 8490TIP3   OH246960   5.195   3.585  16.013  0.5808 -0.1535  0.5533
 8490TIP3    H146961   5.241   3.501  16.010 -0.5610 -0.7750 -0.8668
 8490TIP3    H246962   5.169   3.594  16.104  2.4580 -0.3362  1.1558
 8491TIP3   OH246963   0.456   5.802   3.598 -0.0896  0.4504  0.1859
 8491TIP3    H146964   0.543   5.804   3.558 -0.8985  0.5163 -1.7042
 8491TIP3    H246965   0.450   5.884   3.648 -1.3131  4.1113 -5.0643
 8492TIP3   OH246966   0.207   0.672   2.852 -0.2697  0.1013  0.5040
 8492TIP3    H146967   0.188   0.758   2.890  0.5003  0.6979 -0.4292
 8492TIP3    H246968   0.123   0.627   2.853 -1.2498  1.7633 -1.2665
 8493TIP3   OH246969   3.629   6.765  15.469 -0.2752 -0.2681  0.1008
 8493TIP3    H146970   3.628   6.674  15.499 -0.5501 -0.5433 -0.6937
 8493TIP3    H246971   3.563   6.809  15.521  0.0387 -0.4650  0.6691
 8494TIP3   OH246972   0.297   3.092   2.538 -0.0183  0.5119  0.1741
 8494TIP3    H146973   0.286   3.006   2.577 -2.2920  1.0425  0.8372
 8494TIP3    H246974   0.214   3.109   2.493  0.6554  2.0669 -0.5682
 8495TIP3   OH246975   2.737   4.318  13.514 -0.4340  0.3504  0.0462
 8495TIP3    H146976   2.699   4.325  13.426 -0.5788  0.9636  0.1516
 8495TIP3    H246977   2.726   4.227  13.538 -0.5846  0.2244 -0.4891
 8496TIP3   OH246978   6.510   2.154   5.343 -0.0255  0.1839 -0.1830
 8496TIP3    H146979   6.474   2.065   5.346 -0.4844  0.3044 -1.3428
 8496TIP3    H246980   6.446   2.203   5.291 -0.1836  1.4029  1.0920
 8497TIP3   OH246981   4.885   0.446  15.046 -0.0608 -0.2238  0.6516
 8497TIP3    H146982   4.860   0.472  15.135  1.2823 -1.0530  1.2982
 8497TIP3    H246983   4.947   0.514  15.018 -0.5754  0.1021  0.3014
 8498TIP3   OH246984   5.383   0.559   1.152 -0.1682 -0.0557  0.0459
 8498TIP3    H146985   5.397   0.490   1.087  2.2951 -0.7871  1.2402
 8498TIP3    H246986   5.385   0.640   1.101 -0.4708 -0.7224 -1.0510
 8499TIP3   OH246987   5.678   6.609   6.921 -0.6914  0.2833  0.1236
 8499TIP3    H146988   5.627   6.601   6.840 -0.4486 -0.0357  0.0007
 8499TIP3    H246989   5.717   6.522   6.933  0.5604  0.7659 -0.2689
 8500TIP3   OH246990   2.123   1.884  14.128 -0.2107 -0.2021 -0.1820
 8500TIP3    H146991   2.161   1.897  14.041 -0.8933 -1.2586 -0.6718
 8500TIP3    H246992   2.162   1.802  14.159 -0.9073 -0.4902 -0.0423
 8501TIP3   OH246993   1.911   5.702  13.791  0.0835 -0.4356  0.4133
 8501TIP3    H146994   1.850   5.714  13.718  1.2790  1.0658 -0.4040
 8501TIP3    H246995   1.885   5.767  13.855  0.0100 -0.7001  0.6543
 8502TIP3   OH246996   4.671   0.039  16.335 -0.3064  0.1352 -0.4688
 8502TIP3    H146997   4.661   0.134  16.345 -0.5644 -0.0519  1.2798
 8502TIP3    H246998   4.760   0.027  16.302  0.1456  0.9196  0.4396
 8503TIP3   OH246999   3.309   2.878   6.528  0.0620 -0.5873  0.4277
 8503TIP3    H147000   3.298   2.971   6.546  0.6306 -0.7170  1.5093
 8503TIP3    H247001   3.326   2.873   6.434 -0.4831  0.3512  0.2744
 8504TIP3   OH247002   5.284   3.936  14.733  0.1514  0.6563  0.2013
 8504TIP3    H147003   5.275   4.024  14.770  0.7918  0.1008  1.7182
 8504TIP3    H247004   5.280   3.950  14.638  0.1736  2.3049  0.4145
 8505TIP3   OH247005   4.306   3.663  13.305  0.2302  0.0017 -0.2725
 8505TIP3    H147006   4.262   3.618  13.233 -0.3833 -0.2161  0.2368
 8505TIP3    H247007   4.368   3.722  13.261 -2.0381  1.9412 -1.1406
 8506TIP3   OH247008   6.456   6.399  14.437 -1.0339 -0.1326 -0.3760
 8506TIP3    H147009   6.511   6.335  14.392  1.5658  0.9393  1.0002
 8506TIP3    H247010   6.400   6.436  14.369 -0.1869 -1.4623 -1.8511
 8507TIP3   OH247011   4.543   2.399  13.370  0.2664  0.1345 -0.5261
 8507TIP3    H147012   4.541   2.361  13.458  2.4184 -1.0715 -0.9264
 8507TIP3    H247013   4.510   2.488  13.382 -2.0778 -0.8229  0.9886
 8508TIP3   OH247014   1.073   3.860   6.184 -0.6432 -0.1288  0.2142
 8508TIP3    H147015   0.984   3.855   6.149 -0.3120 -0.5461 -0.5930
 8508TIP3    H247016   1.089   3.953   6.198 -0.1144  0.2707 -2.5694
 8509TIP3   OH247017   1.294   0.533  11.152 -0.9526 -0.4709  0.2923
 8509TIP3    H147018   1.313   0.624  11.128  0.0573 -0.4294  1.1588
 8509TIP3    H247019   1.201   0.521  11.131 -1.2473  0.9334  0.6960
 8510TIP3   OH247020   1.226   0.942   0.286 -0.0900 -0.1053  0.4766
 8510TIP3    H147021   1.198   1.016   0.339 -1.0674 -1.6813  2.2844
 8510TIP3    H247022   1.312   0.919   0.319 -0.7212 -1.1209  1.4878
 8511TIP3   OH247023   6.770   1.449   4.851  0.4041  0.4066 -0.0399
 8511TIP3    H147024   6.781   1.513   4.781  0.1916  0.1921 -0.2705
 8511TIP3    H247025   6.831   1.379   4.829  0.1079  0.1936 -0.1802
 8512TIP3   OH247026   0.896   1.453   4.057  0.1132  0.2582  0.1483
 8512TIP3    H147027   0.889   1.393   4.130 -0.9800 -0.5143 -0.5653
 8512TIP3    H247028   0.988   1.449   4.031  0.0839 -1.0461  0.1806
 8513TIP3   OH247029   5.574   0.546   2.634 -0.0319 -0.3160 -0.2074
 8513TIP3    H147030   5.544   0.583   2.717 -1.5703  0.8141 -1.2099
 8513TIP3    H247031   5.644   0.604   2.605  0.2715 -0.5126  0.1324
 8514TIP3   OH247032   5.510   4.662   4.978  0.0296  0.0402  0.0998
 8514TIP3    H147033   5.561   4.725   4.926  1.8520  0.6459  2.4553
 8514TIP3    H247034   5.575   4.614   5.028 -1.5151 -2.0369  0.2599
 8515TIP3   OH247035   1.517   6.134   4.191  0.0400 -0.3185 -0.3045
 8515TIP3    H147036   1.579   6.179   4.134  0.6654 -1.2605 -0.3910
 8515TIP3    H247037   1.525   6.042   4.167  0.5468 -0.7738  1.5213
 8516TIP3   OH247038   5.447   1.348  13.832  0.0635 -0.1717 -0.0388
 8516TIP3    H147039   5.376   1.395  13.876 -1.5178 -2.8332  0.5006
 8516TIP3    H247040   5.509   1.416  13.807 -2.6925  2.3247 -0.6070
 8517TIP3   OH247041   4.459   3.506   6.480 -0.1357 -0.3082  0.5457
 8517TIP3    H147042   4.437   3.559   6.403 -0.4216 -2.5442 -0.9840
 8517TIP3    H247043   4.554   3.502   6.480 -0.0623  0.7840  1.1441
 8518TIP3   OH247044   0.510   5.584  12.806 -0.0308  0.1585 -0.4355
 8518TIP3    H147045   0.496   5.515  12.870  0.8344  0.1084 -0.2884
 8518TIP3    H247046   0.455   5.559  12.731  0.8103 -1.0753 -0.6690
 8519TIP3   OH247047   0.058   5.429   3.225  0.1495  0.1279  0.5175
 8519TIP3    H147048   0.145   5.422   3.265  0.7465 -1.1124 -0.9155
 8519TIP3    H247049   0.043   5.343   3.186 -0.8869  0.9337 -0.9296
 8520TIP3   OH247050   4.599   3.516   4.327 -0.1470 -0.1745 -0.1470
 8520TIP3    H147051   4.514   3.484   4.359  0.6485 -1.7360  0.5232
 8520TIP3    H247052   4.652   3.437   4.318  1.0337  0.7110 -1.2123
 8521TIP3   OH247053   0.325   2.299   4.503  0.7925  0.8837 -0.5460
 8521TIP3    H147054   0.396   2.239   4.484  1.5318  1.1848  1.1068
 8521TIP3    H247055   0.249   2.243   4.521  1.0455  0.5106 -0.6491
 8522TIP3   OH247056   4.800   6.514  15.026 -0.4496  0.2935 -0.0992
 8522TIP3    H147057   4.766   6.437  14.979 -0.5768 -0.2936  0.9227
 8522TIP3    H247058   4.895   6.498  15.031 -0.3049  0.8167 -0.9538
 8523TIP3   OH247059   3.980   4.482   4.746 -0.1058  0.2600  0.1931
 8523TIP3    H147060   3.997   4.450   4.834  0.0108 -1.9571 -0.5800
 8523TIP3    H247061   4.001   4.576   4.750 -0.9655  0.4056  2.7050
 8524TIP3   OH247062   2.099   6.506  14.663 -0.0503 -0.0482 -0.4728
 8524TIP3    H147063   2.021   6.523  14.716  0.3835  0.4208  0.0319
 8524TIP3    H247064   2.114   6.587  14.614 -1.3012 -0.9642 -2.4832
 8525TIP3   OH247065   0.084   0.457  14.181 -1.0530  0.2510  0.8025
 8525TIP3    H147066  -0.007   0.453  14.149 -0.7723  1.0023 -0.1558
 8525TIP3    H247067   0.081   0.525  14.249 -0.8419  1.8423 -0.6904
 8526TIP3   OH247068   2.209   3.143  13.360  0.5702 -0.0521  0.3062
 8526TIP3    H147069   2.168   3.056  13.361 -1.1895  0.5801 -2.8901
 8526TIP3    H247070   2.151   3.197  13.414  0.2061 -0.3090  0.1755
 8527TIP3   OH247071   5.914   5.074   5.353 -0.2391 -0.1446 -0.1960
 8527TIP3    H147072   5.866   5.094   5.273  0.4923  0.8971 -0.3920
 8527TIP3    H247073   5.847   5.068   5.421 -0.8677 -1.0883 -0.8792
 8528TIP3   OH247074   5.242   4.891  11.428  0.3872  0.1391  0.0766
 8528TIP3    H147075   5.326   4.860  11.462  0.6685  0.9025  0.0980
 8528TIP3    H247076   5.265   4.948  11.354 -0.1939 -1.2092 -1.2009
 8529TIP3   OH247077   0.729   5.805   0.206 -0.1534 -0.0194 -0.3189
 8529TIP3    H147078   0.759   5.814   0.116  0.6567  0.1129 -0.0489
 8529TIP3    H247079   0.769   5.879   0.252 -0.4916 -0.1303  0.1610
 8530TIP3   OH247080   5.233   3.756  16.713  0.0376 -0.3114  0.7556
 8530TIP3    H147081   5.279   3.678  16.682  1.7804  0.0901  2.1531
 8530TIP3    H247082   5.286   3.788  16.786 -1.1799  1.6068  0.8855
 8531TIP3   OH247083   4.977   6.562   2.705  0.0206  0.3700 -0.1018
 8531TIP3    H147084   4.939   6.482   2.669  0.0227  1.4843 -2.8306
 8531TIP3    H247085   5.070   6.541   2.716  0.2825  0.3124 -2.0392
 8532TIP3   OH247086   3.449   3.785  12.934 -0.0766  0.6787 -0.1476
 8532TIP3    H147087   3.399   3.838  12.872 -1.7800  0.6282  1.1064
 8532TIP3    H247088   3.539   3.815  12.925 -0.5135  1.6312 -1.6363
 8533TIP3   OH247089   4.607   3.332   3.229  0.8800  0.5228  0.3491
 8533TIP3    H147090   4.555   3.392   3.176  0.2250  0.7364  1.2043
 8533TIP3    H247091   4.594   3.246   3.188  0.2832  0.6650  0.2306
 8534TIP3   OH247092   4.433   5.493  14.571  0.4339 -0.3118 -0.3903
 8534TIP3    H147093   4.462   5.545  14.497  0.8228 -0.8561 -0.6326
 8534TIP3    H247094   4.500   5.508  14.639 -0.0752  0.4134 -0.0387
 8535TIP3   OH247095   1.784   6.546  13.854  0.1499  0.0658 -0.3870
 8535TIP3    H147096   1.860   6.496  13.884  0.8157  0.7323 -0.8903
 8535TIP3    H247097   1.765   6.511  13.767 -1.3483 -1.4031  0.4880
 8536TIP3   OH247098   4.766   2.389  13.918  0.0686  0.0239 -0.4120
 8536TIP3    H147099   4.760   2.332  13.842 -1.1630 -1.1102  0.4990
 8536TIP3    H247100   4.677   2.418  13.934  0.3732  0.5803  0.3552
 8537TIP3   OH247101   6.696   0.269   1.990 -0.3089  0.2038 -0.1897
 8537TIP3    H147102   6.602   0.282   2.001 -0.6337 -2.2784  0.5878
 8537TIP3    H247103   6.711   0.177   2.013  2.2324  0.3616 -0.8508
 8538TIP3   OH247104   0.052   1.524  15.944  0.1392  0.3587  0.7322
 8538TIP3    H147105   0.056   1.550  16.036 -0.9124 -0.6109  1.0750
 8538TIP3    H247106   0.084   1.434  15.942 -0.4718  0.1413  0.2644
 8539TIP3   OH247107   0.326   2.104  12.751  0.2093  0.0692  0.0542
 8539TIP3    H147108   0.294   2.031  12.697  0.0281  0.1223  0.0929
 8539TIP3    H247109   0.348   2.172  12.687 -1.4510  0.7106  0.1396
 8540TIP3   OH247110   2.154   3.869  14.013 -0.3516 -0.7277  0.1416
 8540TIP3    H147111   2.126   3.835  14.098 -2.1078  0.2887  0.0373
 8540TIP3    H247112   2.101   3.820  13.950 -0.0047 -0.5696 -0.2739
 8541TIP3   OH247113   2.977   4.391  16.260  0.0253 -0.5096  0.2367
 8541TIP3    H147114   3.046   4.457  16.257 -0.0080 -0.4493  0.7552
 8541TIP3    H247115   3.009   4.326  16.323 -0.7696 -0.0497  1.1415
 8542TIP3   OH247116   2.194   0.040  15.611 -0.3482 -0.4533 -0.1723
 8542TIP3    H147117   2.177   0.034  15.705 -0.8965 -0.5469 -0.2762
 8542TIP3    H247118   2.287   0.019  15.603  0.0942  1.0969  0.5016
 8543TIP3   OH247119   2.739   4.217   2.387 -0.6560 -0.1912 -0.1297
 8543TIP3    H147120   2.808   4.202   2.452  0.6615  1.4922 -1.0427
 8543TIP3    H247121   2.750   4.146   2.323  0.5295  0.2727 -0.4706
 8544TIP3   OH247122   0.506   4.341   4.884 -0.0519 -0.0974  0.6569
 8544TIP3    H147123   0.565   4.272   4.852  0.6249 -0.2195  2.0676
 8544TIP3    H247124   0.469   4.305   4.965 -0.9513  0.5650  0.5561
 8545TIP3   OH247125   5.845   3.593   1.358  0.1065  0.0505 -0.0345
 8545TIP3    H147126   5.795   3.661   1.314 -0.9299 -0.5974  0.1199
 8545TIP3    H247127   5.788   3.562   1.428  0.9442 -0.3201  0.5061
 8546TIP3   OH247128   6.044   6.234  17.185 -0.2400 -0.0609  0.3366
 8546TIP3    H147129   6.130   6.195  17.201 -1.7383 -2.8874  2.4459
 8546TIP3    H247130   6.027   6.290  17.261 -0.4425  0.1598  0.1336
 8547TIP3   OH247131   5.627   4.491  16.285  0.4177  0.0464  0.1396
 8547TIP3    H147132   5.643   4.546  16.362  0.1434 -0.7584  0.7894
 8547TIP3    H247133   5.588   4.550  16.221 -1.4675  0.2802  1.4213
 8548TIP3   OH247134   6.430   6.511   2.134 -0.0373 -0.0193  0.2336
 8548TIP3    H147135   6.504   6.544   2.186 -0.7549 -0.4615  1.6057
 8548TIP3    H247136   6.466   6.438   2.084  0.0963 -1.4642  2.3154
 8549TIP3   OH247137   5.868   4.205  11.525 -0.1909  0.2755  0.5769
 8549TIP3    H147138   5.956   4.178  11.548  0.2499 -0.1962 -1.4904
 8549TIP3    H247139   5.874   4.232  11.433 -2.3022 -0.2900  0.2147
 8550TIP3   OH247140   2.300   2.327  11.105  0.1480  0.7672 -0.1985
 8550TIP3    H147141   2.365   2.329  11.034  0.7396  2.2972  0.3419
 8550TIP3    H247142   2.218   2.353  11.062 -0.0241 -0.6156 -0.7667
 8551TIP3   OH247143   3.563   1.316  16.232  0.1245  0.0003  0.2482
 8551TIP3    H147144   3.484   1.279  16.271 -1.0676  1.4878 -0.6302
 8551TIP3    H247145   3.595   1.248  16.173 -0.1737 -0.8237  1.0127
 8552TIP3   OH247146   4.568   0.478   4.701 -0.2187  0.3642 -0.3843
 8552TIP3    H147147   4.625   0.554   4.690  0.8599 -0.3041  0.3474
 8552TIP3    H247148   4.566   0.437   4.614  1.4440 -0.2795 -0.1526
 8553TIP3   OH247149   5.731   3.019   5.836 -0.3831 -0.5700  0.0252
 8553TIP3    H147150   5.796   2.976   5.780  0.5568 -0.3442  0.9040
 8553TIP3    H247151   5.779   3.090   5.878 -1.6149  0.6208 -0.5003
 8554TIP3   OH247152   3.760   2.140  15.682 -0.4949 -0.4698 -0.2977
 8554TIP3    H147153   3.759   2.192  15.602 -2.2749 -0.5940 -0.3917
 8554TIP3    H247154   3.674   2.097  15.684  0.4590 -2.4571  0.3986
 8555TIP3   OH247155   5.298   3.752   4.460  0.6031  0.1298 -0.2341
 8555TIP3    H147156   5.295   3.829   4.403 -0.3142 -0.5181 -1.0980
 8555TIP3    H247157   5.262   3.782   4.543 -2.8172 -0.0873 -1.4915
 8556TIP3   OH247158   6.131   0.787  11.806 -0.2208  0.0498 -1.2460
 8556TIP3    H147159   6.201   0.724  11.787  0.0203  0.7703 -2.8888
 8556TIP3    H247160   6.075   0.786  11.728 -1.8267 -0.1896 -0.1439
 8557TIP3   OH247161   5.649   4.379  13.950 -0.3192  0.3474 -0.4480
 8557TIP3    H147162   5.667   4.437  14.024 -1.7746  0.3235 -0.0346
 8557TIP3    H247163   5.641   4.437  13.875  1.7369  0.3251 -0.7491
 8558TIP3   OH247164   5.238   5.380  14.615  0.5538 -0.3054 -0.6499
 8558TIP3    H147165   5.178   5.443  14.574 -0.0882  0.3795  1.2562
 8558TIP3    H247166   5.191   5.297  14.612 -0.4030  0.1669  0.5596
 8559TIP3   OH247167   5.641   2.706  14.146 -0.1984 -0.7204  0.1332
 8559TIP3    H147168   5.675   2.718  14.234  1.1741  0.0341 -0.4719
 8559TIP3    H247169   5.699   2.641  14.106  0.0699 -0.0158 -0.6505
 8560TIP3   OH247170   4.314   0.794   4.144 -0.2793  0.3101 -0.2357
 8560TIP3    H147171   4.299   0.700   4.143 -0.3160  0.3083  0.2929
 8560TIP3    H247172   4.259   0.827   4.216 -0.2688  0.7313 -0.4165
 8561TIP3   OH247173   0.821   3.841  11.770 -0.2487  0.2037 -0.0861
 8561TIP3    H147174   0.800   3.798  11.852  1.1158  1.0588  0.7427
 8561TIP3    H247175   0.894   3.791  11.734 -0.5408  0.1059 -0.5470
 8562TIP3   OH247176   5.117   2.965   1.536 -0.5157 -0.7114 -0.4106
 8562TIP3    H147177   5.202   3.000   1.510 -0.1399  0.4151  2.0481
 8562TIP3    H247178   5.135   2.874   1.562  0.7266  0.4123  3.1929
 8563TIP3   OH247179   2.522   5.974   0.125 -0.1303 -0.3644  0.0725
 8563TIP3    H147180   2.465   5.902   0.155  1.1280 -2.2573 -1.7761
 8563TIP3    H247181   2.609   5.948   0.155  0.5174 -0.2437 -1.6141
 8564TIP3   OH247182   0.972   5.215  10.906 -0.5296 -0.2661 -0.1400
 8564TIP3    H147183   0.949   5.248  10.819 -0.4599 -0.8000 -0.3628
 8564TIP3    H247184   1.060   5.250  10.922 -0.4261 -0.4026 -0.4085
 8565TIP3   OH247185   1.159   3.743   4.946 -0.0012 -0.2370  0.2139
 8565TIP3    H147186   1.159   3.780   4.857 -2.0425 -0.0646  0.2378
 8565TIP3    H247187   1.071   3.762   4.980  0.4411 -1.0888  1.9468
 8566TIP3   OH247188   1.150   3.747  17.166  0.1267  0.4060 -0.0137
 8566TIP3    H147189   1.138   3.661  17.126 -0.8094  0.9183 -0.8879
 8566TIP3    H247190   1.240   3.747  17.199  0.5749 -0.4307 -1.1836
 8567TIP3   OH247191   4.326   1.045   1.387 -0.4455  0.6273 -0.1133
 8567TIP3    H147192   4.388   1.065   1.317  1.2805 -0.6137  0.9857
 8567TIP3    H247193   4.373   1.067   1.467 -1.0585 -1.2233  0.8018
 8568TIP3   OH247194   2.807   0.157   4.430  0.0167 -0.2386  0.0922
 8568TIP3    H147195   2.849   0.225   4.484  0.1878 -1.0128  0.9700
 8568TIP3    H247196   2.832   0.179   4.340  1.7761 -0.2773  0.5255
 8569TIP3   OH247197   2.851   1.204  16.781  1.0602 -0.2038 -0.0186
 8569TIP3    H147198   2.909   1.128  16.785  0.2419 -0.9133 -1.0635
 8569TIP3    H247199   2.768   1.169  16.750  0.6542  1.1130 -0.4804
 8570TIP3   OH247200   6.517   5.585   1.969  0.5980 -0.1282 -0.2153
 8570TIP3    H147201   6.568   5.586   2.050 -1.0631 -1.1236  0.9110
 8570TIP3    H247202   6.582   5.588   1.899  2.0729  1.1535  1.1344
 8571TIP3   OH247203   2.284   4.576  11.925 -0.7617 -0.0971  0.0488
 8571TIP3    H147204   2.370   4.601  11.891 -1.5533 -0.1888 -2.2105
 8571TIP3    H247205   2.276   4.483  11.907 -2.6309  0.5152 -3.1859
 8572TIP3   OH247206   0.618   3.006   3.742  0.8113 -0.4897  0.7692
 8572TIP3    H147207   0.681   2.934   3.745  1.3535 -0.1401 -0.9868
 8572TIP3    H247208   0.554   2.985   3.810  0.5743 -3.0220 -0.1031
 8573TIP3   OH247209   1.442   4.824  14.605 -0.3567 -0.8686  0.1484
 8573TIP3    H147210   1.364   4.795  14.557 -0.4192 -0.1865 -0.1638
 8573TIP3    H247211   1.487   4.883  14.545 -0.1743 -0.3964  0.7447
 8574TIP3   OH247212   2.110   3.858  14.291  0.4829 -0.0227  0.2492
 8574TIP3    H147213   2.143   3.769  14.282  0.2954  0.0618 -1.6936
 8574TIP3    H247214   2.057   3.857  14.371  2.2926 -1.0456  1.5144
 8575TIP3   OH247215   0.352   3.336  16.197  0.2294 -0.0260 -0.7352
 8575TIP3    H147216   0.283   3.333  16.263  0.6556  0.1968 -0.2746
 8575TIP3    H247217   0.366   3.429  16.181  2.4871  0.1090  1.3967
 8576TIP3   OH247218   0.045   4.735   1.197  0.4810  0.0272  0.1417
 8576TIP3    H147219   0.078   4.672   1.133  0.5376  1.5616 -1.4244
 8576TIP3    H247220  -0.043   4.757   1.166  0.8921  1.5548 -0.0345
 8577TIP3   OH247221   5.055   5.540   3.780  0.0557 -0.3484  0.7813
 8577TIP3    H147222   5.050   5.488   3.860 -1.0610 -2.6113 -0.6627
 8577TIP3    H247223   4.981   5.601   3.786  0.1407 -0.3118  1.5727
 8578TIP3   OH247224   0.982   3.804   0.887  0.1002  0.2822  0.0207
 8578TIP3    H147225   1.018   3.776   0.971 -0.3198  0.4221  0.2520
 8578TIP3    H247226   1.056   3.846   0.842  0.3427  0.1509  0.2923
 8579TIP3   OH247227   5.021   4.063   1.806 -0.6104  0.3399 -0.3764
 8579TIP3    H147228   5.009   4.142   1.859  1.1154  0.5778 -0.2719
 8579TIP3    H247229   5.020   4.094   1.716  2.9554  1.0392 -0.2978
 8580TIP3   OH247230   6.196   4.057   3.093 -0.7803 -0.0529 -0.1602
 8580TIP3    H147231   6.135   4.017   3.155 -0.0552  0.3684  0.8617
 8580TIP3    H247232   6.265   3.991   3.081 -0.0987  0.4743  0.7469
 8581TIP3   OH247233   5.260   4.342   2.847 -0.4061  0.1941  0.6681
 8581TIP3    H147234   5.253   4.377   2.935  1.0005  0.0045  0.8839
 8581TIP3    H247235   5.174   4.356   2.808 -0.6604  1.4348  1.6320
 8582TIP3   OH247236   0.737   1.047  11.620  0.3059 -0.0825 -0.1107
 8582TIP3    H147237   0.744   1.082  11.532 -2.3551  0.9568  0.0153
 8582TIP3    H247238   0.777   1.114  11.676  4.1426 -1.7184 -0.5210
 8583TIP3   OH247239   4.737   6.787  17.187 -0.0152 -0.1328  0.3997
 8583TIP3    H147240   4.779   6.865  17.223 -0.6748 -0.5607  2.1937
 8583TIP3    H247241   4.758   6.790  17.093  2.8637  0.3591  0.9640
 8584TIP3   OH247242   0.763   1.127   3.226  0.0286 -0.0893  0.3044
 8584TIP3    H147243   0.744   1.172   3.308  1.9774  0.8975  0.2828
 8584TIP3    H247244   0.735   1.037   3.241 -0.3312  0.2358  1.7828
 8585TIP3   OH247245   3.628   3.650   0.142 -0.6282 -0.2007 -0.2352
 8585TIP3    H147246   3.539   3.679   0.119 -0.1039  1.5083 -0.2407
 8585TIP3    H247247   3.677   3.656   0.060 -0.2190  0.0290  0.0262
 8586TIP3   OH247248   1.251   1.221   4.069  0.3802 -0.1880 -0.7755
 8586TIP3    H147249   1.238   1.178   3.984  1.3142  0.2335 -1.1430
 8586TIP3    H247250   1.338   1.192   4.097 -0.8398 -2.2934  1.2225
 8587TIP3   OH247251   1.443   5.791   2.595 -0.1518  0.2638  0.7968
 8587TIP3    H147252   1.533   5.817   2.577 -0.9588  1.9042 -1.5783
 8587TIP3    H247253   1.449   5.705   2.635  2.4287 -0.4194 -0.8163
 8588TIP3   OH247254   6.022   2.382  15.177 -0.7306 -0.2858 -0.4093
 8588TIP3    H147255   5.992   2.473  15.176  0.1044  0.0010 -1.6844
 8588TIP3    H247256   6.113   2.388  15.206 -0.2827 -0.5575 -1.7049
 8589TIP3   OH247257   1.705   5.010   1.293 -0.1351 -0.1576  0.3136
 8589TIP3    H147258   1.754   5.069   1.236  2.5736 -0.7758  1.8279
 8589TIP3    H247259   1.705   5.053   1.378 -1.0227 -0.8372  0.6723
 8590TIP3   OH247260   4.849   1.127  12.110  0.1683  0.2065 -0.2476
 8590TIP3    H147261   4.853   1.185  12.186  0.7229 -0.3668  0.1682
 8590TIP3    H247262   4.907   1.168  12.045  0.4047  0.2239 -0.0267
 8591TIP3   OH247263   6.588   0.347   5.370 -0.5943 -0.0167  0.2494
 8591TIP3    H147264   6.638   0.370   5.448  0.0638 -1.7807  0.3782
 8591TIP3    H247265   6.529   0.277   5.398  1.4904 -2.5699 -1.3506
 8592TIP3   OH247266   5.732   0.110  13.204  0.1901  0.3329 -0.0977
 8592TIP3    H147267   5.703   0.192  13.243  1.7963  0.2399  1.4207
 8592TIP3    H247268   5.787   0.137  13.130 -2.3772  0.5144 -2.0707
 8593TIP3   OH247269   1.124   6.327   0.010  0.6483 -0.7961  0.1889
 8593TIP3    H147270   1.109   6.315   0.104 -0.2590 -0.0984  0.1479
 8593TIP3    H247271   1.202   6.275  -0.008  1.6517  0.1238  1.5986
 8594TIP3   OH247272   5.546   1.649   6.505 -0.2392  0.3737 -0.2059
 8594TIP3    H147273   5.614   1.629   6.441  0.3057 -0.1538  0.5043
 8594TIP3    H247274   5.467   1.606   6.472 -0.0293  0.3381 -0.6586
 8595TIP3   OH247275   3.573   6.212   4.544  0.3151 -0.2422 -0.1173
 8595TIP3    H147276   3.490   6.252   4.519  0.4922  0.3657  0.2424
 8595TIP3    H247277   3.634   6.286   4.552  2.0204 -0.9093 -4.3464
 8596TIP3   OH247278   5.913   0.698  16.229 -0.1367  0.0323 -0.1436
 8596TIP3    H147279   5.868   0.760  16.286  1.3244  2.0030 -1.0389
 8596TIP3    H247280   5.975   0.653  16.287 -0.1363  0.4993  0.2232
 8597TIP3   OH247281   5.273   2.442  12.583 -0.1076 -0.2102 -0.2345
 8597TIP3    H147282   5.233   2.400  12.659  1.2397 -0.8797  0.1419
 8597TIP3    H247283   5.220   2.520  12.568 -0.0461  0.2735  1.7922
 8598TIP3   OH247284   6.799   3.031  14.595  0.1324 -0.2491 -0.4205
 8598TIP3    H147285   6.730   3.033  14.661  0.3528 -0.3849 -0.1832
 8598TIP3    H247286   6.753   3.038  14.511 -0.1092  0.5059 -0.2334
 8599TIP3   OH247287   6.177   5.760   2.642 -0.3129  0.1990 -0.2088
 8599TIP3    H147288   6.221   5.829   2.690  2.4083 -1.3362 -0.2645
 8599TIP3    H247289   6.107   5.804   2.594 -0.1106  2.4883  1.4633
 8600TIP3   OH247290   1.259   6.560   1.252  0.1638  0.5180 -0.2224
 8600TIP3    H147291   1.169   6.529   1.242  0.0842 -0.1274  2.0153
 8600TIP3    H247292   1.258   6.611   1.333  1.8339  0.4424 -0.1148
 8601TIP3   OH247293   0.001   6.824  11.223 -0.0978  0.0596 -0.4831
 8601TIP3    H147294   0.081   6.876  11.227  1.0840 -1.6418 -0.7622
 8601TIP3    H247295   0.031   6.735  11.202 -1.9647 -0.8650  0.5152
 8602TIP3   OH247296   6.042   5.907   2.454  0.4773 -0.1273  0.2092
 8602TIP3    H147297   6.011   5.993   2.484  1.9729  0.0161  1.4656
 8602TIP3    H247298   6.048   5.916   2.359 -2.3059  0.1177 -0.0401
 8603TIP3   OH247299   1.726   3.228   0.833  0.2241 -0.5024  0.4222
 8603TIP3    H147300   1.649   3.275   0.801  0.3726 -0.3556  0.2779
 8603TIP3    H247301   1.695   3.139   0.848  0.2004 -0.6341 -0.3451
 8604TIP3   OH247302   5.489   1.355  11.256 -0.4322 -0.1534 -0.5631
 8604TIP3    H147303   5.459   1.280  11.206  2.3390  0.0449 -2.7882
 8604TIP3    H247304   5.576   1.330  11.287 -0.5824  1.1350  1.0221
 8605TIP3   OH247305   3.420   6.376   5.596  0.0605 -0.1299 -0.3204
 8605TIP3    H147306   3.451   6.296   5.639 -0.3835 -0.2779 -0.2695
 8605TIP3    H247307   3.433   6.360   5.503  1.4565  0.3740 -0.2238
 8606TIP3   OH247308   6.432   2.717  11.247  0.2532 -0.4677 -0.4006
 8606TIP3    H147309   6.492   2.789  11.267 -0.2493 -0.2911  0.5318
 8606TIP3    H247310   6.433   2.711  11.151 -0.0271  1.0708 -0.5247
 8607TIP3   OH247311   3.429   1.509  15.484  0.3548 -0.4049  0.3271
 8607TIP3    H147312   3.361   1.515  15.551  0.0473  0.5594 -0.0580
 8607TIP3    H247313   3.503   1.468  15.530  0.5991  1.3823  1.6639
 8608TIP3   OH247314   3.943   1.258  14.104  0.5777 -0.6867  0.0782
 8608TIP3    H147315   4.000   1.330  14.077  1.2649 -1.9001 -1.8816
 8608TIP3    H247316   3.908   1.286  14.189  2.9467  0.7378  0.6663
 8609TIP3   OH247317   6.325   3.068   4.993 -0.3706 -0.0496 -0.2762
 8609TIP3    H147318   6.336   3.010   4.917 -2.4463  0.1980 -0.8386
 8609TIP3    H247319   6.357   3.153   4.962  1.4975 -0.5468  0.1372
 8610TIP3   OH247320   1.149   0.800   0.875 -0.5456  0.0002 -0.1952
 8610TIP3    H147321   1.170   0.798   0.782 -1.1230  4.4353 -0.6368
 8610TIP3    H247322   1.234   0.803   0.919 -0.2658  0.2770 -0.7493
 8611TIP3   OH247323   2.687   0.205  12.358 -0.4825  0.0457  0.7231
 8611TIP3    H147324   2.729   0.253  12.429  1.5172 -0.5103 -0.0224
 8611TIP3    H247325   2.756   0.150  12.322 -1.1350  0.9974 -2.2676
 8612TIP3   OH247326   2.657   1.017  14.921 -0.6629 -0.0732 -0.9288
 8612TIP3    H147327   2.695   0.960  14.854  0.7208 -0.5988  0.2494
 8612TIP3    H247328   2.638   1.098  14.874 -1.5300 -1.0578 -2.3693
 8613TIP3   OH247329   0.504   1.380  12.699 -0.5864 -0.2753  0.3345
 8613TIP3    H147330   0.503   1.465  12.655  0.3313 -0.8070 -0.8044
 8613TIP3    H247331   0.418   1.341  12.680 -0.2518 -0.4395 -0.9360
 8614TIP3   OH247332   3.011   2.372  15.469  0.0019  0.0434  0.1843
 8614TIP3    H147333   3.106   2.369  15.471  0.0238 -0.7608 -1.1311
 8614TIP3    H247334   2.988   2.446  15.525  1.3675 -0.0599  0.9178
 8615TIP3   OH247335   3.972   5.057   2.788  0.0236 -0.4645  0.0842
 8615TIP3    H147336   4.034   5.120   2.753 -1.8969  1.7128  0.3540
 8615TIP3    H247337   3.943   5.095   2.871 -0.8297 -1.9743  0.5218
 8616TIP3   OH247338   2.863   3.377   1.537  0.1562 -0.2025 -0.6651
 8616TIP3    H147339   2.943   3.345   1.496 -0.4449 -0.8109 -1.3666
 8616TIP3    H247340   2.808   3.405   1.464 -0.0860  0.6766 -0.1611
 8617TIP3   OH247341   6.805   0.852  16.817 -0.2155  0.2213  0.6562
 8617TIP3    H147342   6.765   0.849  16.904 -0.7475  2.5745  0.5680
 8617TIP3    H247343   6.876   0.915  16.825  0.0063  0.1529 -0.5220
 8618TIP3   OH247344   3.744   3.418  12.452 -0.3518  0.1974 -0.0841
 8618TIP3    H147345   3.779   3.497  12.410  1.1801 -0.1431  0.4731
 8618TIP3    H247346   3.767   3.347  12.391  2.1624 -0.3443  1.3264
 8619TIP3   OH247347   3.884   1.380   2.990 -0.2367  0.4829 -0.3956
 8619TIP3    H147348   3.953   1.409   2.931 -0.3302 -1.1378 -1.3592
 8619TIP3    H247349   3.821   1.335   2.933 -1.7894  1.3649  0.5413
 8620TIP3   OH247350   1.113   6.741   2.721 -0.1483 -0.8043 -0.4114
 8620TIP3    H147351   1.094   6.661   2.673 -0.6851 -0.6588 -0.4510
 8620TIP3    H247352   1.045   6.744   2.789 -1.6105  0.8018 -1.8499
 8621TIP3   OH247353   0.953   4.904   3.768 -0.1685 -0.1850  0.1232
 8621TIP3    H147354   0.923   4.985   3.728  1.2802 -0.1315 -0.9487
 8621TIP3    H247355   0.990   4.854   3.695 -0.9770 -1.7994  0.7734
 8622TIP3   OH247356   0.793   0.717   0.538 -0.4249  0.4943  0.4704
 8622TIP3    H147357   0.865   0.763   0.580  0.1389  0.4346 -0.3966
 8622TIP3    H247358   0.793   0.751   0.448 -0.2295 -0.9360 -0.0870
 8623TIP3   OH247359   5.056   2.450  17.173 -0.2130  0.2891 -0.6548
 8623TIP3    H147360   5.131   2.498  17.137  0.1260 -0.0319 -0.3853
 8623TIP3    H247361   4.980   2.496  17.139  0.1008  1.2579 -0.0817
 8624TIP3   OH247362   3.543   5.639   4.441  0.1216 -0.1917  0.3006
 8624TIP3    H147363   3.554   5.734   4.447  0.1823 -0.2622  2.0951
 8624TIP3    H247364   3.618   5.610   4.389  0.8288  0.6395  0.8025
 8625TIP3   OH247365   2.458   2.146  16.911  0.2841  0.7425 -0.3586
 8625TIP3    H147366   2.381   2.190  16.947 -0.1566  0.7911 -1.3054
 8625TIP3    H247367   2.506   2.114  16.987  0.3590  2.4074  0.3405
 8626TIP3   OH247368   5.399   0.550   4.830 -0.1595 -0.2608  0.8159
 8626TIP3    H147369   5.494   0.551   4.818 -0.2518  2.7244 -0.6209
 8626TIP3    H247370   5.366   0.506   4.752 -0.0077  1.4205 -0.2442
 8627TIP3   OH247371   5.101   1.729   1.501  0.1113 -0.4055 -0.3070
 8627TIP3    H147372   5.143   1.664   1.444  0.3568  0.2676 -0.9134
 8627TIP3    H247373   5.067   1.795   1.440 -2.4828 -1.2814  0.1036
 8628TIP3   OH247374   5.958   2.547   0.499  0.0604  0.3087 -0.1161
 8628TIP3    H147375   6.019   2.558   0.572 -0.1010 -1.0472  0.2629
 8628TIP3    H247376   5.873   2.572   0.534  0.0450  0.0186  0.0639
 8629TIP3   OH247377   4.074   0.761  15.931  1.0114  0.2624  0.1228
 8629TIP3    H147378   4.032   0.827  15.876  2.0241  0.1736 -0.7864
 8629TIP3    H247379   4.035   0.774  16.018 -0.0718  0.8919 -0.4325
 8630TIP3   OH247380   1.199   0.777  11.445  0.2914 -0.5645  0.4789
 8630TIP3    H147381   1.176   0.753  11.535  0.5762 -0.1019  0.6794
 8630TIP3    H247382   1.121   0.819  11.410  0.2882 -0.4495  0.6223
 8631TIP3   OH247383   1.491   4.904  11.411  0.2265 -0.5653 -0.6641
 8631TIP3    H147384   1.552   4.977  11.422 -0.4612  0.3530 -2.5195
 8631TIP3    H247385   1.534   4.847  11.347  0.0235 -0.9244 -0.4799
 8632TIP3   OH247386   1.615   2.294  12.984  0.8388  0.1161  0.2500
 8632TIP3    H147387   1.642   2.259  12.899  0.4098 -1.7338  0.8136
 8632TIP3    H247388   1.579   2.218  13.030  0.5176  1.2002  1.8668
 8633TIP3   OH247389   6.516   6.738  12.541 -0.1082 -0.7249 -0.7831
 8633TIP3    H147390   6.479   6.731  12.454 -1.0418 -1.9873 -0.3161
 8633TIP3    H247391   6.579   6.666  12.546  1.2169  0.3801 -0.9839
 8634TIP3   OH247392   6.084   4.158  16.411 -0.0212  0.2443  0.0513
 8634TIP3    H147393   5.993   4.132  16.394 -0.2572  2.5533 -3.1747
 8634TIP3    H247394   6.135   4.104  16.351  0.8194 -0.9541  1.7664
 8635TIP3   OH247395   4.889   4.519   5.689  0.6968  0.4246  0.3780
 8635TIP3    H147396   4.886   4.490   5.598 -1.4992  0.9453  0.2329
 8635TIP3    H247397   4.798   4.514   5.719  1.2772  0.8793  2.3483
 8636TIP3   OH247398   4.487   5.410  15.314  0.3529 -0.0941 -0.4613
 8636TIP3    H147399   4.475   5.453  15.229 -1.1159  0.4513 -0.0086
 8636TIP3    H247400   4.433   5.461  15.374 -0.9763 -2.2152  0.2222
 8637TIP3   OH247401   1.552   3.564   4.140  0.1526  0.0949 -0.5124
 8637TIP3    H147402   1.616   3.507   4.098  0.0623 -1.1840  0.9842
 8637TIP3    H247403   1.599   3.603   4.214 -0.5959 -0.3696  0.2285
 8638TIP3   OH247404   6.408   1.942  11.631 -0.0354 -0.3354  0.1957
 8638TIP3    H147405   6.387   1.921  11.540  0.3190 -1.1840  0.2992
 8638TIP3    H247406   6.324   1.970  11.669 -0.1151  0.3511 -0.4733
 8639TIP3   OH247407   6.710   4.191   5.131  0.3691  0.0087  0.3114
 8639TIP3    H147408   6.725   4.237   5.214  1.8890 -1.2430  0.7804
 8639TIP3    H247409   6.699   4.261   5.067 -0.2950  1.0085  1.4629
 8640TIP3   OH247410   1.762   5.974  12.229  0.2577  0.5689 -0.1755
 8640TIP3    H147411   1.838   5.972  12.170 -1.0982  2.0002 -2.1313
 8640TIP3    H247412   1.710   5.898  12.204  2.1419 -2.0234  2.9909
 8641TIP3   OH247413   0.505   3.965   2.791 -0.2377  0.4272  0.4635
 8641TIP3    H147414   0.522   3.894   2.729 -1.5098  0.0126  0.5511
 8641TIP3    H247415   0.580   3.966   2.849  0.5975  0.2897 -0.5886
 8642TIP3   OH247416   4.238   2.386  15.863  0.1679  0.4262  0.3296
 8642TIP3    H147417   4.276   2.310  15.907  0.1919  2.0811  3.4393
 8642TIP3    H247418   4.303   2.456  15.876 -0.8242  1.5483 -0.5099
 8643TIP3   OH247419   4.530   0.240  14.536 -0.0641  0.2199 -0.3780
 8643TIP3    H147420   4.487   0.311  14.583 -0.0401 -0.8158  1.3005
 8643TIP3    H247421   4.463   0.170  14.533  0.4149 -0.2358 -0.6399
 8644TIP3   OH247422   0.634   1.712   4.933 -0.3040  0.3990  0.2887
 8644TIP3    H147423   0.722   1.721   4.970  0.6151  1.5552 -1.9365
 8644TIP3    H247424   0.646   1.657   4.856 -1.8279 -0.6596  0.7666
 8645TIP3   OH247425   6.825   4.254   0.372  0.2624 -0.5288  0.0755
 8645TIP3    H147426   6.897   4.212   0.325  1.1655 -0.0777  0.9984
 8645TIP3    H247427   6.834   4.222   0.462  0.2424  0.6660  0.5339
 8646TIP3   OH247428   4.621   6.000  13.400 -0.4856 -0.1137 -0.2405
 8646TIP3    H147429   4.537   5.959  13.419 -0.1534 -0.0876  1.3822
 8646TIP3    H247430   4.609   6.042  13.315 -1.8342 -0.8364 -0.4243
 8647TIP3   OH247431   3.331   1.753   3.035  0.4198  0.0911  0.0406
 8647TIP3    H147432   3.292   1.839   3.022 -0.4800 -0.6464 -2.9746
 8647TIP3    H247433   3.387   1.739   2.958  1.0984 -1.7268  0.7921
 8648TIP3   OH247434   3.299   0.173  12.384 -0.2721  0.0430 -0.5694
 8648TIP3    H147435   3.254   0.164  12.300 -2.4680  1.2177  0.3971
 8648TIP3    H247436   3.307   0.267  12.398 -0.2580 -0.1247  0.6888
 8649TIP3   OH247437   1.170   6.346   0.913 -0.0810  0.6141 -0.5423
 8649TIP3    H147438   1.255   6.313   0.885  0.5081  1.1917  0.5011
 8649TIP3    H247439   1.161   6.430   0.867  1.1944  1.8971  1.3750
 8650TIP3   OH247440   0.304   2.007   4.305  0.2207 -0.7757 -0.3366
 8650TIP3    H147441   0.342   2.020   4.391 -0.6863 -3.5800  0.6220
 8650TIP3    H247442   0.217   2.048   4.310  0.8109  0.5391 -0.5366
 8651TIP3   OH247443   1.663   3.894   0.570  0.3360  0.0091 -0.2606
 8651TIP3    H147444   1.647   3.983   0.602  0.5702 -0.6055  1.6887
 8651TIP3    H247445   1.757   3.881   0.584  0.8985  0.3421 -3.0471
 8652TIP3   OH247446   1.090   2.888   4.769 -0.1009  0.2243  0.6033
 8652TIP3    H147447   1.032   2.963   4.761 -0.1499  0.0715 -0.8246
 8652TIP3    H247448   1.047   2.820   4.717  1.8065  0.4190 -1.3627
 8653TIP3   OH247449   0.241   3.967  16.601  0.3951  0.0905 -0.0044
 8653TIP3    H147450   0.163   3.928  16.563 -0.8281  1.9624  0.4399
 8653TIP3    H247451   0.271   4.031  16.536  1.9947 -1.0502 -0.4600
 8654TIP3   OH247452   2.971   2.211   4.041  0.2678 -0.1422 -0.7889
 8654TIP3    H147453   2.970   2.306   4.034  1.0069  0.0565  1.1129
 8654TIP3    H247454   3.055   2.192   4.084 -0.1777 -1.6033 -0.5289
 8655TIP3   OH247455   2.220   3.595  15.735 -0.3925  0.3851  0.0974
 8655TIP3    H147456   2.258   3.511  15.711 -1.2913  0.3932 -1.4640
 8655TIP3    H247457   2.294   3.656  15.731 -0.3207  0.2248 -1.9037
 8656TIP3   OH247458   2.476   6.204  13.274  0.0315  0.2718 -0.1646
 8656TIP3    H147459   2.460   6.200  13.180  0.1101  0.8467 -0.2064
 8656TIP3    H247460   2.549   6.144  13.289  0.9231  1.1921 -0.6807
 8657TIP3   OH247461   5.888   0.215  12.936  0.1723 -0.3638 -0.0954
 8657TIP3    H147462   5.866   0.174  12.852  0.1856 -0.7155  0.0695
 8657TIP3    H247463   5.983   0.227  12.932  0.5411 -2.4936  0.7748
 8658TIP3   OH247464   0.176   3.150  11.856  0.1882 -0.1849 -0.0588
 8658TIP3    H147465   0.177   3.100  11.937  1.4777 -1.8583 -1.0277
 8658TIP3    H247466   0.083   3.164  11.837 -0.1523 -0.6322  1.1853
 8659TIP3   OH247467   5.943   6.756   1.588 -0.0445 -0.3488  0.2824
 8659TIP3    H147468   5.894   6.700   1.649  1.2201 -1.2396  0.5261
 8659TIP3    H247469   6.023   6.779   1.636 -0.2893  1.2369 -0.0280
 8660TIP3   OH247470   6.618   5.213   6.510 -0.3107  0.1872  0.4439
 8660TIP3    H147471   6.608   5.124   6.477 -0.7741  0.1245  0.7504
 8660TIP3    H247472   6.605   5.269   6.433  0.2832 -0.0163  0.1901
 8661TIP3   OH247473   2.648   5.968  14.543  0.0283  0.1969 -0.3675
 8661TIP3    H147474   2.717   6.035  14.551 -0.7085  0.9779 -0.4152
 8661TIP3    H247475   2.597   5.978  14.623 -1.3974  1.2096 -1.3476
 8662TIP3   OH247476   1.533   2.611  16.500  0.1843  0.3690 -0.1062
 8662TIP3    H147477   1.505   2.650  16.417  0.9949 -0.0339 -0.5733
 8662TIP3    H247478   1.620   2.648  16.516  0.0249  0.4684  0.5880
 8663TIP3   OH247479   3.319   5.796  13.052  0.3701  0.0916 -0.4568
 8663TIP3    H147480   3.387   5.756  13.106  1.0047  0.4244 -1.0039
 8663TIP3    H247481   3.302   5.880  13.093  0.7478  0.2815 -0.6831
 8664TIP3   OH247482   5.939   5.520   1.162 -0.1183 -0.1417 -0.3146
 8664TIP3    H147483   5.923   5.613   1.181  2.1868  0.0489  1.0656
 8664TIP3    H247484   6.018   5.520   1.109  0.2823 -1.3388  0.2472
 8665TIP3   OH247485   4.143   1.027   4.335 -0.2040  0.4622 -0.5776
 8665TIP3    H147486   4.218   1.082   4.359  0.0751 -0.3618  0.5002
 8665TIP3    H247487   4.129   0.971   4.411 -1.1412 -0.2523 -1.2583
 8666TIP3   OH247488   3.877   0.408  14.916 -0.0954  0.0564 -0.0467
 8666TIP3    H147489   3.941   0.479  14.916 -0.1277  0.0901  0.7310
 8666TIP3    H247490   3.907   0.348  14.984  0.1051 -0.8434 -0.9120
 8667TIP3   OH247491   2.454   6.495  15.057 -0.1625 -0.1072  0.2752
 8667TIP3    H147492   2.398   6.497  14.979  0.3438  2.3250 -0.1100
 8667TIP3    H247493   2.393   6.481  15.129 -1.0120  0.3883 -0.3262
 8668TIP3   OH247494   6.807   1.800   4.013  0.1106 -0.2643  0.3282
 8668TIP3    H147495   6.753   1.722   3.997 -0.2055 -0.0927  0.5374
 8668TIP3    H247496   6.852   1.815   3.930 -0.6010 -0.0791 -0.0417
 8669TIP3   OH247497   2.892   4.880   0.132  0.2042 -0.0172  0.2469
 8669TIP3    H147498   2.949   4.805   0.119  1.1022  0.8453 -0.9297
 8669TIP3    H247499   2.815   4.861   0.077  0.8559  0.3494 -0.8172
 8670TIP3   OH247500   3.502   5.484   3.205  0.2592  0.3875 -0.0708
 8670TIP3    H147501   3.512   5.388   3.206  0.5161  0.4004 -0.7485
 8670TIP3    H247502   3.459   5.504   3.288  0.4739 -0.2866  0.2187
 8671TIP3   OH247503   0.359   5.043   4.846 -0.2943  0.5201 -0.0200
 8671TIP3    H147504   0.335   4.981   4.915 -0.7283 -0.5417 -1.1104
 8671TIP3    H247505   0.284   5.044   4.787  0.7730  0.0780 -1.4199
 8672TIP3   OH247506   0.674   6.134   5.237 -0.7265 -0.0234  1.0800
 8672TIP3    H147507   0.699   6.163   5.149  1.8196 -0.8628  1.4541
 8672TIP3    H247508   0.578   6.129   5.234 -0.7079 -0.2659 -1.7144
 8673TIP3   OH247509   3.139   1.542  14.208 -0.2726 -0.1393  0.0766
 8673TIP3    H147510   3.180   1.562  14.124 -1.1910 -1.7149 -0.7958
 8673TIP3    H247511   3.055   1.587  14.205  1.3500  3.5287  2.0777
 8674TIP3   OH247512   4.975   1.376  15.587 -0.1610 -0.4271  0.1209
 8674TIP3    H147513   4.892   1.328  15.581 -0.4602  0.1979 -1.5489
 8674TIP3    H247514   4.950   1.467  15.570  1.0919 -0.5148 -2.9693
 8675TIP3   OH247515   0.371   6.746   4.994  0.0554  0.9397  0.4834
 8675TIP3    H147516   0.285   6.771   5.028  0.2766 -1.3262  3.0525
 8675TIP3    H247517   0.432   6.765   5.065  1.6838  1.9479 -1.0698
 8676TIP3   OH247518   0.756   4.372   2.082  0.1311  0.3008  0.6380
 8676TIP3    H147519   0.705   4.335   2.154  0.5420 -0.3314  0.6154
 8676TIP3    H247520   0.736   4.314   2.008 -0.5553  1.1462  0.1447
 8677TIP3   OH247521   3.127   5.717  15.423 -0.2404  0.3455 -0.1974
 8677TIP3    H147522   3.192   5.653  15.396  0.0697 -0.2539  1.8205
 8677TIP3    H247523   3.047   5.691  15.378  0.7336  0.7756 -2.2908
 8678TIP3   OH247524   5.333   6.282   5.913  1.0359  0.1441 -0.4237
 8678TIP3    H147525   5.242   6.282   5.883  0.9930  1.3909 -0.3267
 8678TIP3    H247526   5.375   6.212   5.861  0.4985  0.9021 -1.9533
 8679TIP3   OH247527   0.957   3.709   3.431  0.2985 -0.2085 -0.2851
 8679TIP3    H147528   1.022   3.643   3.407 -0.2607 -1.4597  1.4486
 8679TIP3    H247529   1.005   3.771   3.486  0.1995 -0.8417  0.5519
 8680TIP3   OH247530   5.240   2.690  12.127 -0.2790  0.2206 -0.6703
 8680TIP3    H147531   5.281   2.700  12.213  2.1711 -0.7661 -1.6272
 8680TIP3    H247532   5.165   2.633  12.143  0.4229 -0.3523  0.7496
 8681TIP3   OH247533   1.033   0.574   1.723 -0.3535  0.1041 -0.3530
 8681TIP3    H147534   0.982   0.574   1.803 -0.5858  3.5457 -0.3412
 8681TIP3    H247535   0.968   0.577   1.652 -0.1592  0.1276 -0.5331
 8682TIP3   OH247536   4.690   3.835   5.128  0.6291 -0.1635  0.2724
 8682TIP3    H147537   4.595   3.827   5.128  0.3704  2.1776 -0.2120
 8682TIP3    H247538   4.713   3.852   5.220  0.3287  1.2331  0.1118
 8683TIP3   OH247539   1.605   3.437  17.216  0.4027  0.3899  0.4020
 8683TIP3    H147540   1.665   3.467  17.284  1.4523 -1.2915  0.2838
 8683TIP3    H247541   1.571   3.354  17.250  0.4839 -0.1785 -0.8469
 8684TIP3   OH247542   5.589   0.871   3.575 -0.1535 -0.4062 -0.6412
 8684TIP3    H147543   5.586   0.776   3.591  1.2060 -0.3914 -0.1839
 8684TIP3    H247544   5.669   0.900   3.619 -1.3649  1.2277  0.6374
 8685TIP3   OH247545   0.194   4.118  11.983 -0.2354 -0.0854  0.5359
 8685TIP3    H147546   0.145   4.193  12.017  0.3788  0.9947 -0.8631
 8685TIP3    H247547   0.282   4.152  11.967 -0.3089 -0.6919 -1.4472
 8686TIP3   OH247548   2.306   3.917   0.023 -0.4234  0.5717  0.1936
 8686TIP3    H147549   2.286   3.984  -0.043 -0.0429  0.6410  0.1450
 8686TIP3    H247550   2.229   3.915   0.079 -0.5346  0.8876  0.0584
 8687TIP3   OH247551   0.761   4.495   2.681 -0.3469  0.1751 -0.0092
 8687TIP3    H147552   0.775   4.547   2.761  1.9425 -2.9518  1.8788
 8687TIP3    H247553   0.720   4.556   2.620 -0.4418  3.3339  2.8652
 8688TIP3   OH247554   1.166   0.443   0.479 -0.5227 -0.1001 -0.2640
 8688TIP3    H147555   1.145   0.410   0.391 -0.4325  0.1278 -0.3724
 8688TIP3    H247556   1.254   0.479   0.470 -0.3866 -0.3684  0.0028
 8689TIP3   OH247557   0.484   2.876   2.374 -0.1808 -0.1347  0.1232
 8689TIP3    H147558   0.565   2.925   2.384  0.8051 -1.9852  2.1068
 8689TIP3    H247559   0.473   2.867   2.279  2.7018 -0.9410 -0.2356
 8690TIP3   OH247560   3.940   3.007   4.077 -0.5959 -0.2939 -0.5154
 8690TIP3    H147561   3.933   2.966   4.163  0.2882 -1.0884 -0.8052
 8690TIP3    H247562   3.854   3.045   4.061 -0.8548 -0.3883  0.5931
 8691TIP3   OH247563   6.030   3.396  13.004 -0.3338 -0.1587  0.0534
 8691TIP3    H147564   5.986   3.462  12.949 -1.0105 -1.4632 -1.0489
 8691TIP3    H247565   5.967   3.378  13.074  0.4077  1.2916  1.1527
 8692TIP3   OH247566   0.689   6.239   4.983  0.2886  0.2798  0.1268
 8692TIP3    H147567   0.625   6.291   4.936 -1.6859 -3.1971 -1.4438
 8692TIP3    H247568   0.733   6.188   4.915 -0.0208 -2.2239  1.6530
 8693TIP3   OH247569   1.075   0.043  11.251  0.0307  0.2108 -0.0140
 8693TIP3    H147570   1.098   0.095  11.174  2.5691  0.1753  0.6441
 8693TIP3    H247571   1.080  -0.048  11.221 -1.7378  0.2150 -0.4599
 8694TIP3   OH247572   6.333   2.422  11.333  0.0427  1.1037  0.5738
 8694TIP3    H147573   6.414   2.433  11.382  0.6757 -0.2449 -0.1071
 8694TIP3    H247574   6.275   2.373  11.392  0.3415  0.5789  0.4267
 8695TIP3   OH247575   6.642   5.172  11.513 -0.2945 -0.4619 -0.2214
 8695TIP3    H147576   6.631   5.259  11.473 -1.8057 -0.7132 -0.4012
 8695TIP3    H247577   6.554   5.136  11.516  0.1064 -1.3977  1.2401
 8696TIP3   OH247578   5.778   4.119  12.367  0.1453 -0.1747 -0.4881
 8696TIP3    H147579   5.817   4.129  12.454 -1.5999  2.7369  0.1094
 8696TIP3    H247580   5.688   4.090  12.385 -0.2555  0.5357 -1.2906
 8697TIP3   OH247581   4.313   6.348  16.311  0.0789  0.7637  0.2507
 8697TIP3    H147582   4.310   6.266  16.262 -0.2016  1.6072 -1.2027
 8697TIP3    H247583   4.383   6.335  16.376  0.0787 -0.5873  0.0035
 8698TIP3   OH247584   3.100   1.933  16.547  0.3123 -0.2293 -0.1107
 8698TIP3    H147585   3.014   1.925  16.507 -0.3781  0.5525  1.1719
 8698TIP3    H247586   3.087   1.989  16.624  1.5847 -1.6687  1.2264
 8699TIP3   OH247587   4.796   0.612   5.129 -0.2348  0.1686  0.0420
 8699TIP3    H147588   4.786   0.661   5.210 -0.0576 -0.1539  0.2581
 8699TIP3    H247589   4.720   0.553   5.127 -0.3124  0.2694 -0.0965
 8700TIP3   OH247590   5.390   1.420  12.642 -0.1441 -0.0026 -0.1247
 8700TIP3    H147591   5.313   1.363  12.642 -1.4229  1.6528 -0.2815
 8700TIP3    H247592   5.386   1.467  12.725  0.6650  0.1566 -0.1600
 8701TIP3   OH247593   2.648   6.575  15.233  0.7183  0.4356 -0.0716
 8701TIP3    H147594   2.591   6.539  15.166 -1.1119 -1.0761  2.1650
 8701TIP3    H247595   2.626   6.668  15.236  1.5066  0.7410 -2.1109
 8702TIP3   OH247596   3.964   3.257  13.629  0.0990  0.0789  0.1159
 8702TIP3    H147597   3.940   3.238  13.720 -0.8874  2.5182  0.4516
 8702TIP3    H247598   3.997   3.347  13.632 -2.9916  1.4935 -2.3437
 8703TIP3   OH247599   2.924   2.027   2.212  0.7732  0.5202 -0.4626
 8703TIP3    H147600   2.885   2.113   2.228  1.1689  0.8940 -1.3986
 8703TIP3    H247601   2.915   2.015   2.117  2.5960  0.4720 -0.6713
 8704TIP3   OH247602   5.786   4.517  14.532  0.1772 -0.3570 -0.2014
 8704TIP3    H147603   5.848   4.510  14.605  2.6050  1.7352 -1.9149
 8704TIP3    H247604   5.729   4.591  14.556  2.2235  1.6516 -1.1278
 8705TIP3   OH247605   6.263   1.890   5.428 -0.4597  0.0532  0.3663
 8705TIP3    H147606   6.213   1.879   5.509 -2.3663 -0.6718 -0.8456
 8705TIP3    H247607   6.296   1.802   5.409 -0.0661  0.2099  0.3239
 8706TIP3   OH247608   0.655   1.991   2.695  0.4007  0.3654 -0.0730
 8706TIP3    H147609   0.565   2.020   2.709 -0.5825 -2.2755 -0.3103
 8706TIP3    H247610   0.657   1.964   2.603  0.5190 -2.2293  0.6117
 8707TIP3   OH247611   1.688   2.401   4.917  0.5202  0.0131 -0.0164
 8707TIP3    H147612   1.650   2.364   4.838  2.4210 -0.2621 -0.8446
 8707TIP3    H247613   1.765   2.449   4.887 -0.7432  3.0872  1.2424
 8708TIP3   OH247614   5.951   1.663  17.166  0.6630 -0.5267 -0.0079
 8708TIP3    H147615   5.958   1.743  17.114  2.4084 -0.1011  0.8044
 8708TIP3    H247616   5.904   1.690  17.245  1.1606 -0.3199  0.2206
 8709TIP3   OH247617   0.191   6.282  15.330 -0.2602  0.2098  0.2444
 8709TIP3    H147618   0.249   6.217  15.369  0.2067 -2.3691 -4.0896
 8709TIP3    H247619   0.249   6.337  15.277 -1.3150 -0.3523 -1.5901
 8710TIP3   OH247620   1.153   1.506  15.917  0.3992  0.0927 -0.2580
 8710TIP3    H147621   1.063   1.503  15.949  0.1216 -0.4694 -1.0463
 8710TIP3    H247622   1.206   1.517  15.995 -0.4308  2.1657  0.0851
 8711TIP3   OH247623   2.358   3.079   5.138 -0.4732  0.0148  0.0592
 8711TIP3    H147624   2.360   3.087   5.233  1.0644 -1.6066  0.2238
 8711TIP3    H247625   2.333   2.988   5.122 -0.6177  0.2377 -1.0862
 8712TIP3   OH247626   3.665   2.420   4.547  0.3067  0.2302  0.2265
 8712TIP3    H147627   3.586   2.474   4.539  1.3590  1.9532  0.8776
 8712TIP3    H247628   3.728   2.460   4.487  0.3840 -1.7799 -1.1079
 8713TIP3   OH247629   2.605   5.012  13.211 -0.5059  0.4337  1.0857
 8713TIP3    H147630   2.686   4.979  13.250  1.7111  0.8312 -2.6313
 8713TIP3    H247631   2.536   4.963  13.253  1.9264 -2.3326  2.2029
 8714TIP3   OH247632   2.954   1.491   2.055  0.3386  0.3963  0.2099
 8714TIP3    H147633   2.933   1.457   2.142 -0.1136  0.3995  0.1037
 8714TIP3    H247634   2.870   1.497   2.010  0.7615 -1.7188 -1.0203
 8715TIP3   OH247635   0.717   0.883  15.097  0.0187 -0.3459  0.3491
 8715TIP3    H147636   0.658   0.853  15.027  0.9142 -1.4248  0.0308
 8715TIP3    H247637   0.736   0.804  15.147  0.9460  0.0565  0.6424
 8716TIP3   OH247638   1.163   3.001   4.998 -0.0931 -0.3522  0.3373
 8716TIP3    H147639   1.222   2.949   5.052  0.6092 -0.1361 -0.2139
 8716TIP3    H247640   1.143   2.943   4.924 -1.4618 -0.8480  1.0515
 8717TIP3   OH247641   5.781   0.042   0.000 -0.0522  0.4068  0.0653
 8717TIP3    H147642   5.805  -0.016   0.073 -1.0535 -0.2473 -0.1066
 8717TIP3    H247643   5.736   0.116   0.042 -1.1069 -0.2290  0.0882
 8718TIP3   OH247644   4.628   4.416   0.335 -0.6024 -0.1779 -0.5892
 8718TIP3    H147645   4.703   4.380   0.289 -0.1078 -0.0094  0.0705
 8718TIP3    H247646   4.577   4.340   0.361 -0.4120 -0.3157 -0.6189
 8719TIP3   OH247647   2.429   1.639  13.747 -0.0291 -0.6569 -0.0032
 8719TIP3    H147648   2.342   1.609  13.773 -0.1596 -0.7238 -0.5019
 8719TIP3    H247649   2.448   1.592  13.666  0.3574 -0.4363 -0.0470
 8720TIP3   OH247650   2.417   4.412   2.181 -0.6066 -0.1377  0.2034
 8720TIP3    H147651   2.498   4.378   2.143 -0.9826 -0.2944 -0.4752
 8720TIP3    H247652   2.405   4.496   2.137 -2.4743 -1.4968 -2.1288
 8721TIP3   OH247653   0.482   2.794  12.420  0.1096 -0.5339  0.1591
 8721TIP3    H147654   0.524   2.875  12.450  0.5739  0.5278 -2.9469
 8721TIP3    H247655   0.537   2.765  12.347 -1.8799 -1.8311 -0.8963
 8722TIP3   OH247656   1.593   2.688  13.457 -0.6037  0.2846  0.1856
 8722TIP3    H147657   1.514   2.726  13.497 -1.9364 -1.6263 -0.4775
 8722TIP3    H247658   1.601   2.601  13.497  1.1653  0.4187  0.1913
 8723TIP3   OH247659   3.521   1.393   3.065 -0.2770  0.2560 -0.4137
 8723TIP3    H147660   3.426   1.407   3.064 -0.3158  0.0129 -0.3074
 8723TIP3    H247661   3.557   1.469   3.110 -0.4301  0.3145 -0.3910
 8724TIP3   OH247662   0.729   6.143   5.505 -0.0878 -0.0514 -0.2653
 8724TIP3    H147663   0.668   6.076   5.536  0.3501  0.3873  1.6270
 8724TIP3    H247664   0.704   6.156   5.413 -2.2598 -0.5224  0.1893
 8725TIP3   OH247665   2.435   0.838   3.856  0.2168  0.4573  0.2184
 8725TIP3    H147666   2.531   0.834   3.852  0.2917  0.3477  1.4759
 8725TIP3    H247667   2.412   0.913   3.802  0.9764  0.2493 -0.4246
 8726TIP3   OH247668   4.591   3.843   3.148  0.5327  0.3272 -0.0084
 8726TIP3    H147669   4.587   3.934   3.176 -1.0295  0.1440  0.4151
 8726TIP3    H247670   4.504   3.807   3.166  0.8474 -1.0222 -0.9594
 8727TIP3   OH247671   3.981   6.688   5.377 -0.2856 -0.5077  0.6511
 8727TIP3    H147672   4.018   6.748   5.312 -0.0132  0.6558  1.8103
 8727TIP3    H247673   3.948   6.614   5.327 -0.8665  0.7345 -0.8745
 8728TIP3   OH247674   6.414   5.225   3.019 -0.8872  0.4630 -0.2291
 8728TIP3    H147675   6.431   5.169   3.095 -1.6803  0.1714 -0.2631
 8728TIP3    H247676   6.382   5.307   3.058  0.1338  0.8577 -0.1865
 8729TIP3   OH247677   4.352   5.391   3.192 -0.2630 -0.5053  0.2391
 8729TIP3    H147678   4.407   5.469   3.203  1.7143 -1.4331 -2.1540
 8729TIP3    H247679   4.337   5.360   3.282  0.0742  1.8080  1.1611
 8730TIP3   OH247680   5.199   6.787  14.578  0.3778 -0.5139 -0.2623
 8730TIP3    H147681   5.162   6.707  14.540 -0.6551 -0.5187  0.7142
 8730TIP3    H247682   5.142   6.857  14.546  1.2008 -0.1482 -1.0059
 8731TIP3   OH247683   0.912   0.862  10.561 -0.0166  0.3689  0.1429
 8731TIP3    H147684   0.846   0.928  10.536 -0.5548 -0.0154  0.5300
 8731TIP3    H247685   0.905   0.794  10.495  2.4940  1.9432 -1.9439
 8732TIP3   OH247686   4.762   3.537  12.225 -0.2144 -0.3997 -0.2218
 8732TIP3    H147687   4.730   3.542  12.315  0.1139  2.0377 -0.1841
 8732TIP3    H247688   4.856   3.518  12.234 -0.1070  0.2115 -0.0259
 8733TIP3   OH247689   0.482   5.288   4.508  0.2946 -0.5415 -0.5473
 8733TIP3    H147690   0.561   5.235   4.500  0.8969  0.2544  0.0007
 8733TIP3    H247691   0.430   5.265   4.431  1.5881 -0.1889 -1.5632
 8734TIP3   OH247692   0.474   3.564   1.497 -0.1170  0.2082 -0.3226
 8734TIP3    H147693   0.559   3.597   1.472 -0.9733  2.3086 -0.6591
 8734TIP3    H247694   0.421   3.569   1.418 -1.3323  1.7058  0.5327
 8735TIP3   OH247695   6.200   4.958   5.895  0.2197 -0.1328  0.3136
 8735TIP3    H147696   6.118   5.005   5.905  0.6558  1.1629 -1.5779
 8735TIP3    H247697   6.184   4.872   5.934 -1.6177  0.5057  1.0541
 8736TIP3   OH247698   3.182   0.465   3.416 -0.1576  0.5148 -0.6440
 8736TIP3    H147699   3.121   0.482   3.488  0.2360  0.1997 -0.2211
 8736TIP3    H247700   3.268   0.471   3.457  0.0439 -0.7287 -0.8501
 8737TIP3   OH247701   2.702   4.246  11.832  0.0948 -0.5607  0.2776
 8737TIP3    H147702   2.731   4.333  11.803 -0.2187 -1.0944 -1.8782
 8737TIP3    H247703   2.774   4.212  11.884  1.5394 -0.1534 -1.3497
 8738TIP3   OH247704   2.658   2.260   5.257 -0.4509  0.3709  0.2922
 8738TIP3    H147705   2.636   2.290   5.169  0.1975 -0.8951 -0.3202
 8738TIP3    H247706   2.573   2.247   5.300 -0.7831  3.3138  0.7264
 8739TIP3   OH247707   2.734   6.001   4.302  0.7576 -0.9206  0.5952
 8739TIP3    H147708   2.812   5.977   4.253  0.2288  1.4517 -1.6200
 8739TIP3    H247709   2.756   6.085   4.342 -0.2495 -0.8505  1.0255
 8740TIP3   OH247710   1.077   5.365   1.215  0.0097  0.3042 -0.7683
 8740TIP3    H147711   1.108   5.446   1.174  0.7600  0.7111  0.5158
 8740TIP3    H247712   1.038   5.315   1.144  0.4470  1.3580 -1.7849
 8741TIP3   OH247713   5.331   1.657  13.938 -0.4561  0.5452 -0.1941
 8741TIP3    H147714   5.294   1.724  13.881 -1.5748  0.4909  0.4409
 8741TIP3    H247715   5.307   1.684  14.026  0.6416  0.2464  0.2193
 8742TIP3   OH247716   3.398   5.263   1.997  0.1624  0.6283 -0.3557
 8742TIP3    H147717   3.482   5.265   1.951 -0.0212  1.3907 -0.6685
 8742TIP3    H247718   3.412   5.202   2.070  0.6607 -0.0831 -1.0222
 8743TIP3   OH247719   0.214   3.165   3.995 -0.5907  0.4684 -0.5981
 8743TIP3    H147720   0.287   3.110   3.966 -0.4614 -0.0127  0.5919
 8743TIP3    H247721   0.136   3.119   3.966 -0.4988 -0.6174  0.7792
 8744TIP3   OH247722   1.508   6.095  12.671 -0.8894  0.6015 -0.0710
 8744TIP3    H147723   1.582   6.123  12.724 -0.7697  1.2764 -0.5863
 8744TIP3    H247724   1.437   6.082  12.734 -0.6585  1.0862  0.2962
 8745TIP3   OH247725   2.734   3.989   0.108 -0.6037 -0.6278  0.0172
 8745TIP3    H147726   2.811   3.939   0.081 -1.4349 -1.2458 -1.3105
 8745TIP3    H247727   2.735   4.067   0.053 -0.4456 -0.1821  0.6376
 8746TIP3   OH247728   4.107   0.465   2.079  0.2099  0.3921 -0.0924
 8746TIP3    H147729   4.102   0.480   2.173  0.9007 -0.2009  0.0468
 8746TIP3    H247730   4.177   0.523   2.048  0.4634  0.0690 -0.1260
 8747TIP3   OH247731   4.126   0.660  13.019  0.1263  0.3457  0.5618
 8747TIP3    H147732   4.083   0.649  13.104  1.7842 -2.1799  1.1732
 8747TIP3    H247733   4.145   0.571  12.989 -0.4728  1.1507 -2.5509
 8748TIP3   OH247734   2.565   5.447  12.590  0.0602  0.1773 -0.2112
 8748TIP3    H147735   2.588   5.355  12.582 -2.8202 -0.5264 -1.2887
 8748TIP3    H247736   2.583   5.468  12.682 -0.4298 -1.8107  0.3820
 8749TIP3   OH247737   2.002   3.374   4.654 -0.4289  0.1323 -0.3074
 8749TIP3    H147738   1.951   3.412   4.583 -1.3489  0.0248  0.2769
 8749TIP3    H247739   2.050   3.448   4.691 -0.9497  0.4301 -0.2196
 8750TIP3   OH247740   1.845   0.528   1.502 -0.5512  0.3890  0.3908
 8750TIP3    H147741   1.872   0.562   1.587 -1.5824  0.4377  0.7111
 8750TIP3    H247742   1.900   0.576   1.439  0.5059  0.0605  1.0306
 8751TIP3   OH247743   2.235   4.849  12.465 -0.3855 -0.0221  0.3220
 8751TIP3    H147744   2.191   4.810  12.540 -0.7497 -0.3360 -0.0516
 8751TIP3    H247745   2.328   4.845  12.487 -0.4775 -0.2716  0.6792
 8752TIP3   OH247746   1.379   2.254  14.694  0.0755 -0.0990  0.3470
 8752TIP3    H147747   1.473   2.273  14.696  0.2738 -0.9957  0.0047
 8752TIP3    H247748   1.363   2.201  14.772 -0.5780  1.8662  1.6001
 8753TIP3   OH247749   0.217   5.141   3.651  0.4646  0.7507  0.3168
 8753TIP3    H147750   0.127   5.110   3.639  0.6075  0.5614 -0.3260
 8753TIP3    H247751   0.212   5.204   3.723 -0.3744  1.5816 -0.4559
 8754TIP3   OH247752   5.957   0.362   0.724 -0.5930 -0.0385 -0.1511
 8754TIP3    H147753   5.863   0.372   0.718 -0.4667  2.1656  0.4426
 8754TIP3    H247754   5.977   0.378   0.817  0.3831 -0.2347 -0.3072
 8755TIP3   OH247755   2.384   5.986   5.847  0.1955 -0.1631 -0.0182
 8755TIP3    H147756   2.431   5.904   5.834  0.7065  0.2147 -0.6855
 8755TIP3    H247757   2.388   6.002   5.941  1.0709 -0.3439 -0.0137
 8756TIP3   OH247758   1.129   0.665  16.333 -0.1432  0.4511  0.0485
 8756TIP3    H147759   1.130   0.651  16.238 -0.9749  0.0285  0.0950
 8756TIP3    H247760   1.128   0.760  16.343 -1.0247  0.4928 -0.3796
 8757TIP3   OH247761   1.826   6.160   3.576 -0.4231  0.3300 -0.1150
 8757TIP3    H147762   1.864   6.092   3.521  0.0914  0.1860  0.4068
 8757TIP3    H247763   1.736   6.132   3.591 -0.1803 -0.2922  0.1885
 8758TIP3   OH247764   1.116   5.646   4.862  0.0506 -0.2682  0.3657
 8758TIP3    H147765   1.039   5.646   4.918 -1.2109  1.8555 -1.2170
 8758TIP3    H247766   1.122   5.556   4.829 -1.3747 -0.6242  1.0270
 8759TIP3   OH247767   4.131   3.337   6.779  0.1499 -0.3820  0.1123
 8759TIP3    H147768   4.216   3.347   6.735  0.1671  0.8233  0.3823
 8759TIP3    H247769   4.119   3.242   6.786  1.3626 -0.5780 -0.1393
 8760TIP3   OH247770   3.887   5.209   2.099 -0.3038 -0.4871 -0.4045
 8760TIP3    H147771   3.896   5.279   2.034 -0.6204 -1.2600 -1.3213
 8760TIP3    H247772   3.793   5.193   2.105 -0.2675 -0.4966  0.1661
 8761TIP3   OH247773   4.088   1.264   5.676 -0.1527  0.5575 -0.1099
 8761TIP3    H147774   4.109   1.177   5.642 -0.4599  0.4836 -0.1123
 8761TIP3    H247775   4.035   1.304   5.606 -1.8471 -0.0461  0.7804
 8762TIP3   OH247776   5.677   4.216   4.581  0.1298 -0.4052  0.6059
 8762TIP3    H147777   5.637   4.141   4.537  1.6538 -0.2703 -1.1359
 8762TIP3    H247778   5.724   4.179   4.655  2.1933 -1.4705 -1.1363
 8763TIP3   OH247779   4.618   5.394   1.967  0.0978 -0.3236  0.4386
 8763TIP3    H147780   4.649   5.477   2.003 -0.9198  0.4748 -0.4462
 8763TIP3    H247781   4.532   5.381   2.009  0.3084 -1.0005  0.6657
 8764TIP3   OH247782   3.488   4.538   6.090 -0.1515  0.1522 -0.4789
 8764TIP3    H147783   3.459   4.571   6.005  1.3409  0.7028 -0.7960
 8764TIP3    H247784   3.491   4.615   6.147  1.3695  0.2515 -0.6611
 8765TIP3   OH247785   4.468   5.040  14.384 -0.1622 -0.5330  0.1737
 8765TIP3    H147786   4.379   5.007  14.390  0.5676 -2.7490 -0.1168
 8765TIP3    H247787   4.512   5.004  14.461  0.2454  1.4549  0.9194
 8766TIP3   OH247788   3.079   0.296   1.704 -0.3417 -0.1808  0.5339
 8766TIP3    H147789   2.992   0.335   1.707 -0.2929  0.0342 -0.4317
 8766TIP3    H247790   3.063   0.201   1.704 -0.5511 -0.1471  0.7724
 8767TIP3   OH247791   0.529   2.973  11.305  0.8663  0.1976 -0.3467
 8767TIP3    H147792   0.457   3.034  11.322  0.0437 -1.4274  2.8053
 8767TIP3    H247793   0.539   2.973  11.210 -2.2575  1.6404 -0.7843
 8768TIP3   OH247794   4.700   2.545   2.651 -0.7912  0.4180 -0.6388
 8768TIP3    H147795   4.771   2.529   2.713 -1.5945 -1.6888 -0.1874
 8768TIP3    H247796   4.730   2.620   2.599  2.4601 -1.3083 -1.5108
 8769TIP3   OH247797   0.311   2.892  16.679 -0.4945 -0.5046 -0.3505
 8769TIP3    H147798   0.344   2.836  16.749 -0.7985 -0.7763 -0.4253
 8769TIP3    H247799   0.252   2.953  16.724 -0.9702 -0.9089 -0.4194
 8770TIP3   OH247800   0.305   3.813  15.885 -0.8500  0.0794  0.4970
 8770TIP3    H147801   0.223   3.833  15.930  0.3736 -0.2696  3.0687
 8770TIP3    H247802   0.373   3.834  15.949  1.0109 -1.1365 -0.9680
 8771TIP3   OH247803   2.866   5.525   1.071 -0.1161 -0.6582  0.7641
 8771TIP3    H147804   2.918   5.605   1.061 -2.5352  1.1726  1.6057
 8771TIP3    H247805   2.892   5.470   0.998  0.0439  1.9041 -1.2759
 8772TIP3   OH247806   4.458   4.311  16.248  0.0824  0.9591  0.5362
 8772TIP3    H147807   4.396   4.383  16.233 -0.6078  0.7325  2.0762
 8772TIP3    H247808   4.460   4.301  16.343  2.1353  0.6122  0.4881
 8773TIP3   OH247809   4.575   0.750  12.741  0.2734 -0.0003 -0.2159
 8773TIP3    H147810   4.590   0.655  12.745 -0.4216 -0.0729  0.9277
 8773TIP3    H247811   4.648   0.783  12.688  1.0536 -1.0548  0.1533
 8774TIP3   OH247812   6.079   3.392   2.575  0.3125 -0.4476 -0.0119
 8774TIP3    H147813   6.003   3.336   2.588  1.4500 -2.2667 -0.7550
 8774TIP3    H247814   6.153   3.340   2.606  1.2630  1.3485  0.9020
 8775TIP3   OH247815   6.162   1.998  13.903 -0.0294  0.6890  0.4584
 8775TIP3    H147816   6.198   2.050  13.830 -0.9335  0.9246  0.1659
 8775TIP3    H247817   6.185   1.908  13.881 -2.3526  0.4576 -1.4188
 8776TIP3   OH247818   0.536   0.601   0.796 -0.0007  0.1972  0.4248
 8776TIP3    H147819   0.523   0.576   0.704 -0.3755 -1.1534  0.8243
 8776TIP3    H247820   0.621   0.564   0.819 -0.4385 -0.5165  0.9456
 8777TIP3   OH247821   0.276   6.327   5.032 -0.1412  0.4062  0.2217
 8777TIP3    H147822   0.286   6.232   5.035  1.0485  0.5302  1.1093
 8777TIP3    H247823   0.247   6.350   5.120 -0.7695  0.8444 -0.0931
 8778TIP3   OH247824   6.467   1.304  16.840 -0.0357  0.5075  0.6805
 8778TIP3    H147825   6.503   1.377  16.790  0.7919 -0.9915 -1.0293
 8778TIP3    H247826   6.539   1.273  16.894 -0.3769  0.9044  1.3809
 8779TIP3   OH247827   3.908   6.646  12.049 -0.6521  0.2135  0.0721
 8779TIP3    H147828   3.985   6.588  12.042 -0.7245  0.1553 -0.2636
 8779TIP3    H247829   3.942   6.726  12.088 -0.4309  0.1669 -0.0229
 8780TIP3   OH247830   1.200   0.954  16.994  0.2912 -0.5447 -0.2402
 8780TIP3    H147831   1.216   1.028  17.052  0.4640  0.1961 -1.2013
 8780TIP3    H247832   1.288   0.922  16.971  0.3427  0.5779 -1.8170
 8781TIP3   OH247833   0.733   5.902   3.801 -0.3882  0.2938 -0.5748
 8781TIP3    H147834   0.802   5.862   3.854 -0.3760  0.7802 -0.2140
 8781TIP3    H247835   0.652   5.863   3.834 -0.2339 -0.8767 -1.5412
 8782TIP3   OH247836   5.165   3.725  15.406 -0.4077  0.3874  0.2279
 8782TIP3    H147837   5.101   3.782  15.449 -2.3426 -0.3708 -1.4701
 8782TIP3    H247838   5.118   3.690  15.330  1.3867 -1.8176  0.0325
 8783TIP3   OH247839   3.097   1.743   0.204 -0.4002  0.3182  0.3275
 8783TIP3    H147840   3.086   1.655   0.241 -0.8870  0.2667  0.0763
 8783TIP3    H247841   3.065   1.801   0.273 -1.4482  0.2140 -0.0529
 8784TIP3   OH247842   4.215   2.858  15.615 -0.4146  0.0577  0.4833
 8784TIP3    H147843   4.179   2.786  15.562  0.6487  1.5643 -2.5051
 8784TIP3    H247844   4.262   2.815  15.686 -1.2924 -2.1331 -0.1852
 8785TIP3   OH247845   2.015   2.367  12.218 -0.3976  0.2910 -0.6251
 8785TIP3    H147846   2.061   2.442  12.257  0.4460 -0.1882 -0.6848
 8785TIP3    H247847   2.058   2.354  12.133  0.9017 -1.5656  0.2598
 8786TIP3   OH247848   4.806   2.298  12.764  0.1302  0.1146  0.0071
 8786TIP3    H147849   4.843   2.349  12.691 -1.3942  1.1553 -0.0833
 8786TIP3    H247850   4.797   2.361  12.835 -2.2793  0.1792 -0.2651
 8787TIP3   OH247851   4.155   2.147   5.526 -0.3567  0.1898  0.8738
 8787TIP3    H147852   4.192   2.231   5.553 -1.2856  1.1362 -0.6394
 8787TIP3    H247853   4.061   2.156   5.540 -0.9987  0.9403 -2.7757
 8788TIP3   OH247854   1.538   3.380  15.513  0.5911  0.1253  0.0207
 8788TIP3    H147855   1.510   3.461  15.556  2.6624  0.6219  0.5249
 8788TIP3    H247856   1.605   3.343  15.571  1.5238 -0.6055 -1.4594
 8789TIP3   OH247857   0.910   1.717  13.536 -0.0776  0.0452  0.2576
 8789TIP3    H147858   0.823   1.677  13.530 -0.0106 -0.2231  0.9377
 8789TIP3    H247859   0.899   1.788  13.600  0.1854  0.0525  0.2963
 8790TIP3   OH247860   3.917   1.000  14.049  0.1951 -0.1121  0.7787
 8790TIP3    H147861   3.927   1.093  14.073 -0.7020  0.3853 -0.6172
 8790TIP3    H247862   3.965   0.992  13.967 -0.9603 -0.4931  0.1120
 8791TIP3   OH247863   2.227   5.700   3.418  0.0347  0.4505  0.2545
 8791TIP3    H147864   2.292   5.751   3.370 -0.4902  1.3680  0.4833
 8791TIP3    H247865   2.152   5.695   3.359  0.3545 -0.7480 -0.0755
 8792TIP3   OH247866   3.050   0.408  12.061  0.4991  0.1814 -0.4473
 8792TIP3    H147867   2.970   0.456  12.084  1.8636  2.4412 -0.0862
 8792TIP3    H247868   3.120   0.456  12.105  1.9202 -3.0727  1.2246
 8793TIP3   OH247869   5.601   5.088   0.549 -0.0349  0.1324  0.4935
 8793TIP3    H147870   5.582   5.000   0.583 -0.7469 -0.4926 -1.3907
 8793TIP3    H247871   5.646   5.132   0.621  1.7969 -2.2915  0.9777
 8794TIP3   OH247872   1.184   1.777  13.514 -0.9521  0.0766 -0.1013
 8794TIP3    H147873   1.089   1.768  13.506 -1.0836 -0.8009  1.8080
 8794TIP3    H247874   1.220   1.708  13.458 -1.3510  1.3716 -2.0351
 8795TIP3   OH247875   1.551   6.345  14.596  0.5690  0.3616  0.0119
 8795TIP3    H147876   1.564   6.304  14.682 -0.7300 -1.9184 -0.7884
 8795TIP3    H247877   1.608   6.421  14.597  1.8197 -0.5077  2.2900
 8796TIP3   OH247878   6.510   6.283  13.333 -0.6921 -0.1948  0.2001
 8796TIP3    H147879   6.454   6.270  13.409 -0.9457  0.0000  0.0448
 8796TIP3    H247880   6.525   6.377  13.329  2.5093 -0.4671  2.3061
 8797TIP3   OH247881   0.279   5.131   3.379  0.1241 -0.7745  0.4027
 8797TIP3    H147882   0.271   5.163   3.469  1.2344 -2.1211  1.0281
 8797TIP3    H247883   0.226   5.051   3.378 -3.5375  1.4008 -1.4313
 8798TIP3   OH247884   0.603   6.067  17.006 -0.2329  0.2194  0.1694
 8798TIP3    H147885   0.526   6.120  16.986  0.2975  1.1892  0.5957
 8798TIP3    H247886   0.589   5.985  16.959 -1.5869  0.3130  0.3789
 8799TIP3   OH247887   6.255   0.120  14.613  0.0936  0.1866  0.0147
 8799TIP3    H147888   6.190   0.154  14.675  0.8225  2.0380 -0.1810
 8799TIP3    H247889   6.331   0.101  14.667 -0.2182 -0.9684  0.0808
 8800TIP3   OH247890   1.641   0.166   5.758  0.1216 -0.0053  0.8071
 8800TIP3    H147891   1.560   0.173   5.708  0.5422  0.7531  0.2045
 8800TIP3    H247892   1.615   0.128   5.842 -0.7664 -0.2611  0.4201
 8801TIP3   OH247893   5.265   6.435  16.767 -0.4226  0.3841  0.2807
 8801TIP3    H147894   5.350   6.479  16.765  0.0645 -0.5141  0.7738
 8801TIP3    H247895   5.265   6.385  16.848 -0.5042 -1.3988 -0.7690
 8802TIP3   OH247896   0.955   2.982  11.790 -0.3222 -0.2037 -0.1057
 8802TIP3    H147897   1.013   3.046  11.750  1.4071  0.0558  2.5201
 8802TIP3    H247898   0.880   3.034  11.820 -0.1924  0.1178 -0.3298
 8803TIP3   OH247899   3.726   4.226  12.096  0.2383 -0.4270 -0.2086
 8803TIP3    H147900   3.815   4.254  12.118  0.1195  0.1368 -0.4440
 8803TIP3    H247901   3.689   4.196  12.179 -0.0480  1.2295  0.2862
 8804TIP3   OH247902   5.060   3.378   1.806 -0.4104  0.0728 -0.2728
 8804TIP3    H147903   4.981   3.346   1.764 -0.3442  0.8071 -0.9814
 8804TIP3    H247904   5.047   3.473   1.813  0.0165  0.0855  0.4363
 8805TIP3   OH247905   3.945   4.672  15.083 -0.4768 -0.1350 -0.5380
 8805TIP3    H147906   3.968   4.742  15.022 -0.7643 -0.1573 -0.6690
 8805TIP3    H247907   3.968   4.708  15.169 -1.9600  0.6961 -0.4536
 8806TIP3   OH247908   4.962   3.074  15.580 -0.1741  0.4077 -0.4043
 8806TIP3    H147909   5.007   2.996  15.548 -0.5302 -0.1637  0.4618
 8806TIP3    H247910   4.894   3.041  15.638  0.2828  1.3911  0.7430
 8807TIP3   OH247911   6.501   4.541  12.131  0.2004 -0.1894 -0.6032
 8807TIP3    H147912   6.511   4.567  12.223  1.4236  1.8997 -1.2760
 8807TIP3    H247913   6.406   4.541  12.117 -0.1008 -2.1497  1.0470
 8808TIP3   OH247914   3.911   0.751  12.840  0.5410  0.6291 -0.5858
 8808TIP3    H147915   3.959   0.726  12.919  0.0657  1.9264  0.1318
 8808TIP3    H247916   3.959   0.826  12.805  0.2645  0.5903 -1.0640
 8809TIP3   OH247917   2.085   2.756   0.729  0.0554 -0.2593  0.0540
 8809TIP3    H147918   2.092   2.851   0.717  0.9090 -0.1796  1.0008
 8809TIP3    H247919   1.993   2.736   0.710 -0.8432  1.1834  2.3853
 8810TIP3   OH247920   3.161   3.030  13.688  0.0848 -0.0378  0.6580
 8810TIP3    H147921   3.140   3.054  13.597  1.8110 -0.0027  0.2214
 8810TIP3    H247922   3.078   3.000  13.725 -0.7096  0.1613 -0.8635
 8811TIP3   OH247923   0.865   2.873  12.140 -0.2966  0.9589  0.1372
 8811TIP3    H147924   0.796   2.904  12.081  0.1410  0.0144 -0.9188
 8811TIP3    H247925   0.822   2.863  12.225 -1.3546  0.8020 -0.4045
 8812TIP3   OH247926   3.591   4.313   3.526 -0.0246  0.0073  0.4686
 8812TIP3    H147927   3.680   4.332   3.558  0.5956 -2.1898  0.2285
 8812TIP3    H247928   3.546   4.274   3.602  0.4307 -2.2252 -0.3174
 8813TIP3   OH247929   5.527   0.702  16.128 -0.1639 -0.7042  0.0437
 8813TIP3    H147930   5.436   0.674  16.137  0.0402 -0.9968  1.4240
 8813TIP3    H247931   5.533   0.784  16.177  0.5790 -1.3285  1.0489
 8814TIP3   OH247932   4.007   3.320  16.307 -0.3074 -0.0869 -0.6657
 8814TIP3    H147933   4.024   3.397  16.362 -2.2142  0.4619 -0.7561
 8814TIP3    H247934   4.083   3.314  16.249  1.9682 -0.8757  2.1367
 8815TIP3   OH247935   5.388   5.100   4.772  0.0660 -0.1321  0.4674
 8815TIP3    H147936   5.408   5.117   4.864 -0.6153 -0.0656  0.6088
 8815TIP3    H247937   5.470   5.117   4.726  0.2921  0.2733  1.0102
 8816TIP3   OH247938   3.792   6.807  13.751  0.1182  0.5132 -0.2890
 8816TIP3    H147939   3.839   6.816  13.668  0.4018  0.3052 -0.1557
 8816TIP3    H247940   3.831   6.730  13.792 -0.1671  0.4884 -0.0578
 8817TIP3   OH247941   1.072   0.917  10.986  0.2223  0.3949  0.3252
 8817TIP3    H147942   1.102   0.955  10.903  0.3914 -0.8899 -0.2393
 8817TIP3    H247943   1.118   0.833  10.991 -0.1445  0.2557  1.5014
 8818TIP3   OH247944   6.683   5.136   5.992 -0.2404 -0.5728  0.0034
 8818TIP3    H147945   6.607   5.097   5.948  0.2765  0.7380 -2.2292
 8818TIP3    H247946   6.749   5.066   5.992 -0.3490 -0.6991 -1.1191
 8819TIP3   OH247947   4.873   4.247  15.037  0.0919  0.3412 -0.0911
 8819TIP3    H147948   4.924   4.188  14.982 -1.3494 -0.5147 -0.5507
 8819TIP3    H247949   4.886   4.334  14.998  2.2638  0.4121  0.6173
 8820TIP3   OH247950   6.196   5.170   5.651  0.3195  0.3284 -0.1314
 8820TIP3    H147951   6.205   5.191   5.558 -0.6316  1.2287 -0.0381
 8820TIP3    H247952   6.216   5.076   5.657 -2.2169 -0.4244 -1.6862
 8821TIP3   OH247953   3.644   4.800   0.727  0.0987  0.2127 -0.5649
 8821TIP3    H147954   3.615   4.763   0.810 -1.4153 -0.3483 -1.2946
 8821TIP3    H247955   3.590   4.878   0.714 -0.6774 -0.4768 -1.6508
 8822TIP3   OH247956   5.467   1.944  12.750 -0.6376  0.3192  0.0257
 8822TIP3    H147957   5.380   1.979  12.733 -0.7281 -0.7094 -1.8713
 8822TIP3    H247958   5.511   2.013  12.800 -1.8609  1.7194 -0.7483
 8823TIP3   OH247959   3.354   3.632  14.377 -0.3307  0.0665  0.1339
 8823TIP3    H147960   3.396   3.669  14.300  0.4278 -0.8541  0.0900
 8823TIP3    H247961   3.309   3.706  14.418 -0.2371  0.6791 -0.8553
 8824TIP3   OH247962   5.065   2.633  12.555 -0.2632  0.4724  0.0295
 8824TIP3    H147963   5.040   2.696  12.487 -0.5592  1.4427  0.9987
 8824TIP3    H247964   5.079   2.687  12.633 -0.5994 -0.6790  0.9148
 8825TIP3   OH247965   1.696   4.484  11.664 -0.1942  0.2145 -0.3483
 8825TIP3    H147966   1.765   4.529  11.615 -0.2573  0.6945 -0.0038
 8825TIP3    H247967   1.635   4.454  11.596  0.6715 -0.7870 -0.7040
 8826TIP3   OH247968   2.320   4.751   0.297  0.4665 -0.6069 -0.7530
 8826TIP3    H147969   2.309   4.701   0.378  1.0207  1.8774  0.9829
 8826TIP3    H247970   2.408   4.730   0.267  0.6575 -0.7588 -0.1031
 8827TIP3   OH247971   2.987   5.465   2.945  0.2356  0.2462  0.0062
 8827TIP3    H147972   2.894   5.485   2.955  0.6053  1.7231  0.7692
 8827TIP3    H247973   3.004   5.399   3.012 -0.4013 -0.6308 -0.6578
 8828TIP3   OH247974   1.149   5.913  14.113 -0.0648  0.4011  0.2082
 8828TIP3    H147975   1.057   5.933  14.101 -0.2534 -0.1892  0.6247
 8828TIP3    H247976   1.180   5.887  14.026 -0.3910  0.2102  0.1467
 8829TIP3   OH247977   6.487   2.691   4.659  0.2076  0.0239 -0.6708
 8829TIP3    H147978   6.504   2.741   4.579  0.4987 -1.8958 -1.8892
 8829TIP3    H247979   6.566   2.638   4.670  0.1351  0.2142  0.8708
 8830TIP3   OH247980   0.405   5.253   2.281  0.3455 -0.2547 -0.5218
 8830TIP3    H147981   0.419   5.348   2.278  2.6542 -0.4658  1.3184
 8830TIP3    H247982   0.313   5.244   2.307  0.6560  1.5420  1.4654
 8831TIP3   OH247983   5.109   6.804  15.951 -0.0048  0.1692 -0.3974
 8831TIP3    H147984   5.124   6.764  16.037 -0.9099  0.7860  0.0591
 8831TIP3    H247985   5.074   6.732  15.897 -2.0464  0.3863  0.5437
 8832TIP3   OH247986   5.134   3.185  12.312 -0.7143 -0.2813  0.1216
 8832TIP3    H147987   5.061   3.147  12.362  1.4259 -0.7775  3.1412
 8832TIP3    H247988   5.200   3.115  12.310 -0.2701  0.1163 -2.5995
 8833TIP3   OH247989   6.825   4.983  11.439 -0.1805 -0.6193 -0.1780
 8833TIP3    H147990   6.796   5.072  11.457  0.0718 -0.0873 -2.1538
 8833TIP3    H247991   6.779   4.929  11.504 -1.6083  0.7616  0.0193
 8834TIP3   OH247992   2.481   4.904   4.533 -0.0555  0.1925 -0.6520
 8834TIP3    H147993   2.553   4.958   4.566  0.5974 -0.1660 -1.4350
 8834TIP3    H247994   2.411   4.915   4.597  0.0936  1.8837 -0.7434
 8835TIP3   OH247995   3.725   1.690  15.107 -0.0130  0.2959 -0.5993
 8835TIP3    H147996   3.721   1.686  15.012  1.3854 -0.0604 -0.6570
 8835TIP3    H247997   3.654   1.633  15.137 -0.6801  0.6838 -1.4187
 8836TIP3   OH247998   3.324   0.156  14.958 -0.3427  0.0699  0.6965
 8836TIP3    H147999   3.232   0.172  14.939 -0.6321 -1.7703  0.3155
 8836TIP3    H248000   3.346   0.078  14.908  0.6777 -1.0892  2.7880
 8837TIP3   OH248001   0.905   5.392  12.983  0.5470  0.3675 -0.2086
 8837TIP3    H148002   0.936   5.347  13.062  0.1498  2.4657  1.2272
 8837TIP3    H248003   0.979   5.387  12.923  0.7815 -1.4725  0.1783
 8838TIP3   OH248004   6.669   0.243   3.369 -0.2077  0.7628 -0.3436
 8838TIP3    H148005   6.761   0.230   3.347 -0.1699  0.4603 -0.0182
 8838TIP3    H248006   6.656   0.192   3.449 -0.9012 -0.0395 -0.9447
 8839TIP3   OH248007   0.286   3.433  14.931 -0.1821 -0.3652 -0.2457
 8839TIP3    H148008   0.307   3.346  14.897  0.1590 -0.2106 -0.4307
 8839TIP3    H248009   0.244   3.478  14.858  0.5232 -0.0441 -0.4617
 8840TIP3   OH248010   5.953   5.917  13.648 -0.2335  0.3582 -0.5782
 8840TIP3    H148011   5.942   6.011  13.632 -1.0648  0.2724 -0.5391
 8840TIP3    H248012   5.985   5.882  13.564 -0.0192  0.6547 -0.6219
 8841TIP3   OH248013   3.466   1.970   5.201 -0.1632 -0.3457 -0.4239
 8841TIP3    H148014   3.452   2.033   5.130  0.2675  0.4374  0.1746
 8841TIP3    H248015   3.525   2.015   5.261  2.5596 -2.3989 -1.4041
 8842TIP3   OH248016   1.922   5.766  17.091 -0.8070 -0.4807  0.0654
 8842TIP3    H148017   1.993   5.794  17.148  0.0660 -0.7214 -0.8780
 8842TIP3    H248018   1.936   5.813  17.010 -0.2188 -2.3916 -1.0098
 8843TIP3   OH248019   5.709   5.091  12.162  0.1795 -0.2225  0.2669
 8843TIP3    H148020   5.752   5.176  12.160 -0.2845  0.0633  1.5981
 8843TIP3    H248021   5.767   5.036  12.214  1.7206 -1.4954 -2.5141
 8844TIP3   OH248022   0.320   1.451   3.063  0.4619 -0.4455 -0.1692
 8844TIP3    H148023   0.271   1.501   3.128 -0.5683 -1.6043 -0.0196
 8844TIP3    H248024   0.401   1.426   3.108  0.3359 -0.1385  0.2294
 8845TIP3   OH248025   6.290   2.663  16.812  0.1766 -0.5487  0.8307
 8845TIP3    H148026   6.210   2.701  16.775  1.6662  0.8248 -1.2396
 8845TIP3    H248027   6.319   2.726  16.878  0.8795  0.3399 -0.2752
 8846TIP3   OH248028   0.485   3.450   3.696  0.3324 -0.3739 -0.5439
 8846TIP3    H148029   0.540   3.439   3.774  1.6314  1.0730 -1.1885
 8846TIP3    H248030   0.538   3.415   3.624  0.6731  1.4484 -1.2502
 8847TIP3   OH248031   0.637   0.538  12.047 -0.5381  0.5073  0.0268
 8847TIP3    H148032   0.548   0.552  12.016 -1.0620  2.4917  2.0938
 8847TIP3    H248033   0.690   0.534  11.968 -2.3384  0.2991 -1.2220
 8848TIP3   OH248034   5.664   5.623   0.329 -0.0252  0.2674 -0.0821
 8848TIP3    H148035   5.751   5.600   0.360  0.4398  0.0442 -1.4617
 8848TIP3    H248036   5.662   5.594   0.238 -2.0923 -1.1600  0.3393
 8849TIP3   OH248037   6.354   6.769   5.048  0.3179 -0.3211 -0.1516
 8849TIP3    H148038   6.308   6.716   4.983 -0.4784  1.0728 -0.7512
 8849TIP3    H248039   6.293   6.775   5.122  0.2833  0.0234 -0.2093
 8850TIP3   OH248040   0.345   4.703   2.005  0.2189  0.1324 -0.5631
 8850TIP3    H148041   0.327   4.785   2.052 -0.2088  0.0522 -0.5842
 8850TIP3    H248042   0.291   4.708   1.926  0.1830 -0.1717 -0.5606
 8851TIP3   OH248043   3.764   3.436   2.956 -0.9289  0.4425 -0.5540
 8851TIP3    H148044   3.773   3.358   3.010 -1.8704 -0.2638 -1.3948
 8851TIP3    H248045   3.758   3.403   2.867  0.5239  1.5853 -1.1144
 8852TIP3   OH248046   3.802   4.746  11.118  0.5867 -0.3038 -0.3170
 8852TIP3    H148047   3.803   4.673  11.056  0.2109  0.4094 -1.1908
 8852TIP3    H248048   3.847   4.817  11.071 -1.2050  0.7899 -0.4957
 8853TIP3   OH248049   3.688   5.352  17.171  0.2353  0.5477 -0.5078
 8853TIP3    H148050   3.716   5.400  17.249 -0.6858 -0.7480  0.6882
 8853TIP3    H248051   3.714   5.261  17.189  0.3028  0.2687 -1.8834
 8854TIP3   OH248052   0.724   5.343  16.530  0.1943  0.2659  0.2338
 8854TIP3    H148053   0.630   5.362  16.535  0.4148  1.0885  1.7510
 8854TIP3    H248054   0.765   5.426  16.506  0.5178 -0.2206 -0.9994
 8855TIP3   OH248055   3.625   3.072  10.843 -0.6175 -0.2830  0.0719
 8855TIP3    H148056   3.678   3.113  10.775 -1.7797  0.5589 -0.3537
 8855TIP3    H248057   3.539   3.112  10.834 -1.0500 -0.8500  1.4308
 8856TIP3   OH248058   0.946   4.232  16.285 -0.4933 -0.0749  0.1730
 8856TIP3    H148059   0.992   4.309  16.318 -1.6665  0.6464  0.2016
 8856TIP3    H248060   0.976   4.160  16.340  0.6540  0.3422  0.1189
 8857TIP3   OH248061   0.610   5.394   4.986 -0.1456 -0.9273 -0.5680
 8857TIP3    H148062   0.638   5.390   4.895 -1.5306  0.6915 -1.1190
 8857TIP3    H248063   0.515   5.385   4.984 -0.1529 -1.4830  0.7800
 8858TIP3   OH248064   0.757   3.464  11.770 -0.0731 -0.1215 -0.2315
 8858TIP3    H148065   0.686   3.500  11.823 -0.4690  1.2996 -1.6507
 8858TIP3    H248066   0.713   3.433  11.690  0.9794  1.8774 -1.6707
 8859TIP3   OH248067   5.471   5.001   0.812 -0.4678 -0.7808 -0.0186
 8859TIP3    H148068   5.450   5.094   0.802  0.6124 -0.4469  0.5959
 8859TIP3    H248069   5.427   4.958   0.739  0.6431  0.4777 -1.4829
 8860TIP3   OH248070   1.314   0.584   5.158  0.5515 -0.6033  0.0598
 8860TIP3    H148071   1.226   0.560   5.188  0.8028 -0.3995  0.9729
 8860TIP3    H248072   1.332   0.521   5.088 -0.6967 -0.0463 -0.8031
 8861TIP3   OH248073   3.855   2.353   5.474  0.0335 -0.2680 -0.5081
 8861TIP3    H148074   3.921   2.329   5.539 -0.5939 -2.3174 -0.5643
 8861TIP3    H248075   3.817   2.435   5.507  1.5781  0.1867  0.2606
 8862TIP3   OH248076   0.502   2.247   2.363  0.1718 -0.2789 -0.8220
 8862TIP3    H148077   0.416   2.287   2.349 -0.2379  0.2372  2.3228
 8862TIP3    H248078   0.504   2.172   2.304 -2.4582 -0.2795 -1.0229
 8863TIP3   OH248079   3.314   3.484  16.923  0.6736  0.2832  0.1484
 8863TIP3    H148080   3.285   3.393  16.926  1.1327  0.1480  0.7443
 8863TIP3    H248081   3.367   3.495  17.002  0.0837  1.2529  0.4381
 8864TIP3   OH248082   2.148   6.472  11.103 -0.4176  0.0212 -0.5123
 8864TIP3    H148083   2.092   6.546  11.083 -0.9144  0.1409  1.1175
 8864TIP3    H248084   2.104   6.397  11.062 -0.4797  0.4579 -1.2589
 8865TIP3   OH248085   4.799   0.207  14.353  1.0422  0.0270 -0.5884
 8865TIP3    H148086   4.768   0.280  14.406 -0.5066  0.7026 -2.2878
 8865TIP3    H248087   4.737   0.136  14.372  0.7385  0.1359 -1.1474
 8866TIP3   OH248088   2.974   4.196  12.321 -0.0516  0.1283 -0.3259
 8866TIP3    H148089   2.888   4.200  12.362  0.0024  0.8023 -0.2647
 8866TIP3    H248090   2.999   4.104  12.325 -0.0113  0.1876  1.2457
 8867TIP3   OH248091   0.132   3.088  12.168 -0.6981 -0.1010  0.3425
 8867TIP3    H148092   0.165   3.000  12.187 -0.4484 -0.5932 -2.0334
 8867TIP3    H248093   0.049   3.094  12.215 -1.3205 -2.0988 -0.3885
 8868TIP3   OH248094   4.135   4.103  15.738 -0.0260  0.7477 -0.2267
 8868TIP3    H148095   4.124   4.111  15.833 -1.4832  1.3872 -0.4161
 8868TIP3    H248096   4.216   4.053  15.727 -0.7380 -0.8810  1.3788
 8869TIP3   OH248097   3.963   1.784  15.234  0.7893  0.3143 -0.0393
 8869TIP3    H148098   3.940   1.839  15.310  2.5900  0.3537  0.5237
 8869TIP3    H248099   3.880   1.774  15.187 -0.0397  1.7201  1.0009
 8870TIP3   OH248100   0.001   3.608   3.760 -0.4094 -0.1298 -0.6430
 8870TIP3    H148101   0.089   3.569   3.759 -0.4904 -0.3492  0.0374
 8870TIP3    H248102  -0.043   3.572   3.683 -0.2306 -0.8016 -0.4317
 8871TIP3   OH248103   0.139   0.724  14.030  0.4989  0.3086 -0.1941
 8871TIP3    H148104   0.145   0.819  14.027  0.7139  0.2894 -0.4265
 8871TIP3    H248105   0.214   0.696  14.081 -0.4910  0.3526  1.3531
 8872TIP3   OH248106   2.342   2.090  11.598 -0.2833  0.5431  0.7525
 8872TIP3    H148107   2.282   2.159  11.569 -0.2278  0.7064  1.0234
 8872TIP3    H248108   2.332   2.087  11.693 -0.6935 -0.2024  0.6942
 8873TIP3   OH248109   4.312   5.709  12.004 -0.0686 -0.0420  0.3451
 8873TIP3    H148110   4.329   5.804  12.002 -0.5390  0.0338 -0.2198
 8873TIP3    H248111   4.354   5.680  12.085  2.1472  0.2500 -0.6110
 8874TIP3   OH248112   3.036   1.363   4.526  0.3194 -0.4733  0.2574
 8874TIP3    H148113   3.021   1.339   4.617  2.4785 -0.4428  0.6892
 8874TIP3    H248114   2.960   1.330   4.479 -0.7207 -0.7060  2.0212
 8875TIP3   OH248115   5.003   2.331   0.764 -0.3921 -0.6166  0.1358
 8875TIP3    H148116   4.974   2.297   0.679 -0.5352 -1.7971  0.6451
 8875TIP3    H248117   4.921   2.348   0.811 -0.3233  0.4330 -0.0932
 8876TIP3   OH248118   1.510   2.639   0.081  0.2124 -1.0757  0.5023
 8876TIP3    H148119   1.571   2.703   0.044 -2.5194  0.1295 -2.4137
 8876TIP3    H248120   1.445   2.692   0.127 -0.5390 -1.9891  0.5274
 8877TIP3   OH248121   0.891   5.987   5.294 -0.1939 -0.2647 -0.0688
 8877TIP3    H148122   0.824   6.051   5.270 -1.0788 -1.4268 -0.7418
 8877TIP3    H248123   0.879   5.975   5.389 -0.4837  0.0288 -0.0670
 8878TIP3   OH248124   4.957   4.343  15.580 -0.5117 -0.5282  0.0777
 8878TIP3    H148125   4.886   4.298  15.627  1.7494 -4.1524  0.4539
 8878TIP3    H248126   5.032   4.336  15.639  0.9761  0.1094 -1.6774
 8879TIP3   OH248127   4.761   4.211   5.284  0.0021 -0.5789 -0.2348
 8879TIP3    H148128   4.746   4.172   5.370  1.3441 -3.9339 -1.3416
 8879TIP3    H248129   4.681   4.191   5.234  0.2334 -0.9811 -0.4603
 8880TIP3   OH248130   0.600   3.673   5.324 -0.2221  0.2313 -1.1910
 8880TIP3    H148131   0.569   3.589   5.359  1.6995  0.0971  0.4172
 8880TIP3    H248132   0.600   3.661   5.229 -0.4836 -1.4236 -1.0240
 8881TIP3   OH248133   4.298   3.267   3.251 -0.2933 -0.6695  0.5559
 8881TIP3    H148134   4.316   3.275   3.345  0.1428 -0.9527  0.4976
 8881TIP3    H248135   4.341   3.344   3.212  2.0463 -2.0199  0.2548
 8882TIP3   OH248136   4.783   1.491   5.412 -0.0009 -0.0796  0.1897
 8882TIP3    H148137   4.776   1.407   5.366  1.7165 -0.0724 -0.1846
 8882TIP3    H248138   4.695   1.528   5.409 -0.5800 -1.4391 -0.4781
 8883TIP3   OH248139   3.990   2.085  13.050  0.4731  0.6666 -0.0696
 8883TIP3    H148140   3.974   2.056  12.960  0.4868  0.7312 -0.0924
 8883TIP3    H248141   3.977   2.180  13.048  1.8274  0.8694 -0.3044
 8884TIP3   OH248142   1.186   0.310  15.472 -0.0574  0.1388 -0.3051
 8884TIP3    H148143   1.248   0.252  15.517 -1.3340 -0.5992  0.5724
 8884TIP3    H248144   1.139   0.252  15.412  0.5667  0.8294 -1.4803
 8885TIP3   OH248145   1.940   3.517   5.499 -0.1755 -0.5586 -0.0300
 8885TIP3    H148146   1.974   3.470   5.422  0.9172 -1.8441  1.1721
 8885TIP3    H248147   2.010   3.578   5.522 -0.9064  0.5279 -0.5948
 8886TIP3   OH248148   1.790   3.433   5.033 -0.1230 -0.4226  0.0265
 8886TIP3    H148149   1.712   3.460   5.082 -0.8055  1.1009 -1.7532
 8886TIP3    H248150   1.756   3.377   4.964  0.7444 -2.0076  0.8242
 8887TIP3   OH248151   3.892   1.746   1.455  1.0402  0.2061 -0.0098
 8887TIP3    H148152   3.917   1.663   1.414 -0.2417 -0.0939 -0.2334
 8887TIP3    H248153   3.809   1.769   1.413  0.3801  0.5902  1.4434
 8888TIP3   OH248154   3.051   3.135  14.484  1.0313 -0.1273  0.2884
 8888TIP3    H148155   3.128   3.088  14.516  0.5891 -0.1829  1.2813
 8888TIP3    H248156   2.978   3.101  14.535  0.8887  2.7401  2.2724
 8889TIP3   OH248157   5.531   5.878  15.728 -0.0329  0.0084  0.0418
 8889TIP3    H148158   5.626   5.890  15.719  0.0658 -0.8439 -0.1336
 8889TIP3    H248159   5.521   5.835  15.813 -0.1760 -0.7089 -0.3243
 8890TIP3   OH248160   0.160   2.726  16.483 -0.0960 -0.0637  0.2648
 8890TIP3    H148161   0.209   2.807  16.501 -1.0876  1.1618 -2.0796
 8890TIP3    H248162   0.073   2.742  16.522 -0.5733  0.4213 -0.9426
 8891TIP3   OH248163   3.933   2.086   2.158  0.2615 -0.0681 -0.3066
 8891TIP3    H148164   3.945   2.029   2.081 -0.2078 -0.7185  0.0980
 8891TIP3    H248165   3.984   2.043   2.227 -1.2872 -0.8265  0.4071
 8892TIP3   OH248166   0.932   1.349  15.056  0.2354  0.6265  0.1245
 8892TIP3    H148167   0.841   1.325  15.037 -0.0685  0.5446  1.5855
 8892TIP3    H248168   0.984   1.279  15.019 -0.4583 -0.6692  1.5022
 8893TIP3   OH248169   5.315   6.743   0.034 -0.1005  0.5244  0.3472
 8893TIP3    H148170   5.261   6.822   0.039 -2.5320 -1.0646  1.0456
 8893TIP3    H248171   5.355   6.746  -0.053 -0.7082  2.1447  0.0908
 8894TIP3   OH248172   6.689   3.548  10.340  0.1067  0.2323 -0.1798
 8894TIP3    H148173   6.781   3.533  10.364 -0.5774 -1.4529  1.6566
 8894TIP3    H248174   6.688   3.636  10.303  2.1824  1.0441  1.4811
 8895TIP3   OH248175   1.040   0.533   5.218  0.5453 -0.0988 -0.7782
 8895TIP3    H148176   1.007   0.565   5.301  0.5586 -1.4681 -0.2259
 8895TIP3    H248177   0.988   0.579   5.152 -0.1246  0.2801 -0.0025
 8896TIP3   OH248178   2.684   5.768   4.096 -0.0250 -0.0965 -0.1123
 8896TIP3    H148179   2.705   5.851   4.138 -0.3298 -0.6181  1.0887
 8896TIP3    H248180   2.653   5.711   4.166 -0.7050 -0.9445 -1.0573
 8897TIP3   OH248181   3.777   3.041   5.984  0.1017 -0.2028 -0.0115
 8897TIP3    H148182   3.694   2.998   5.962  0.8052 -1.1367 -0.9586
 8897TIP3    H248183   3.787   3.027   6.078 -1.9626  2.0364  0.6470
 8898TIP3   OH248184   0.194   4.534   3.351 -0.2640 -0.0624 -0.0465
 8898TIP3    H148185   0.126   4.498   3.294 -0.7909 -0.9667  1.1144
 8898TIP3    H248186   0.263   4.467   3.350 -0.0611  0.1471 -0.0125
 8899TIP3   OH248187   0.060   4.479   2.463  0.1351 -0.6557  0.0744
 8899TIP3    H148188   0.030   4.502   2.375 -1.4768 -2.8593 -0.0354
 8899TIP3    H248189  -0.007   4.514   2.521  0.9459  0.3659  0.4299
 8900TIP3   OH248190   4.720   1.084   3.726  0.2715  0.6792 -0.0400
 8900TIP3    H148191   4.647   1.125   3.772 -1.4567 -0.9212 -1.2223
 8900TIP3    H248192   4.712   1.114   3.636 -0.8033 -1.8110 -0.8477
 8901TIP3   OH248193   2.316   3.930   5.070 -0.0731 -0.2059 -0.7258
 8901TIP3    H148194   2.340   3.917   5.161  1.3307  0.1682 -1.0198
 8901TIP3    H248195   2.391   3.897   5.020  0.7651  2.7051 -1.6370
 8902TIP3   OH248196   0.273   1.075  16.563 -0.4469 -0.1986  0.0445
 8902TIP3    H148197   0.309   0.997  16.521 -0.2100 -0.8032  1.3217
 8902TIP3    H248198   0.206   1.042  16.622 -1.8042  0.7597 -0.9098
 8903TIP3   OH248199   0.872   4.633   5.748  0.7196 -0.4253 -0.1104
 8903TIP3    H148200   0.933   4.700   5.719 -0.6088 -0.0379 -2.2409
 8903TIP3    H248201   0.901   4.553   5.703  0.7748 -0.6962  0.3962
 8904TIP3   OH248202   4.567   4.241  13.600  0.0762 -0.2638 -0.0669
 8904TIP3    H148203   4.657   4.261  13.573  0.6342  0.7816  2.3207
 8904TIP3    H248204   4.521   4.226  13.518  2.3249 -0.4256 -1.3924
 8905TIP3   OH248205   3.550   6.137   3.859  0.4084 -0.1981 -0.0190
 8905TIP3    H148206   3.459   6.165   3.868 -0.2020 -1.5046 -1.5884
 8905TIP3    H248207   3.571   6.097   3.944 -0.5089  0.0261  0.3261
 8906TIP3   OH248208   4.535   0.270  11.078 -0.6459 -0.7344  0.1785
 8906TIP3    H148209   4.456   0.216  11.068 -1.1707 -0.1155  0.9278
 8906TIP3    H248210   4.506   0.359  11.058 -0.1735 -0.4821  0.6050
 8907TIP3   OH248211   4.279   4.712  13.964  0.5717  0.4042  0.4114
 8907TIP3    H148212   4.244   4.800  13.951  2.4422  1.0533 -0.6558
 8907TIP3    H248213   4.319   4.689  13.880  0.3120 -1.3938  0.7336
 8908TIP3   OH248214   0.208   0.675  13.433  0.3624  0.5056  0.0299
 8908TIP3    H148215   0.231   0.685  13.525  1.6667  0.8426 -0.3183
 8908TIP3    H248216   0.166   0.758  13.410  0.7468  0.7238  0.1161
 8909TIP3   OH248217   0.111   1.256  15.962 -0.0615 -0.7985 -0.0313
 8909TIP3    H148218   0.087   1.251  15.870 -0.4465 -0.3494  0.0404
 8909TIP3    H248219   0.029   1.273  16.008  0.3495  0.6362  0.2261
 8910TIP3   OH248220   1.140   4.307  12.966 -0.2953  0.4601 -0.6067
 8910TIP3    H148221   1.079   4.239  12.936 -0.7071  1.5553 -2.3492
 8910TIP3    H248222   1.219   4.258  12.991 -0.2977 -0.6441 -2.5513
 8911TIP3   OH248223   1.555   6.267   5.027  0.4546  0.3299 -0.3826
 8911TIP3    H148224   1.514   6.341   5.072  2.1403  0.2166  1.4350
 8911TIP3    H248225   1.567   6.298   4.937 -0.6080  1.5440 -0.1342
 8912TIP3   OH248226   6.252   3.124  17.177 -0.0631 -0.5681  0.2498
 8912TIP3    H148227   6.327   3.146  17.232 -0.3749  1.3987 -0.0547
 8912TIP3    H248228   6.179   3.118  17.238 -0.1533  0.2238  0.2221
 8913TIP3   OH248229   6.070   6.591  11.500 -0.0984 -0.4380 -0.4811
 8913TIP3    H148230   6.142   6.604  11.562  0.2289  0.1873 -0.9824
 8913TIP3    H248231   6.082   6.501  11.468  0.6677 -0.2262 -0.8153
 8914TIP3   OH248232   3.238   4.372   0.331  0.1169  0.0936 -0.8590
 8914TIP3    H148233   3.298   4.439   0.296 -0.6279  0.4743 -1.4340
 8914TIP3    H248234   3.270   4.290   0.292 -1.1765  0.5973 -3.1991
 8915TIP3   OH248235   0.068   1.564   6.585  0.2561  0.5078  0.1713
 8915TIP3    H148236  -0.008   1.616   6.559 -0.1819 -0.1485  0.1055
 8915TIP3    H248237   0.143   1.619   6.565 -0.1342  0.5739 -1.1778
 8916TIP3   OH248238   3.183   1.107  10.940 -0.1692  0.2410  0.4486
 8916TIP3    H148239   3.107   1.052  10.960  0.6331 -1.2642 -0.3746
 8916TIP3    H248240   3.256   1.065  10.986  0.7445 -0.3330 -1.4024
 8917TIP3   OH248241   1.668   4.521  12.581  0.3180  0.7083  0.0041
 8917TIP3    H148242   1.719   4.587  12.628 -0.4716  1.3110  0.0518
 8917TIP3    H248243   1.666   4.446  12.639  1.6518  0.4408 -0.2622
 8918TIP3   OH248244   6.558   0.199   3.123  0.8720  0.2844  0.3382
 8918TIP3    H148245   6.586   0.193   3.214  2.0093 -2.9661 -0.1023
 8918TIP3    H248246   6.629   0.245   3.079  1.8922 -0.9747  0.6005
 8919TIP3   OH248247   3.541   3.027  14.719  0.0377 -0.2062  0.2482
 8919TIP3    H148248   3.553   3.121  14.705 -0.0263 -0.1934  0.2791
 8919TIP3    H248249   3.629   2.990  14.712 -0.0533 -0.2750 -0.7278
 8920TIP3   OH248250   4.810   0.648   6.174  0.3841 -0.0538 -0.7386
 8920TIP3    H148251   4.897   0.633   6.136  0.8329 -0.3789  0.3609
 8920TIP3    H248252   4.818   0.733   6.218  0.5849 -0.6837  0.4944
 8921TIP3   OH248253   4.483   2.297   5.546 -1.0074  0.6514  0.6878
 8921TIP3    H148254   4.462   2.204   5.558 -0.8945  0.9121  3.8580
 8921TIP3    H248255   4.567   2.297   5.500 -1.2781 -0.7945  0.1429
 8922TIP3   OH248256   2.847   3.613   3.523  0.1275  0.5610 -0.5218
 8922TIP3    H148257   2.784   3.678   3.554 -0.1686 -0.7925  1.9951
 8922TIP3    H248258   2.806   3.576   3.444 -1.5806  0.7174  0.2487
 8923TIP3   OH248259   6.770   5.135   4.785 -0.3115  0.1341 -0.0752
 8923TIP3    H148260   6.692   5.173   4.825 -0.9412  0.5006 -1.5750
 8923TIP3    H248261   6.794   5.197   4.716  0.4237 -0.7114 -0.6036
 8924TIP3   OH248262   6.244   0.328  11.241 -0.8622  0.8906 -0.2208
 8924TIP3    H148263   6.176   0.355  11.303  0.7762 -0.3100  2.2940
 8924TIP3    H248264   6.226   0.236  11.224  0.7608  0.1613  1.5579
 8925TIP3   OH248265   5.077   0.257   3.746 -0.0805 -0.0706 -0.4527
 8925TIP3    H148266   5.109   0.312   3.675  0.7355  0.0907  0.0263
 8925TIP3    H248267   5.144   0.264   3.814 -0.6713 -0.5066  0.1907
 8926TIP3   OH248268   2.350   0.943   0.161  0.1137  0.3422  0.1828
 8926TIP3    H148269   2.282   0.877   0.173 -1.4891  1.4303 -1.9883
 8926TIP3    H248270   2.330   0.982   0.076  1.8706  2.5931  0.6920
 8927TIP3   OH248271   3.974   4.746  16.074 -0.2279  0.0024  0.4605
 8927TIP3    H148272   3.887   4.757  16.035  0.2152 -0.3176 -0.6420
 8927TIP3    H248273   3.990   4.829  16.120 -0.9144  0.2482  0.2680
 8928TIP3   OH248274   1.231   2.626  11.395 -0.1610  0.0428  0.4451
 8928TIP3    H148275   1.210   2.653  11.305  1.0940  2.7152  0.8679
 8928TIP3    H248276   1.185   2.689  11.450  2.0349  0.7950  1.5393
 8929TIP3   OH248277   0.892   6.436  13.231  0.3183 -0.0014  0.2311
 8929TIP3    H148278   0.829   6.364  13.229 -1.5629  1.5252  0.5717
 8929TIP3    H248279   0.932   6.437  13.145 -0.3737 -0.8407 -0.1045
 8930TIP3   OH248280   0.538   1.698  14.821  0.0308 -0.4962 -0.6240
 8930TIP3    H148281   0.592   1.740  14.754  0.3182  0.0198 -0.0781
 8930TIP3    H248282   0.593   1.626  14.854  0.4739  0.1493  0.0683
 8931TIP3   OH248283   2.606   5.130  15.840 -0.2513  0.1622  0.1085
 8931TIP3    H148284   2.554   5.199  15.879 -1.5642 -0.4984 -0.4310
 8931TIP3    H248285   2.617   5.156  15.749 -2.1248 -1.0633 -0.5227
 8932TIP3   OH248286   6.827   5.085  10.328 -0.2286 -0.4659 -0.3230
 8932TIP3    H148287   6.790   5.172  10.344 -0.7527 -1.0082  1.8193
 8932TIP3    H248288   6.752   5.032  10.300 -0.0689 -0.4069 -0.8618
 8933TIP3   OH248289   6.101   2.831   4.523  0.1145 -0.3086 -0.0614
 8933TIP3    H148290   6.151   2.911   4.506  1.1958 -0.8897  0.2577
 8933TIP3    H248291   6.083   2.794   4.436 -2.5975  1.5294 -0.3849
 8934TIP3   OH248292   6.330   0.206   2.610 -0.3682 -0.4477  0.3305
 8934TIP3    H148293   6.291   0.184   2.525 -2.1148  1.6570  0.5040
 8934TIP3    H248294   6.339   0.301   2.609 -0.3937 -0.3728  2.4852
 8935TIP3   OH248295   4.453   2.796   6.040 -0.1452 -0.7550 -0.6641
 8935TIP3    H148296   4.504   2.730   6.086  1.6765 -0.0846 -1.6320
 8935TIP3    H248297   4.455   2.872   6.097  0.3926 -0.5630 -0.9368
 8936TIP3   OH248298   3.186   1.267   2.398 -0.2385 -0.0397  0.1247
 8936TIP3    H148299   3.183   1.362   2.408  0.0122  0.2205 -1.9978
 8936TIP3    H248300   3.099   1.244   2.366  0.7109 -0.0474 -2.6736
 8937TIP3   OH248301   1.752   1.700   3.848  0.3591  0.5483  0.1409
 8937TIP3    H148302   1.769   1.606   3.852 -0.3802  0.4347  0.9672
 8937TIP3    H248303   1.687   1.710   3.778  1.3633  0.6141 -0.8200
 8938TIP3   OH248304   1.486   6.823  14.211  0.0171 -0.1483 -0.1803
 8938TIP3    H148305   1.499   6.748  14.154  0.6198 -0.3326  0.1876
 8938TIP3    H248306   1.396   6.815  14.242 -0.5830  0.3995 -1.7168
 8939TIP3   OH248307   0.474   1.801  13.549  0.1868  0.4428 -0.6240
 8939TIP3    H148308   0.474   1.826  13.641  1.4550 -0.4028 -0.3572
 8939TIP3    H248309   0.525   1.719  13.547 -0.2592  0.1797 -2.0009
 8940TIP3   OH248310   0.338   1.825   1.415 -0.7059 -0.3050 -0.1473
 8940TIP3    H148311   0.345   1.920   1.404  1.3331 -0.2659  1.0452
 8940TIP3    H248312   0.386   1.788   1.341  0.2362 -0.3298  0.4530
 8941TIP3   OH248313   3.650   4.294  16.332 -0.0464 -0.5455 -0.7359
 8941TIP3    H148314   3.658   4.341  16.249 -0.7948 -0.0467 -0.5284
 8941TIP3    H248315   3.557   4.297  16.353  0.3826  1.4963  1.3576
 8942TIP3   OH248316   2.853   3.932   5.534  0.0085 -0.0362  0.4873
 8942TIP3    H148317   2.908   3.955   5.459 -2.1019  2.2575 -0.4815
 8942TIP3    H248318   2.809   3.851   5.508 -0.4301  0.5399 -0.6537
 8943TIP3   OH248319   6.563   1.813   4.766 -0.2520  0.4669 -0.1082
 8943TIP3    H148320   6.563   1.786   4.858  0.4160 -0.3672 -0.3433
 8943TIP3    H248321   6.483   1.864   4.756 -1.2407 -0.9106  0.5177
 8944TIP3   OH248322   3.022   0.664   3.006 -0.0801  0.3678  0.3532
 8944TIP3    H148323   3.031   0.595   2.941  0.4247  1.2923 -0.5958
 8944TIP3    H248324   3.051   0.625   3.088  1.0208 -0.2870 -0.3326
 8945TIP3   OH248325   5.636   6.773   3.822  0.3452 -0.4312  0.2244
 8945TIP3    H148326   5.547   6.802   3.800 -0.3744 -1.2336  1.9258
 8945TIP3    H248327   5.661   6.716   3.749 -0.1577  0.4981 -0.7094
 8946TIP3   OH248328   6.336   0.225   1.763  0.5542  0.0915  0.1124
 8946TIP3    H148329   6.385   0.199   1.685  1.3813 -3.1953  1.5512
 8946TIP3    H248330   6.276   0.152   1.779 -2.1727  2.2986  0.6040
 8947TIP3   OH248331   3.927   1.605   4.874  0.4393 -0.9275  0.2971
 8947TIP3    H148332   4.011   1.631   4.836 -0.8491 -0.0952 -2.1941
 8947TIP3    H248333   3.899   1.682   4.924  0.2411 -0.4002 -0.5946
 8948TIP3   OH248334   5.062   0.354  10.685 -0.7523 -0.8682 -0.2912
 8948TIP3    H148335   5.075   0.302  10.764 -1.6904 -1.4402 -0.5066
 8948TIP3    H248336   5.040   0.290  10.617  1.6048 -0.5852 -1.4361
 8949TIP3   OH248337   0.326   0.532  16.959 -0.1396  0.1242 -0.0398
 8949TIP3    H148338   0.325   0.628  16.953  0.2144  0.0935 -0.7410
 8949TIP3    H248339   0.265   0.504  16.891 -0.5813 -0.1448  0.4603
 8950TIP3   OH248340   4.094   6.823  12.215 -0.4728  0.4969 -0.3160
 8950TIP3    H148341   4.180   6.845  12.250  0.0887 -0.0756 -1.3038
 8950TIP3    H248342   4.046   6.906  12.214  0.9653  1.3617 -2.2573
 8951TIP3   OH248343   0.395   0.372   0.918 -0.0714  0.1694  0.4395
 8951TIP3    H148344   0.402   0.468   0.923  1.0826  0.1781 -0.7795
 8951TIP3    H248345   0.382   0.354   0.824 -0.4842 -0.8535  0.6837
 8952TIP3   OH248346   1.255   1.034  12.989  0.2167 -0.2362  0.1089
 8952TIP3    H148347   1.229   0.965  12.928 -0.2636 -1.2367  1.4175
 8952TIP3    H248348   1.327   0.996  13.039 -0.3637  0.0271  1.1636
 8953TIP3   OH248349   2.917   1.610  14.906 -0.0970  0.4722 -0.0922
 8953TIP3    H148350   2.856   1.568  14.966  1.3551  1.6040  2.3003
 8953TIP3    H248351   2.862   1.672  14.857 -1.1862  0.1306  0.6516
 8954TIP3   OH248352   5.703   4.730  15.510 -0.1384  0.2597  0.3129
 8954TIP3    H148353   5.716   4.684  15.593  0.2213  1.1686  0.7861
 8954TIP3    H248354   5.638   4.679  15.463 -1.2443  0.3583  1.6758
 8955TIP3   OH248355   0.083   3.753  10.984  0.3437 -0.2966 -0.5716
 8955TIP3    H148356   0.077   3.763  10.889  3.2734  1.0522 -0.7221
 8955TIP3    H248357   0.027   3.822  11.019 -0.9924 -0.9848 -1.2264
 8956TIP3   OH248358   5.656   0.784   0.206  0.1779 -0.6277 -0.0649
 8956TIP3    H148359   5.748   0.777   0.182 -0.1352 -2.3580 -0.9217
 8956TIP3    H248360   5.638   0.703   0.254 -0.4081  0.6384  1.9626
 8957TIP3   OH248361   2.106   4.523   0.985  0.3656 -0.0762  0.0886
 8957TIP3    H148362   2.067   4.605   0.954 -0.7475  0.1984  2.0764
 8957TIP3    H248363   2.197   4.527   0.953  0.0567  1.4338 -0.7253
 8958TIP3   OH248364   4.993   1.029   1.622  0.2269  0.3515 -0.1295
 8958TIP3    H148365   5.024   1.018   1.532 -1.1014 -1.8191 -0.3894
 8958TIP3    H248366   5.070   1.011   1.676  0.5193 -0.4711 -0.8056
 8959TIP3   OH248367   6.211   6.010   0.708  0.3055  0.0095 -0.3730
 8959TIP3    H148368   6.205   6.080   0.643  0.9912  0.3441 -0.0899
 8959TIP3    H248369   6.281   5.954   0.677 -0.7021 -0.9543 -0.9611
 8960TIP3   OH248370   0.534   2.452  12.136 -0.1718 -0.5892 -0.0232
 8960TIP3    H148371   0.626   2.428  12.131  0.1220  0.3884  0.3043
 8960TIP3    H248372   0.498   2.430  12.050 -0.2270 -3.1618  0.5759
 8961TIP3   OH248373   1.122   0.065  11.544 -0.1940  0.2574 -0.0238
 8961TIP3    H148374   1.038   0.023  11.528  0.1226  0.0632 -1.2845
 8961TIP3    H248375   1.151   0.093  11.457  1.6427 -0.8293  0.1918
 8962TIP3   OH248376   0.923   5.017  15.782  0.0757  0.4568 -0.4972
 8962TIP3    H148377   0.914   4.992  15.874 -1.5158  0.0568 -0.7275
 8962TIP3    H248378   0.939   5.111  15.784  2.1211  0.1423  0.2379
 8963TIP3   OH248379   1.122   4.643   3.952  0.0422  0.1053  0.2577
 8963TIP3    H148380   1.172   4.718   3.921  0.3963 -0.2750 -0.0974
 8963TIP3    H248381   1.159   4.623   4.038 -1.0517  1.2649  1.0323
 8964TIP3   OH248382   1.128   5.341  15.456 -0.3911 -0.2514  0.4270
 8964TIP3    H148383   1.081   5.315  15.377 -0.1674 -2.6682  1.0291
 8964TIP3    H248384   1.187   5.410  15.426  1.2929 -2.5628 -2.0807
 8965TIP3   OH248385   1.422   2.955   5.870 -0.0624 -0.0400 -0.1382
 8965TIP3    H148386   1.358   2.893   5.903  0.5515  0.2921  1.7922
 8965TIP3    H248387   1.500   2.902   5.850 -0.3242 -0.1959 -0.7655
 8966TIP3   OH248388   4.987   1.395   3.241  0.0837  0.5708  0.6640
 8966TIP3    H148389   5.035   1.478   3.234 -1.8848  1.7136 -0.2565
 8966TIP3    H248390   4.956   1.392   3.331  0.9532  0.3602  0.9601
 8967TIP3   OH248391   3.776   6.173   5.332  0.3111  0.1678  0.1714
 8967TIP3    H148392   3.812   6.175   5.243  4.3892  2.0471  1.6572
 8967TIP3    H248393   3.774   6.080   5.355 -0.4971 -0.3295 -1.6543
 8968TIP3   OH248394   3.678   0.765   4.540 -0.0321  0.0507 -0.0958
 8968TIP3    H148395   3.657   0.830   4.608  2.5199 -0.3159  1.1637
 8968TIP3    H248396   3.599   0.712   4.533 -1.5160  2.0637  0.2194
 8969TIP3   OH248397   3.774   2.995   6.260 -0.5816  0.3333 -0.0715
 8969TIP3    H148398   3.760   2.934   6.333 -0.1270 -0.7143 -0.8376
 8969TIP3    H248399   3.724   3.073   6.284 -0.2823  0.0873  1.4562
 8970TIP3   OH248400   3.332   6.639  16.014 -0.2150  0.2917  0.3377
 8970TIP3    H148401   3.384   6.676  15.942  0.5495 -3.2860 -1.1845
 8970TIP3    H248402   3.398   6.613  16.079 -0.3810 -1.2183 -0.0778
 8971TIP3   OH248403   5.220   4.353   0.612  0.5719  0.0177  0.0358
 8971TIP3    H148404   5.141   4.407   0.608  0.3356 -0.0500  2.4190
 8971TIP3    H248405   5.189   4.264   0.596 -0.2789 -0.3009  2.8738
 8972TIP3   OH248406   2.574   6.714   5.244 -0.2950 -0.8485  0.2581
 8972TIP3    H148407   2.520   6.744   5.171  2.3859 -0.6200 -1.7929
 8972TIP3    H248408   2.602   6.794   5.288 -0.0412 -0.8374  0.0803
 8973TIP3   OH248409   4.350   1.308  12.398 -0.2121  0.4383  0.7385
 8973TIP3    H148410   4.390   1.394  12.408  0.8290 -0.2313  2.8685
 8973TIP3    H248411   4.424   1.247  12.389 -0.9394 -0.1839 -1.7895
 8974TIP3   OH248412   4.469   6.788   0.310 -0.0136 -0.3809  0.0080
 8974TIP3    H148413   4.543   6.803   0.368  1.3408  0.2893 -1.8005
 8974TIP3    H248414   4.410   6.862   0.327  0.4045 -0.1553  0.4894
 8975TIP3   OH248415   4.361   1.022  14.985 -0.5405  0.2817  0.2738
 8975TIP3    H148416   4.409   0.954  14.938  1.2288  0.2152  2.0121
 8975TIP3    H248417   4.282   0.979  15.017 -0.1656 -0.5531  0.1044
 8976TIP3   OH248418   2.501   3.358  13.981 -0.0183 -0.0811 -0.1096
 8976TIP3    H148419   2.427   3.299  13.966 -0.1871  0.3673 -1.1318
 8976TIP3    H248420   2.576   3.313  13.942 -0.2642  0.6298 -1.4691
 8977TIP3   OH248421   1.626   1.632  16.711 -0.7313  0.5597  0.9417
 8977TIP3    H148422   1.696   1.643  16.646  0.2537 -1.4393  1.5786
 8977TIP3    H248423   1.550   1.606  16.660 -0.4156  0.5985  0.4443
 8978TIP3   OH248424   2.082   0.647  15.990 -0.2755  0.2224 -0.1658
 8978TIP3    H148425   2.173   0.654  16.020 -0.9033 -0.2415  2.0030
 8978TIP3    H248426   2.055   0.559  16.015 -1.2224  0.1990 -1.1749
 8979TIP3   OH248427   5.046   3.203   0.714 -0.2083 -0.2108 -0.0586
 8979TIP3    H148428   5.039   3.280   0.771 -1.4813  0.3180 -0.8744
 8979TIP3    H248429   5.078   3.239   0.631 -2.3909 -0.2151 -0.9804
 8980TIP3   OH248430   2.364   6.742   0.219 -0.4033 -0.4728 -0.4088
 8980TIP3    H148431   2.290   6.793   0.186 -0.9058 -1.5808 -1.0306
 8980TIP3    H248432   2.325   6.677   0.277  0.2448 -0.0931  0.4891
 8981TIP3   OH248433   6.668   3.333   0.590  0.0444 -0.2898 -0.2158
 8981TIP3    H148434   6.615   3.379   0.655  1.0384  1.0400 -0.2946
 8981TIP3    H248435   6.609   3.268   0.552 -1.7509  1.5034 -0.7050
 8982TIP3   OH248436   4.395   1.556   1.551 -0.1953 -0.0566  0.9197
 8982TIP3    H148437   4.408   1.579   1.459  2.2114 -1.3060  0.8829
 8982TIP3    H248438   4.321   1.496   1.550 -2.0403  2.0537  0.2214
 8983TIP3   OH248439   5.234   5.305   1.489 -0.0504  0.3860 -0.0365
 8983TIP3    H148440   5.278   5.236   1.539  0.4489 -0.4422 -1.5641
 8983TIP3    H248441   5.230   5.379   1.550  1.8861 -0.0901  0.7693
 8984TIP3   OH248442   6.306   3.094  15.200  0.8797 -0.5361  0.0025
 8984TIP3    H148443   6.225   3.141  15.216 -0.1276 -1.7322 -1.3162
 8984TIP3    H248444   6.371   3.137  15.255 -0.4318  1.0750  0.3397
 8985TIP3   OH248445   6.532   1.490   0.830 -0.0649  0.2275 -0.0550
 8985TIP3    H148446   6.501   1.417   0.883  1.5471  0.4023  1.2201
 8985TIP3    H248447   6.623   1.502   0.857 -0.1145  2.3167 -0.6480
 8986TIP3   OH248448   6.663   3.547   1.897 -0.3203  0.3079  0.0358
 8986TIP3    H148449   6.752   3.582   1.892 -1.3101  2.8774 -1.4371
 8986TIP3    H248450   6.628   3.584   1.979 -1.6085  3.7993 -1.8666
 8987TIP3   OH248451   2.185   0.401   3.343  0.1672 -0.4016  0.3214
 8987TIP3    H148452   2.100   0.358   3.328 -0.1460 -0.3193  1.6618
 8987TIP3    H248453   2.209   0.437   3.258 -0.3380 -1.8460 -0.4839
 8988TIP3   OH248454   0.674   3.298  12.278 -0.2137  0.1314  0.8257
 8988TIP3    H148455   0.684   3.213  12.321 -0.4051  0.1166  0.8429
 8988TIP3    H248456   0.694   3.361  12.347  1.8609  0.0905  0.3160
 8989TIP3   OH248457   1.784   3.912   3.171 -0.2188 -0.5836 -0.1636
 8989TIP3    H148458   1.719   3.847   3.147 -1.4268  0.5543 -0.0805
 8989TIP3    H248459   1.858   3.894   3.113 -0.7525 -1.6625 -0.5246
 8990TIP3   OH248460   4.785   3.005  15.258  0.0839 -0.1375 -0.5324
 8990TIP3    H148461   4.839   3.012  15.180 -0.6880 -0.6794 -1.1334
 8990TIP3    H248462   4.834   2.949  15.317 -0.1290 -1.2284 -1.3591
 8991TIP3   OH248463   2.271   1.291  17.071 -0.1933  0.6790 -0.2060
 8991TIP3    H148464   2.274   1.263  16.979 -0.0667  0.4092 -0.1186
 8991TIP3    H248465   2.359   1.326  17.088 -0.2577  0.8517 -0.2254
 8992TIP3   OH248466   3.247   2.506  12.510  0.6802 -0.2379  0.5997
 8992TIP3    H148467   3.310   2.453  12.559 -0.9316 -0.7328  2.2550
 8992TIP3    H248468   3.202   2.444  12.454  0.5729 -0.1706  0.6109
 8993TIP3   OH248469   6.093   5.506  12.905 -0.2153 -0.2844  0.4050
 8993TIP3    H148470   6.166   5.567  12.915 -0.3456 -0.0838  0.1657
 8993TIP3    H248471   6.129   5.420  12.928 -0.2596  0.0028  1.6062
 8994TIP3   OH248472   5.882   6.256   2.099  0.2500 -0.7476  0.8808
 8994TIP3    H148473   5.836   6.306   2.167 -0.2507  0.2821 -0.1848
 8994TIP3    H248474   5.973   6.285   2.107  0.1908 -0.6165  1.0990
 8995TIP3   OH248475   2.671   1.660   3.691  0.0154 -0.0918  0.0662
 8995TIP3    H148476   2.638   1.705   3.769 -0.0554  1.3808 -0.7859
 8995TIP3    H248477   2.616   1.582   3.683 -0.1819 -0.0926  1.2961
 8996TIP3   OH248478   2.693   5.945   4.924  0.1751 -0.4249 -0.1730
 8996TIP3    H148479   2.679   6.037   4.905 -1.4241 -1.0209 -2.2974
 8996TIP3    H248480   2.783   5.928   4.897  0.0575  0.2343 -0.9994
 8997TIP3   OH248481   1.452   0.780  14.175 -0.2281  0.1467 -0.6828
 8997TIP3    H148482   1.434   0.740  14.261  0.1533 -0.1440 -0.7322
 8997TIP3    H248483   1.447   0.874  14.190 -0.4831  0.0910 -0.4129
 8998TIP3   OH248484   5.859   0.942   0.792  0.1410  0.9427 -0.5515
 8998TIP3    H148485   5.838   0.987   0.711 -0.0267 -0.5298 -1.3497
 8998TIP3    H248486   5.816   0.857   0.785 -1.0172  1.2601  1.6728
 8999TIP3   OH248487   0.611   4.547  13.502 -0.0871  0.3749 -0.4642
 8999TIP3    H148488   0.655   4.632  13.497  0.3428  0.1149 -1.5587
 8999TIP3    H248489   0.604   4.529  13.595 -0.4472  1.7448 -0.1991
 9000TIP3   OH248490   0.972   0.043   1.745  0.9227 -0.1074  0.1156
 9000TIP3    H148491   0.932   0.019   1.662  1.3105  0.4789 -0.2466
 9000TIP3    H248492   0.899   0.077   1.797  0.7899  0.1234 -0.2172
 9001TIP3   OH248493   5.325   5.507   5.735  0.5576 -0.2574  0.1547
 9001TIP3    H148494   5.357   5.578   5.679 -0.6371  0.3194  0.1635
 9001TIP3    H248495   5.390   5.501   5.805  0.9047  0.5457 -0.0811
 9002TIP3   OH248496   4.671   6.161   2.636 -0.3002 -0.2143 -0.8861
 9002TIP3    H148497   4.633   6.190   2.719  1.9924  1.9843 -0.4964
 9002TIP3    H248498   4.686   6.067   2.648  0.2933  0.1139  1.3349
 9003TIP3   OH248499   2.479   1.422   0.180  0.0193  0.0853 -0.2097
 9003TIP3    H148500   2.555   1.475   0.207  0.7249 -0.5232 -0.9522
 9003TIP3    H248501   2.498   1.398   0.089 -1.1983  0.1364 -0.4980
 9004TIP3   OH248502   1.802   1.111  15.653 -0.4181 -0.1014  0.3380
 9004TIP3    H148503   1.711   1.111  15.624 -0.4460 -2.2025  0.2588
 9004TIP3    H248504   1.853   1.127  15.574 -0.6586 -1.2597 -0.0706
 9005TIP3   OH248505   4.328   0.787  11.231  0.4739  0.4464 -0.0043
 9005TIP3    H148506   4.287   0.873  11.219 -0.9808 -0.2547 -0.2765
 9005TIP3    H248507   4.394   0.801  11.300 -0.8607  1.4280  1.1230
 9006TIP3   OH248508   4.735   5.920  12.198  0.2347  0.2311 -0.5568
 9006TIP3    H148509   4.816   5.871  12.214  0.3147  0.6348  0.3011
 9006TIP3    H248510   4.690   5.870  12.129  1.7009  0.5953 -1.8176
 9007TIP3   OH248511   5.992   0.920  13.928  0.1583 -0.0470 -0.1228
 9007TIP3    H148512   6.054   0.961  13.988  1.0987 -1.7361  0.1464
 9007TIP3    H248513   5.956   0.847  13.978 -1.4827  0.4279 -0.5573
 9008TIP3   OH248514   3.895   1.803  14.417  0.1706 -0.0985 -0.1449
 9008TIP3    H148515   3.965   1.762  14.366 -0.6138 -0.2058 -1.1627
 9008TIP3    H248516   3.857   1.730  14.467 -0.8700 -0.5454 -1.5422
 9009TIP3   OH248517   5.602   4.343   1.601 -0.3346  0.8837  0.0956
 9009TIP3    H148518   5.542   4.362   1.673  0.3752 -0.3256  1.0420
 9009TIP3    H248519   5.545   4.321   1.527 -1.0877  0.1620  0.8686
 9010TIP3   OH248520   4.332   6.209  16.070  0.4922 -0.2315  0.2388
 9010TIP3    H148521   4.414   6.254  16.049 -0.1433  1.5475  1.3214
 9010TIP3    H248522   4.266   6.258  16.022 -0.1557 -0.4282  0.9243
 9011TIP3   OH248523   3.285   3.919  11.173  0.1254 -0.2009  0.7247
 9011TIP3    H148524   3.318   3.975  11.243  2.6344 -0.8434  0.1565
 9011TIP3    H248525   3.239   3.848  11.219 -0.4390  0.6803  1.5644
 9012TIP3   OH248526   6.830   5.555   0.977  0.1003  0.2643 -0.7978
 9012TIP3    H148527   6.758   5.570   0.915 -0.7154 -1.7072 -0.3910
 9012TIP3    H248528   6.852   5.462   0.967  0.1506 -0.0575  1.6504
 9013TIP3   OH248529   2.715   1.531   3.370 -0.6217 -0.0607  0.5027
 9013TIP3    H148530   2.665   1.454   3.396  0.3022 -0.8752 -0.0141
 9013TIP3    H248531   2.785   1.537   3.436 -0.0944 -0.2897 -0.0249
 9014TIP3   OH248532   6.167   2.316  11.111 -0.2009  0.1274  0.4121
 9014TIP3    H148533   6.244   2.324  11.166  1.6748 -0.4679 -1.9764
 9014TIP3    H248534   6.127   2.233  11.136  1.5180 -0.9028 -0.1475
 9015TIP3   OH248535   3.508   2.068  16.582 -0.2881 -0.1843 -0.0550
 9015TIP3    H148536   3.457   2.128  16.636  0.1548 -1.3223  1.7117
 9015TIP3    H248537   3.444   2.004  16.551 -0.8612  1.3678 -2.3690
 9016TIP3   OH248538   1.553   5.515   5.545  0.0878  0.1928  0.0726
 9016TIP3    H148539   1.551   5.522   5.450 -1.7891  0.5991  0.1095
 9016TIP3    H248540   1.478   5.460   5.566  0.7024 -0.2085  1.3104
 9017TIP3   OH248541   6.135   5.689  13.776 -0.2216  0.4874 -0.1333
 9017TIP3    H148542   6.163   5.775  13.747  0.8829  0.4005  0.5887
 9017TIP3    H248543   6.157   5.631  13.703  2.6951  0.2391  0.8147
 9018TIP3   OH248544   4.606   2.682  17.022  0.8849  0.0440  0.0991
 9018TIP3    H148545   4.529   2.738  17.006 -1.0056 -1.9120  1.7226
 9018TIP3    H248546   4.591   2.604  16.969  0.8717 -1.0578  1.6431
 9019TIP3   OH248547   0.004   4.243  16.706  0.0563  0.5728 -0.7067
 9019TIP3    H148548   0.023   4.203  16.621  0.8674 -0.7257  0.0639
 9019TIP3    H248549   0.052   4.326  16.705  2.3303 -0.6548 -0.5068
 9020TIP3   OH248550   5.446   4.729   0.319  1.0859  0.3664 -0.3194
 9020TIP3    H148551   5.399   4.646   0.315  1.4262  0.1859 -0.5759
 9020TIP3    H248552   5.462   4.744   0.412  1.3725 -0.0461 -0.3051
 9021TIP3   OH248553   1.632   1.111  14.124  0.3159 -0.3323 -0.0126
 9021TIP3    H148554   1.579   1.166  14.183 -1.3611 -1.5437 -0.3018
 9021TIP3    H248555   1.616   1.148  14.037 -1.3605 -1.6085 -0.2939
 9022TIP3   OH248556   5.764   5.665  12.085 -0.0643  0.0166  0.4809
 9022TIP3    H148557   5.797   5.575  12.082 -0.3122 -0.1487  2.0300
 9022TIP3    H248558   5.831   5.713  12.134 -0.5513  0.3869  0.7900
 9023TIP3   OH248559   3.883   0.398   4.953  0.5991 -0.2331 -0.3166
 9023TIP3    H148560   3.829   0.469   4.988  1.6922  0.4941 -0.0522
 9023TIP3    H248561   3.970   0.437   4.945  0.8854 -1.0830 -1.6364
 9024TIP3   OH248562   3.574   3.017  14.093 -0.4458  0.1855  0.4483
 9024TIP3    H148563   3.669   3.029  14.084 -0.4441  3.9368  3.0941
 9024TIP3    H248564   3.561   2.996  14.185 -2.2312  1.3893  0.5248
 9025TIP3   OH248565   3.099   2.958   4.846  0.9574  0.5725 -0.6386
 9025TIP3    H148566   3.032   2.891   4.838  2.4288 -1.0456 -0.0418
 9025TIP3    H248567   3.054   3.040   4.827 -0.4873 -0.7355 -3.5225
 9026TIP3   OH248568   6.582   1.539  14.318 -0.4488 -0.0312 -0.1789
 9026TIP3    H148569   6.664   1.552  14.365 -0.3708 -0.8509 -0.0854
 9026TIP3    H248570   6.520   1.511  14.386 -0.4058 -0.9559 -0.5186
 9027TIP3   OH248571   4.825   5.463  13.267 -0.1037 -0.2015 -0.3812
 9027TIP3    H148572   4.865   5.378  13.286 -1.0782 -0.3923  0.9259
 9027TIP3    H248573   4.859   5.486  13.180  4.2378  0.5027  1.2751
 9028TIP3   OH248574   5.589   6.267  12.666 -0.4244  0.4878  0.1584
 9028TIP3    H148575   5.573   6.212  12.589  2.4601  1.4565 -1.2886
 9028TIP3    H248576   5.531   6.342  12.654 -0.1929  0.5096 -0.9886
 9029TIP3   OH248577   5.131   1.673  11.124  0.2323 -0.3399  0.6722
 9029TIP3    H148578   5.224   1.648  11.127  0.7022  1.3597  1.6574
 9029TIP3    H248579   5.132   1.765  11.098 -1.3288 -0.8301 -1.3577
 9030TIP3   OH248580   1.365   2.727  11.745 -0.4672  0.2780  0.4582
 9030TIP3    H148581   1.391   2.762  11.830 -1.1131  0.4746  0.5756
 9030TIP3    H248582   1.448   2.714  11.698 -0.1117  0.2037  1.0996
 9031TIP3   OH248583   1.726   6.387   3.171  0.1648  0.1864 -0.2862
 9031TIP3    H148584   1.690   6.314   3.121 -0.1101 -0.6736  1.1152
 9031TIP3    H248585   1.677   6.463   3.140 -0.0328 -0.3176 -1.2687
 9032TIP3   OH248586   2.136   0.977   4.126  0.0382 -0.3042  0.1371
 9032TIP3    H148587   2.212   0.940   4.081  1.5622  1.9993  0.6575
 9032TIP3    H248588   2.151   0.956   4.219 -0.7759 -1.1378  0.0950
 9033TIP3   OH248589   2.259   2.606   3.407 -0.0384 -0.5666  0.1274
 9033TIP3    H148590   2.290   2.553   3.481 -0.4843 -1.0758 -0.0413
 9033TIP3    H248591   2.236   2.690   3.446  0.5354 -0.5473  0.4257
 9034TIP3   OH248592   3.007   4.913   2.673 -0.2336  0.4107  0.3834
 9034TIP3    H148593   2.976   4.861   2.747  1.3239  0.6302  1.2425
 9034TIP3    H248594   3.101   4.896   2.669 -0.5098 -1.0897 -2.7889
 9035TIP3   OH248595   1.894   0.400  13.219 -0.0501 -0.6656 -0.0740
 9035TIP3    H148596   1.845   0.341  13.162  0.0933 -0.3935 -0.4854
 9035TIP3    H248597   1.830   0.465  13.247  0.1081 -0.1847 -0.7851
 9036TIP3   OH248598   6.073   0.938  11.301  0.5002 -0.0221  0.0552
 9036TIP3    H148599   5.990   0.914  11.259  0.0972  1.7921 -0.2832
 9036TIP3    H248600   6.070   0.893  11.386  0.3741 -2.0472 -0.9499
 9037TIP3   OH248601   0.582   4.326  11.320 -0.5226 -0.1128  0.0975
 9037TIP3    H148602   0.647   4.259  11.337  0.0360  0.4989  0.4124
 9037TIP3    H248603   0.537   4.339  11.404 -1.4161 -0.8942 -0.2370
 9038TIP3   OH248604   3.056   1.543  13.774 -0.0088  0.0846 -0.2957
 9038TIP3    H148605   3.130   1.490  13.804 -0.7882 -0.2183  1.2079
 9038TIP3    H248606   3.064   1.544  13.679  2.5154  0.9354 -0.1504
 9039TIP3   OH248607   1.488   1.115  14.441 -0.0742 -0.5496 -0.3594
 9039TIP3    H148608   1.448   1.050  14.382 -1.6840  0.0509  0.0233
 9039TIP3    H248609   1.568   1.073  14.471 -1.7396 -2.9977  0.9863
 9040TIP3   OH248610   0.436   0.727  15.218 -0.1277  0.1061 -0.2224
 9040TIP3    H148611   0.487   0.733  15.299 -1.4028 -0.2943  0.6497
 9040TIP3    H248612   0.472   0.651  15.173  2.3268  1.8158 -1.3456
 9041TIP3   OH248613   4.661   4.259  11.452 -0.2661 -0.0723  0.0173
 9041TIP3    H148614   4.592   4.258  11.518  0.1807 -1.1682  0.4997
 9041TIP3    H248615   4.714   4.336  11.473 -0.7043  0.1467  0.3228
 9042TIP3   OH248616   6.392   4.099   3.320 -0.0009 -0.3568  0.0432
 9042TIP3    H148617   6.361   4.055   3.399  0.8121 -0.4453  0.3192
 9042TIP3    H248618   6.425   4.029   3.264  1.2283 -0.1331  0.4538
 9043TIP3   OH248619   3.929   2.745   1.406 -0.9143 -0.5164 -0.0916
 9043TIP3    H148620   3.923   2.746   1.501 -1.2751  0.7336 -0.1126
 9043TIP3    H248621   4.009   2.694   1.388 -0.2142  0.1827  0.9203
 9044TIP3   OH248622   4.014   0.197  13.558 -0.3542 -0.4321  0.0064
 9044TIP3    H148623   4.040   0.174  13.648  0.0672 -0.6220 -0.1638
 9044TIP3    H248624   3.925   0.231  13.568 -0.5717 -1.0942  0.4088
 9045TIP3   OH248625   3.420   2.545   4.917  0.3762 -0.3816 -0.3161
 9045TIP3    H148626   3.348   2.484   4.934  0.1770  0.3571  1.7532
 9045TIP3    H248627   3.490   2.516   4.976  1.1710 -0.0392 -1.0609
 9046TIP3   OH248628   4.148   1.785  11.262 -0.3819  0.1321  0.0857
 9046TIP3    H148629   4.129   1.825  11.347 -1.7631  1.0683 -0.6266
 9046TIP3    H248630   4.104   1.700  11.265 -3.4278  1.5298 -0.8622
 9047TIP3   OH248631   6.793   6.825  12.198  0.0113 -0.1231 -0.0535
 9047TIP3    H148632   6.849   6.801  12.271  0.8122  1.8094  0.0046
 9047TIP3    H248633   6.724   6.758  12.198  0.3183 -0.5012  2.0775
 9048TIP3   OH248634   3.170   3.530  16.316  0.2487 -0.5880 -0.2418
 9048TIP3    H148635   3.104   3.551  16.251  0.6542  1.7632  0.0348
 9048TIP3    H248636   3.159   3.595  16.385  2.2801 -0.6273  0.2029
 9049TIP3   OH248637   5.465   6.689   2.791  0.3922  0.8030 -0.1533
 9049TIP3    H148638   5.544   6.670   2.842  0.2093  1.2768  0.3203
 9049TIP3    H248639   5.464   6.784   2.782 -1.4169  1.0871  2.0503
 9050TIP3   OH248640   4.393   5.683   5.500  0.3545  0.2425  0.4985
 9050TIP3    H148641   4.412   5.764   5.454  1.7161 -0.7213 -0.7032
 9050TIP3    H248642   4.324   5.641   5.448  1.9011 -0.8523 -0.7461
 9051TIP3   OH248643   3.046   0.745   3.925 -0.3861 -0.3698 -0.1763
 9051TIP3    H148644   3.015   0.665   3.968  0.9553 -1.0323 -0.4018
 9051TIP3    H248645   3.035   0.727   3.831  0.0417 -0.3514 -0.2322
 9052TIP3   OH248646   3.787   6.371   4.580 -0.4287  0.7981 -0.1664
 9052TIP3    H148647   3.867   6.326   4.554 -1.2397 -0.6015 -0.3486
 9052TIP3    H248648   3.796   6.384   4.675 -0.7034 -0.9323  0.1258
 9053TIP3   OH248649   3.950   3.952   2.508  0.1704 -0.5868 -0.0592
 9053TIP3    H148650   3.985   4.038   2.533  0.1194 -0.9418  1.3169
 9053TIP3    H248651   3.957   3.950   2.413 -0.2241  1.1148 -0.1625
 9054TIP3   OH248652   0.826   5.712   1.483  0.3113  0.0923 -0.0605
 9054TIP3    H148653   0.759   5.657   1.525  0.7679 -0.7146 -0.3747
 9054TIP3    H248654   0.776   5.775   1.432 -0.2180 -0.1800  0.1115
 9055TIP3   OH248655   4.526   0.057   4.805 -0.0595 -0.1222  0.2353
 9055TIP3    H148656   4.561  -0.027   4.834 -0.6471 -1.3710 -2.3685
 9055TIP3    H248657   4.586   0.122   4.842  0.5764 -1.6647  2.0892
 9056TIP3   OH248658   5.362   6.635  11.020 -0.0360  0.3861 -0.5093
 9056TIP3    H148659   5.444   6.618  11.067  0.2799  1.1535 -0.7645
 9056TIP3    H248660   5.300   6.573  11.056  0.1131  1.1684  1.1598
 9057TIP3   OH248661   0.840   2.391  16.530  0.0608  0.6024  0.1105
 9057TIP3    H148662   0.885   2.328  16.475  0.4635  1.5718 -0.7105
 9057TIP3    H248663   0.866   2.369  16.619 -2.5388 -2.5731  0.2631
 9058TIP3   OH248664   2.455   0.567   5.614 -0.4592 -0.1536 -0.9204
 9058TIP3    H148665   2.368   0.604   5.620  0.0744  1.0233  0.0366
 9058TIP3    H248666   2.441   0.472   5.610 -1.7536 -0.0080 -0.2287
 9059TIP3   OH248667   0.758   4.211  15.592  0.2180  0.5898 -0.9344
 9059TIP3    H148668   0.786   4.181  15.505 -0.0740 -1.5180 -0.3388
 9059TIP3    H248669   0.662   4.211  15.587  0.1983  0.2767 -0.5421
 9060TIP3   OH248670   4.727   4.163   5.563 -0.7699  0.4748 -0.2119
 9060TIP3    H148671   4.658   4.098   5.553 -1.3751  1.1194 -0.3296
 9060TIP3    H248672   4.765   4.145   5.649  0.0752 -0.9631 -0.8529
 9061TIP3   OH248673   2.775   0.138   3.703  0.3464 -0.5211  0.1239
 9061TIP3    H148674   2.696   0.091   3.679  0.8937 -1.4608  0.1234
 9061TIP3    H248675   2.838   0.070   3.727  1.6882  0.0711 -1.4533
 9062TIP3   OH248676   2.339   1.291   4.622 -0.0094 -0.4570  0.4147
 9062TIP3    H148677   2.251   1.328   4.610  0.2931 -0.0433 -0.7341
 9062TIP3    H248678   2.376   1.340   4.696 -0.6632 -0.4711  0.7559
 9063TIP3   OH248679   1.712   1.942   0.974  0.1810  0.6012  0.0288
 9063TIP3    H148680   1.744   1.871   0.919  0.6986  2.3456 -2.0613
 9063TIP3    H248681   1.771   1.944   1.050  1.8637  0.5028 -1.2286
 9064TIP3   OH248682   0.525   5.150   6.358  0.0530  0.3413 -0.1512
 9064TIP3    H148683   0.606   5.184   6.395 -0.0900 -0.8386  1.3471
 9064TIP3    H248684   0.457   5.180   6.419 -0.3510 -0.5460 -0.1564
 9065TIP3   OH248685   5.562   2.987  11.797 -0.2747  0.3340  0.5297
 9065TIP3    H148686   5.642   2.953  11.755  0.6002  2.3708  0.3867
 9065TIP3    H248687   5.595   3.041  11.870 -1.6727 -0.9509  2.1804
 9066TIP3   OH248688   3.591   3.903   3.229 -0.3110 -0.3151  0.0652
 9066TIP3    H148689   3.605   3.994   3.201  0.1435 -0.5988 -0.6828
 9066TIP3    H248690   3.666   3.884   3.285 -0.7871 -0.0063  0.8171
 9067TIP3   OH248691   3.219   1.667  13.100  0.0095  0.7083 -0.4395
 9067TIP3    H148692   3.226   1.575  13.074  1.3139  1.0963 -1.5795
 9067TIP3    H248693   3.161   1.705  13.034 -1.5270  0.4874  0.7283
 9068TIP3   OH248694   3.253   6.093  14.978  0.2741 -0.2468 -0.2248
 9068TIP3    H148695   3.315   6.129  15.041  1.2941  0.6189 -1.6497
 9068TIP3    H248696   3.279   6.002  14.967 -1.0927 -0.9845  1.9362
 9069TIP3   OH248697   1.208   0.725  12.292 -0.0958 -0.2561 -1.0876
 9069TIP3    H148698   1.229   0.764  12.377 -0.4978  1.6229 -1.8005
 9069TIP3    H248699   1.292   0.724  12.245 -0.1869  0.2871 -1.2671
 9070TIP3   OH248700   5.580   4.697  16.470  0.5985  0.5271  0.2640
 9070TIP3    H148701   5.503   4.753  16.464  0.0525 -0.2977 -0.6909
 9070TIP3    H248702   5.654   4.757  16.457  0.2400  1.5527  2.4656
 9071TIP3   OH248703   3.475   1.934  14.771 -0.2666 -0.0942  0.0369
 9071TIP3    H148704   3.525   2.006  14.733  1.1453 -1.2045 -0.3031
 9071TIP3    H248705   3.519   1.855  14.739  0.3664 -1.1236  3.1272
 9072TIP3   OH248706   6.335   5.429  12.730  0.4521 -0.2552 -0.0568
 9072TIP3    H148707   6.422   5.440  12.691  0.3402  1.2009  0.0393
 9072TIP3    H248708   6.321   5.510  12.779 -0.2060 -1.2346  1.4437
 9073TIP3   OH248709   2.951   5.909   4.806 -0.4302  0.4034  0.0190
 9073TIP3    H148710   2.961   5.843   4.737 -0.2589 -1.1327  1.4397
 9073TIP3    H248711   2.959   5.993   4.760  0.4474 -0.5553 -1.7073
 9074TIP3   OH248712   3.436   2.576   4.434 -0.3249 -0.2475  0.0339
 9074TIP3    H148713   3.428   2.549   4.343 -0.6756  0.6166 -0.2081
 9074TIP3    H248714   3.460   2.669   4.429 -0.9692 -0.0217  0.8042
 9075TIP3   OH248715   1.059   1.350  14.650  0.5200  0.1650 -0.4557
 9075TIP3    H148716   1.071   1.352  14.555  1.5057 -2.4783 -0.4871
 9075TIP3    H248717   1.125   1.288  14.681  0.5365  1.2944  2.0430
 9076TIP3   OH248718   3.727   0.146  10.911 -0.1574  0.3147 -0.0102
 9076TIP3    H148719   3.811   0.106  10.890  0.0331  0.6441  0.1323
 9076TIP3    H248720   3.746   0.208  10.981 -0.3555  1.0629 -0.5991
 9077TIP3   OH248721   3.491   1.770  14.169  0.0621 -0.7275 -0.1460
 9077TIP3    H148722   3.556   1.719  14.121  0.8435  0.0492  0.0738
 9077TIP3    H248723   3.542   1.828  14.224 -0.7291  1.6098 -1.7255
 9078TIP3   OH248724   4.119   0.273   0.118 -0.4668 -0.6272  0.2246
 9078TIP3    H148725   4.209   0.274   0.087 -0.1066 -0.1677  1.2292
 9078TIP3    H248726   4.066   0.271   0.039  0.4181 -0.5480 -0.3841
 9079TIP3   OH248727   4.244   1.887   5.553 -0.1516  0.0232  0.1416
 9079TIP3    H148728   4.177   1.852   5.612  0.2842  0.8956  1.1949
 9079TIP3    H248729   4.234   1.982   5.559  2.6949  0.3203  2.2521
 9080TIP3   OH248730   1.869   6.258  13.323 -0.1682  0.1439  0.0573
 9080TIP3    H148731   1.840   6.221  13.240 -0.2837 -0.9258  0.5493
 9080TIP3    H248732   1.964   6.246  13.323  0.0006  1.3531 -0.4745
 9081TIP3   OH248733   1.103   6.654  14.480 -0.2601  0.4711  0.1869
 9081TIP3    H148734   1.122   6.608  14.398  1.9238  0.8397  0.4315
 9081TIP3    H248735   1.185   6.649  14.530 -0.6912  2.5552  1.2257
 9082TIP3   OH248736   0.504   5.074  17.040 -0.1302  0.3387  0.5445
 9082TIP3    H148737   0.483   5.101  17.129 -0.8379 -0.1859  0.5400
 9082TIP3    H248738   0.585   5.023  17.048  0.1785  0.8565  0.7890
 9083TIP3   OH248739   3.569   4.627   3.861  0.2843 -0.4250  0.3260
 9083TIP3    H148740   3.573   4.686   3.787  0.0222 -0.7084  0.0807
 9083TIP3    H248741   3.649   4.643   3.910  1.0014 -1.0126 -0.6209
 9084TIP3   OH248742   6.595   2.377   0.812  0.1055  0.2185 -0.4583
 9084TIP3    H148743   6.586   2.420   0.897  0.2172 -1.3490  0.3850
 9084TIP3    H248744   6.587   2.448   0.749  0.7650  1.5374  0.8683
 9085TIP3   OH248745   1.407   0.298   0.489 -0.1261  0.5965  0.3850
 9085TIP3    H148746   1.340   0.236   0.459 -1.1105  1.7714  0.0680
 9085TIP3    H248747   1.489   0.250   0.482 -0.8112 -0.5283 -0.2511
 9086TIP3   OH248748   4.612   0.913  11.908 -0.2584  0.2395  0.0827
 9086TIP3    H148749   4.643   1.001  11.927  1.6262  0.4002 -2.9527
 9086TIP3    H248750   4.517   0.918  11.916 -0.3680  3.0856 -1.5729
 9087TIP3   OH248751   0.788   5.166   5.084  0.0158 -0.3680  0.0139
 9087TIP3    H148752   0.734   5.244   5.075  0.1063 -0.1747  1.0239
 9087TIP3    H248753   0.786   5.125   4.998 -1.0861  0.0540 -0.1719
 9088TIP3   OH248754   6.178   2.394  13.816  0.0379 -0.1490  0.4290
 9088TIP3    H148755   6.216   2.373  13.902  0.5695  0.2260  0.2933
 9088TIP3    H248756   6.206   2.484  13.800  1.3278 -0.7535 -0.8868
 9089TIP3   OH248757   3.503   2.777  13.287 -0.7287  0.6123  0.2160
 9089TIP3    H148758   3.592   2.753  13.314  0.0462  1.8799 -1.1237
 9089TIP3    H248759   3.492   2.737  13.201 -0.3901  2.7355 -0.8710
 9090TIP3   OH248760   6.760   6.812   0.818 -0.0253  0.0654 -1.1047
 9090TIP3    H148761   6.678   6.786   0.776 -0.2778 -1.3976  0.2088
 9090TIP3    H248762   6.794   6.732   0.857  0.3023  1.2475  1.2781
 9091TIP3   OH248763   2.462   3.749   6.654 -0.0189 -0.0572  0.4676
 9091TIP3    H148764   2.547   3.794   6.655  0.3951 -0.8172  1.6263
 9091TIP3    H248765   2.419   3.781   6.574  0.0598  2.7187  1.4127
 9092TIP3   OH248766   1.589   0.495   6.523 -0.2838 -0.2739  0.1015
 9092TIP3    H148767   1.555   0.455   6.443 -1.5208 -3.5937  2.0767
 9092TIP3    H248768   1.636   0.425   6.567  1.2310  1.7186  1.8556
 9093TIP3   OH248769   1.355   5.522   5.005 -0.4123 -0.0578 -0.3185
 9093TIP3    H148770   1.431   5.575   5.024 -0.8974  0.0269  1.5600
 9093TIP3    H248771   1.280   5.578   5.028 -0.9438 -1.1844  0.8355
 9094TIP3   OH248772   1.180   1.684  11.855  0.0659  0.3152  0.4631
 9094TIP3    H148773   1.118   1.633  11.803 -1.8250  2.8889  0.0211
 9094TIP3    H248774   1.176   1.645  11.942 -0.4736 -0.9445 -0.0993
 9095TIP3   OH248775   3.775   6.593  15.654 -0.3972 -0.4535  0.2354
 9095TIP3    H148776   3.696   6.615  15.703  0.4055  0.8071  1.0033
 9095TIP3    H248777   3.843   6.583  15.720  0.8457  1.8992 -0.5492
 9096TIP3   OH248778   5.792   3.470   3.499  0.3134 -0.1282  0.0711
 9096TIP3    H148779   5.773   3.560   3.525  0.7948  0.3117 -1.0491
 9096TIP3    H248780   5.716   3.420   3.530 -0.4145  0.8196 -0.1309
 9097TIP3   OH248781   5.306   3.646  11.623 -0.5293  0.4912  0.1718
 9097TIP3    H148782   5.273   3.725  11.665 -1.8756 -0.6710  1.4105
 9097TIP3    H248783   5.399   3.662  11.611 -0.6398  1.9750  1.0738
 9098TIP3   OH248784   1.057   1.777  12.595 -0.0972 -0.2574 -0.5417
 9098TIP3    H148785   1.039   1.790  12.688  0.1007 -1.3491 -0.3282
 9098TIP3    H248786   1.107   1.854  12.569 -0.0426 -0.0025  0.2875
 9099TIP3   OH248787   3.953   0.836  16.215 -0.7306  0.7426  0.2923
 9099TIP3    H148788   3.861   0.858  16.197 -1.5617 -1.7726  1.1350
 9099TIP3    H248789   3.986   0.912  16.264 -2.0037  2.1538 -0.9250
 9100TIP3   OH248790   4.287   3.069  12.064  0.4583  0.1251  0.1577
 9100TIP3    H148791   4.360   3.020  12.101  1.0159 -0.2045 -1.3175
 9100TIP3    H248792   4.321   3.158  12.053 -0.7242  1.1149  3.3548
 9101TIP3   OH248793   0.702   0.461   0.490  0.0114  0.3575 -0.9734
 9101TIP3    H148794   0.746   0.545   0.501 -1.8104  1.4159 -1.3908
 9101TIP3    H248795   0.608   0.482   0.493 -0.5332 -1.9006  0.7812
 9102TIP3   OH248796   5.599   4.406  16.819  0.0630 -0.1501 -0.0517
 9102TIP3    H148797   5.675   4.452  16.783  0.2134 -0.7272 -0.4892
 9102TIP3    H248798   5.602   4.427  16.913  1.0760 -0.5719  0.0328
 9103TIP3   OH248799   4.923   2.631  12.947  0.0602  0.2244  0.2796
 9103TIP3    H148800   4.976   2.611  13.024  0.3775  0.3118  0.0873
 9103TIP3    H248801   4.868   2.704  12.973 -0.6438 -0.4726  0.7825
 9104TIP3   OH248802   1.318   1.017  14.244  0.0397  0.4556 -0.0599
 9104TIP3    H148803   1.294   1.108  14.225  0.6850  0.1967 -2.4988
 9104TIP3    H248804   1.237   0.977  14.276 -0.9176  1.3206 -1.2771
 9105TIP3   OH248805   4.988   4.889   1.872 -0.1129  0.6645  0.1305
 9105TIP3    H148806   5.069   4.917   1.831 -0.4187 -1.8024 -2.4736
 9105TIP3    H248807   4.920   4.942   1.830 -0.1098  0.6324  0.0855
 9106TIP3   OH248808   6.223   0.900   6.248  0.6132 -0.0236 -0.0913
 9106TIP3    H148809   6.282   0.867   6.180  0.2066 -0.2483 -0.3394
 9106TIP3    H248810   6.280   0.948   6.308  1.3246 -1.7425  0.6530
 9107TIP3   OH248811   2.943   2.373  12.864  0.0570 -0.2361  0.1193
 9107TIP3    H148812   2.995   2.434  12.916  1.6077 -1.3963 -0.0236
 9107TIP3    H248813   2.941   2.292  12.915 -0.3326 -0.6770 -0.5702
 9108TIP3   OH248814   6.302   5.221  13.412  0.0905 -0.8593 -0.2424
 9108TIP3    H148815   6.300   5.316  13.417  3.0753 -0.7560  1.1578
 9108TIP3    H248816   6.355   5.201  13.335 -0.4398 -1.4180 -0.4791
 9109TIP3   OH248817   1.720   1.414  11.824 -0.1698  0.2050 -0.1459
 9109TIP3    H148818   1.632   1.443  11.849 -0.9624 -1.5881 -0.7467
 9109TIP3    H248819   1.728   1.439  11.732  0.6735  1.9317  0.3436
 9110TIP3   OH248820   3.273   5.142  15.269 -0.5175  0.6993 -0.3294
 9110TIP3    H148821   3.248   5.098  15.188  0.3483  2.1462 -1.4113
 9110TIP3    H248822   3.354   5.188  15.248 -0.1663  0.9513  1.4209
 9111TIP3   OH248823   3.850   2.725  12.729  0.3210 -0.0927  0.2699
 9111TIP3    H148824   3.767   2.693  12.765  0.8824 -0.9899  0.8312
 9111TIP3    H248825   3.915   2.703  12.797  0.8629  1.5530  0.3120
 9112TIP3   OH248826   3.853   3.574   2.041 -0.2080  0.3924 -0.4840
 9112TIP3    H148827   3.864   3.481   2.021 -0.3398 -0.1147  1.6209
 9112TIP3    H248828   3.776   3.577   2.098  0.7235  1.5984  0.7490
 9113TIP3   OH248829   4.983   1.782  12.318  0.0379 -0.1049  0.1331
 9113TIP3    H148830   5.063   1.783  12.371 -0.3228  0.1604  0.6733
 9113TIP3    H248831   4.922   1.728  12.368 -0.9690  1.7270  0.9901
 9114TIP3   OH248832   0.516   2.279   1.433  0.4389  0.3342 -0.5601
 9114TIP3    H148833   0.610   2.261   1.444  0.4273 -0.1200 -1.1851
 9114TIP3    H248834   0.473   2.210   1.483  0.4308  0.6109 -0.1757
 9115TIP3   OH248835   4.455   4.263  11.639  0.4435 -0.0575 -0.3050
 9115TIP3    H148836   4.361   4.248  11.648  0.0576  1.0652 -1.9719
 9115TIP3    H248837   4.472   4.338  11.697  0.1744  0.1544 -0.4952
 9116TIP3   OH248838   5.005   1.473   6.460 -0.3665 -0.0329  0.3739
 9116TIP3    H148839   5.013   1.510   6.548 -0.9131  0.3653  0.2649
 9116TIP3    H248840   4.913   1.447   6.454 -0.0249 -1.3208  0.4039
 9117TIP3   OH248841   5.902   4.345   1.028  0.2873 -0.4916  0.6764
 9117TIP3    H148842   5.952   4.329   0.949 -0.1538  0.3509  0.2172
 9117TIP3    H248843   5.855   4.263   1.043  2.4724 -1.6644  1.6614
 9118TIP3   OH248844   5.434   6.711   0.670  0.7735  0.3338  0.1675
 9118TIP3    H148845   5.505   6.708   0.734  0.9320  0.7898  0.0145
 9118TIP3    H248846   5.420   6.804   0.653 -0.2511  0.2778  0.6220
 9119TIP3   OH248847   6.750   3.206   5.550 -0.0191  0.1791  0.0446
 9119TIP3    H148848   6.731   3.277   5.489 -0.1363  1.2832  1.3306
 9119TIP3    H248849   6.805   3.146   5.500  0.0424  1.1386 -1.0830
 9120TIP3   OH248850   6.187   6.117   4.446 -0.4469 -0.0361  0.8507
 9120TIP3    H148851   6.232   6.130   4.529  0.4205  0.7572  0.2739
 9120TIP3    H248852   6.174   6.023   4.440  1.0890 -0.2809  1.0575
 9121TIP3   OH248853   1.261   2.982   0.677  0.5056 -0.1026 -0.3194
 9121TIP3    H148854   1.245   3.047   0.609  1.1354  0.7325  0.3058
 9121TIP3    H248855   1.205   3.009   0.750 -1.8460 -2.2276 -1.2046
 9122TIP3   OH248856   1.244   6.173  13.577  0.0068 -0.8072  0.0275
 9122TIP3    H148857   1.194   6.226  13.516  1.4008 -0.2212 -0.6526
 9122TIP3    H248858   1.180   6.143  13.642 -0.8353  1.6346  0.4143
 9123TIP3   OH248859   1.235   2.703   0.537 -0.4751 -0.6551  0.5232
 9123TIP3    H148860   1.236   2.794   0.508  2.2763 -0.6148  0.4707
 9123TIP3    H248861   1.218   2.707   0.631  0.0728 -0.0257  0.6016
 9124TIP3   OH248862   5.747   6.118  16.731 -0.4702  0.1445 -0.6178
 9124TIP3    H148863   5.688   6.166  16.673 -1.8206 -0.5445  0.1337
 9124TIP3    H248864   5.736   6.026  16.706  0.6666  0.0364 -0.7869
 9125TIP3   OH248865   2.615   2.620   2.776 -0.5776  0.6754  0.4696
 9125TIP3    H148866   2.558   2.686   2.815 -2.4716 -0.7934  0.2865
 9125TIP3    H248867   2.556   2.555   2.739  1.2191 -0.5569 -0.3933
 9126TIP3   OH248868   3.988   3.722   0.803  0.2448 -0.1325  0.8947
 9126TIP3    H148869   4.004   3.731   0.897  1.2723 -0.2578  0.7444
 9126TIP3    H248870   4.027   3.801   0.764  0.4659 -0.4276  0.5073
 9127TIP3   OH248871   3.269   2.479   3.224  0.1562 -0.1892 -0.3631
 9127TIP3    H148872   3.264   2.571   3.196  2.1504 -0.2717 -1.2182
 9127TIP3    H248873   3.292   2.431   3.144  2.5672 -0.9196  0.6756
 9128TIP3   OH248874   1.554   2.826  12.174  0.1186  0.9901  0.0432
 9128TIP3    H148875   1.495   2.839  12.100  0.0334 -0.1726 -0.1046
 9128TIP3    H248876   1.496   2.806  12.248  0.3206 -0.6109 -0.2021
 9129TIP3   OH248877   5.766   6.368  11.423 -0.1255 -0.0326 -0.2273
 9129TIP3    H148878   5.708   6.302  11.461  0.6914 -0.6597 -0.0413
 9129TIP3    H248879   5.806   6.324  11.348  2.8242 -0.8805  1.7066
 9130TIP3   OH248880   4.899   0.357  16.297  0.7259 -0.4234 -0.0302
 9130TIP3    H148881   4.818   0.309  16.281  1.1508 -0.6631 -1.7381
 9130TIP3    H248882   4.871   0.445  16.321 -0.0415 -0.6895  0.0812
 9131TIP3   OH248883   6.754   0.585   2.833 -0.3934 -0.2739  0.3704
 9131TIP3    H148884   6.686   0.556   2.894  1.7521  0.7303  3.5028
 9131TIP3    H248885   6.722   0.669   2.800 -1.5803 -0.8124  0.0945
 9132TIP3   OH248886   5.359   4.677  15.825 -0.2775  0.1055  0.4204
 9132TIP3    H148887   5.347   4.655  15.733  2.3203  0.7917 -0.1670
 9132TIP3    H248888   5.305   4.756  15.838  2.2964  2.4110 -1.6930
 9133TIP3   OH248889   6.174   6.475   4.090 -0.3030 -0.2111 -0.3043
 9133TIP3    H148890   6.240   6.441   4.030 -0.6093 -0.5356 -0.4662
 9133TIP3    H248891   6.101   6.413   4.083  0.1017 -0.9330  1.2792
 9134TIP3   OH248892   1.680   6.110  13.505  0.1958  0.4609  0.2022
 9134TIP3    H148893   1.601   6.076  13.464 -0.0898 -0.0365  1.1253
 9134TIP3    H248894   1.724   6.159  13.436 -0.9844  0.8687 -0.2918
 9135TIP3   OH248895   1.943   4.060  13.446  0.6054  0.4053  0.4832
 9135TIP3    H148896   1.888   4.059  13.524  0.3246  0.3325  0.2847
 9135TIP3    H248897   1.907   3.992  13.390  1.4560 -0.2612  0.7314
 9136TIP3   OH248898   4.966   1.525   4.806 -0.7737 -0.0959  0.6798
 9136TIP3    H148899   5.057   1.501   4.787 -1.0503  0.4655 -1.7009
 9136TIP3    H248900   4.965   1.620   4.802 -1.2183 -0.0087  2.2023
 9137TIP3   OH248901   5.324   2.390   1.632  0.1698 -0.2643 -0.3704
 9137TIP3    H148902   5.336   2.456   1.700  0.4153  0.4324 -1.0735
 9137TIP3    H248903   5.229   2.387   1.618  0.2541  1.8418 -2.1032
 9138TIP3   OH248904   4.216   5.749  12.972  0.3289  0.0780 -0.1423
 9138TIP3    H148905   4.254   5.671  12.932  0.6554  0.6473 -0.9749
 9138TIP3    H248906   4.138   5.718  13.017  2.0197 -1.2506  2.0971
 9139TIP3   OH248907   1.447   6.209  15.735 -0.3881  0.1195  0.3705
 9139TIP3    H148908   1.481   6.148  15.670 -2.5555  0.5974 -1.3309
 9139TIP3    H248909   1.510   6.280  15.737  0.9972 -1.0666  0.6946
 9140TIP3   OH248910   2.040   6.766   1.956 -0.5278  0.0533  0.0519
 9140TIP3    H148911   2.044   6.746   1.863 -1.8465  0.0076 -0.0133
 9140TIP3    H248912   1.992   6.692   1.995 -0.4580  0.3255  0.6783
 9141TIP3   OH248913   1.785   0.261  11.402  0.0691 -0.0099  0.2773
 9141TIP3    H148914   1.740   0.334  11.359 -1.2800 -0.1257  1.4281
 9141TIP3    H248915   1.874   0.293  11.416  0.0542  0.6560 -1.0372
 9142TIP3   OH248916   5.045   4.841  12.190  0.0822  0.3637  0.2432
 9142TIP3    H148917   5.011   4.842  12.279 -1.3136 -1.1336 -0.2234
 9142TIP3    H248918   5.124   4.896  12.193 -0.3883  0.9857  2.1900
 9143TIP3   OH248919   5.548   5.120  11.434  0.2519 -0.1505 -0.5500
 9143TIP3    H148920   5.583   5.136  11.346  0.2228 -0.1513 -0.5616
 9143TIP3    H248921   5.521   5.028  11.432  0.0442 -0.0881 -0.6100
 9144TIP3   OH248922   4.619   0.748  14.614  0.5022 -0.4081 -0.1621
 9144TIP3    H148923   4.661   0.777  14.532  1.8659  0.1585  0.6995
 9144TIP3    H248924   4.690   0.751  14.679 -0.5928 -0.7003  1.0770
 9145TIP3   OH248925   0.375   6.814   4.210 -0.0549  0.3809  0.6156
 9145TIP3    H148926   0.356   6.722   4.229  0.4986  0.1786  0.2179
 9145TIP3    H248927   0.322   6.863   4.273  0.9515 -0.2407  1.9868
 9146TIP3   OH248928   0.574   2.039  11.195  0.5005  0.1998 -0.0955
 9146TIP3    H148929   0.503   2.083  11.149  2.2178  1.3377 -1.7816
 9146TIP3    H248930   0.641   2.023  11.128  1.6794 -1.2127  1.3343
 9147TIP3   OH248931   1.881   6.662   4.147 -0.1412 -0.7987  0.4280
 9147TIP3    H148932   1.911   6.572   4.162 -0.0988 -0.7451  0.6745
 9147TIP3    H248933   1.887   6.674   4.052  1.4403 -0.5120  0.5411
 9148TIP3   OH248934   4.941   4.634   2.316  0.4075 -0.1057  0.1792
 9148TIP3    H148935   4.871   4.678   2.269  0.5030 -2.4733 -2.4170
 9148TIP3    H248936   5.007   4.702   2.330 -1.2542  1.5445  0.3696
 9149TIP3   OH248937   0.929   2.644   6.530  0.2303 -0.6364  0.4097
 9149TIP3    H148938   0.998   2.578   6.527  0.6807 -0.1455 -0.3582
 9149TIP3    H248939   0.950   2.704   6.458  0.7008  1.1921  1.9580
 9150TIP3   OH248940   2.176   6.717  14.467 -0.0574  0.1962 -0.1497
 9150TIP3    H148941   2.175   6.729  14.372  2.0345 -0.7389 -0.3328
 9150TIP3    H248942   2.263   6.747  14.494 -1.0358  1.5898  1.6640
 9151TIP3   OH248943   0.345   1.001   4.522 -0.6539 -0.0507 -0.1742
 9151TIP3    H148944   0.394   0.978   4.443 -1.2511  0.8367 -0.8251
 9151TIP3    H248945   0.353   1.096   4.528  0.7987 -0.2208  1.8074
 9152TIP3   OH248946   3.986   1.918  17.207  0.3205 -0.0411  0.0831
 9152TIP3    H148947   3.998   1.990  17.145  1.1458  0.2466  0.5452
 9152TIP3    H248948   4.037   1.945  17.284 -1.0032 -0.2012  1.0414
 9153TIP3   OH248949   1.205   2.394   3.366 -0.7913 -0.1333  0.4155
 9153TIP3    H148950   1.262   2.452   3.418 -1.6570  0.3386  0.8590
 9153TIP3    H248951   1.206   2.432   3.278 -0.1866 -0.3032  0.3450
 9154TIP3   OH248952   2.457   3.837   2.113 -0.3012 -0.6438  0.5283
 9154TIP3    H148953   2.407   3.786   2.050 -0.6582 -0.0049  0.2767
 9154TIP3    H248954   2.396   3.906   2.140  0.4132  0.0968  0.2762
 9155TIP3   OH248955   2.060   0.589   0.210 -0.4071 -0.1205  0.6468
 9155TIP3    H148956   1.972   0.571   0.243 -1.1177  1.9898  0.0983
 9155TIP3    H248957   2.066   0.684   0.210  2.6315 -0.1744  2.4876
 9156TIP3   OH248958   5.242   5.401   0.980  0.1312 -0.0695 -0.7071
 9156TIP3    H148959   5.169   5.339   0.982 -0.8599  1.0819  0.9439
 9156TIP3    H248960   5.206   5.483   1.014  1.8038  0.9803 -1.3355
 9157TIP3   OH248961   2.746   2.090  14.529  0.0352  0.3616  0.4011
 9157TIP3    H148962   2.715   2.145  14.457 -0.1573  0.3197  0.4502
 9157TIP3    H248963   2.709   2.004  14.510 -5.2527  1.4681  3.6203
 9158TIP3   OH248964   2.742   4.669  10.921 -0.1826  0.0707 -0.2349
 9158TIP3    H148965   2.711   4.636  10.837  0.3608 -0.8704 -0.0810
 9158TIP3    H248966   2.747   4.764  10.909 -1.7251  0.1241 -0.7093
 9159TIP3   OH248967   6.221   2.938  15.654  0.4767 -0.0247 -0.1071
 9159TIP3    H148968   6.156   2.886  15.607  2.1244 -0.9995 -1.4482
 9159TIP3    H248969   6.227   3.019  15.605  2.4956 -1.2038 -2.0076
 9160TIP3   OH248970   0.948   1.020   0.008 -1.0368 -0.2240 -0.5597
 9160TIP3    H148971   0.978   0.955  -0.055 -1.0785 -1.5357  0.7110
 9160TIP3    H248972   0.888   1.076  -0.041 -1.8439 -1.8087 -1.4531
 9161TIP3   OH248973   4.389   4.505   2.967 -0.5782 -0.2023  0.4346
 9161TIP3    H148974   4.475   4.535   2.937 -0.4995 -0.1214  0.7395
 9161TIP3    H248975   4.346   4.472   2.888 -0.5109  0.3481  0.1606
 9162TIP3   OH248976   4.938   0.231   1.483 -0.4907  0.1740 -0.6208
 9162TIP3    H148977   5.004   0.202   1.420  1.4145  0.9532  0.9088
 9162TIP3    H248978   4.981   0.300   1.533 -0.9727 -1.9693  3.1438
 9163TIP3   OH248979   2.894   3.414  16.923 -0.4703  0.1266  0.1536
 9163TIP3    H148980   2.953   3.466  16.869 -0.0221  0.1462  0.6509
 9163TIP3    H248981   2.895   3.327  16.885  0.7310 -0.1570  0.7922
 9164TIP3   OH248982   6.064   4.770  11.902  0.0573  0.1574  0.4245
 9164TIP3    H148983   6.132   4.837  11.893  1.9697 -1.7209 -0.0369
 9164TIP3    H248984   6.026   4.763  11.815 -0.5197  0.9734  0.5991
 9165TIP3   OH248985   0.032   1.042   2.167  0.2010  0.4696  0.5662
 9165TIP3    H148986   0.038   1.137   2.163 -1.4613  0.5561 -1.1629
 9165TIP3    H248987  -0.026   1.025   2.242 -1.4890  1.0053 -0.5479
 9166TIP3   OH248988   5.729   2.317  15.903 -0.2281  0.7534  0.1101
 9166TIP3    H148989   5.738   2.412  15.907  1.0594  0.6372  0.2621
 9166TIP3    H248990   5.719   2.298  15.809 -0.7588  1.0543  0.1028
 9167TIP3   OH248991   3.575   5.920   4.433  0.4240 -0.5993 -0.2684
 9167TIP3    H148992   3.623   5.979   4.374 -0.7238 -0.2647 -0.9111
 9167TIP3    H248993   3.535   5.979   4.497 -0.2692 -0.7158 -0.5829
 9168TIP3   OH248994   2.115   6.729  11.611  0.5166  0.5921  0.1710
 9168TIP3    H148995   2.183   6.790  11.583  0.7702  0.2875  0.1170
 9168TIP3    H248996   2.066   6.709  11.531  0.1158  1.1145  0.2816
 9169TIP3   OH248997   6.285   0.154  15.889 -0.5398 -0.3121  0.4280
 9169TIP3    H148998   6.292   0.247  15.909  1.6236 -0.8148  2.5598
 9169TIP3    H248999   6.191   0.135  15.891 -1.1895  2.0704 -1.8315
 9170TIP3   OH249000   4.148   2.406   4.139  0.4551 -0.1738 -0.2590
 9170TIP3    H149001   4.215   2.372   4.080 -0.1594 -2.4058  0.2076
 9170TIP3    H249002   4.170   2.370   4.225 -0.8994 -0.3798  0.0402
 9171TIP3   OH249003   0.947   2.353  12.715  0.2172 -0.5428  0.4971
 9171TIP3    H149004   0.875   2.358  12.777  0.1310 -1.4111  0.4774
 9171TIP3    H249005   1.024   2.381  12.766  0.1961 -1.5213  1.0819
 9172TIP3   OH249006   2.930   4.076  14.060  0.0167  0.2731  0.0197
 9172TIP3    H149007   2.836   4.058  14.066 -0.3118  2.0561  1.1239
 9172TIP3    H249008   2.941   4.112  13.972 -0.8566  2.3501  0.6792
 9173TIP3   OH249009   6.204   5.305  13.011  0.0245 -0.0877 -0.3375
 9173TIP3    H149010   6.179   5.244  13.080 -0.2569 -1.9582 -2.0089
 9173TIP3    H249011   6.256   5.372  13.056 -2.4141  0.3113  2.1336
 9174TIP3   OH249012   1.801   4.551  16.737  0.7458 -0.3826 -0.3314
 9174TIP3    H149013   1.864   4.622  16.729  2.0066 -1.5624 -1.2985
 9174TIP3    H249014   1.812   4.499  16.658 -2.4657  0.1059 -1.2703
 9175TIP3   OH249015   2.139   4.117  14.212 -0.5728  0.2946 -0.1713
 9175TIP3    H149016   2.131   4.026  14.240  1.1706 -0.3390 -1.5461
 9175TIP3    H249017   2.191   4.159  14.281  0.3071 -0.2652 -0.4765
 9176TIP3   OH249018   3.512   5.147   4.864  0.4601  0.0620 -0.2827
 9176TIP3    H149019   3.587   5.143   4.803  0.2117  0.6571 -0.6346
 9176TIP3    H249020   3.435   5.149   4.807  0.1475 -0.8260  0.0793
 9177TIP3   OH249021   6.820   0.474  15.324 -0.0195 -0.3674 -0.1770
 9177TIP3    H149022   6.833   0.565  15.348 -0.5457 -0.3949  0.2344
 9177TIP3    H249023   6.756   0.477  15.253  0.1774 -0.4013 -0.3575
 9178TIP3   OH249024   6.046   4.749   4.224  0.0947 -0.3466 -0.1465
 9178TIP3    H149025   6.072   4.748   4.132  0.4336 -1.0444 -0.0456
 9178TIP3    H249026   5.984   4.822   4.230  5.3253  4.7325  0.5633
 9179TIP3   OH249027   1.031   5.180  15.995 -0.8708  0.0212  0.4140
 9179TIP3    H149028   1.075   5.173  16.080 -0.0525 -2.7869 -0.1443
 9179TIP3    H249029   1.093   5.225  15.938 -0.4689 -0.1678  0.7034
 9180TIP3   OH249030   1.298   4.760   1.773  0.0068  0.2826 -0.1443
 9180TIP3    H149031   1.294   4.816   1.850  0.2201  0.9304 -0.5959
 9180TIP3    H249032   1.285   4.672   1.807 -0.6962  0.6329  0.5385
 9181TIP3   OH249033   4.153   6.676   6.035 -0.3155 -0.8932 -0.5282
 9181TIP3    H149034   4.135   6.592   6.078  0.4527 -0.4933  0.6241
 9181TIP3    H249035   4.068   6.704   6.000 -0.3704 -2.6986 -1.9948
 9182TIP3   OH249036   1.030   6.700   3.889 -0.4133 -0.4331 -0.0495
 9182TIP3    H149037   0.943   6.705   3.930 -0.1305 -0.6484  0.5968
 9182TIP3    H249038   1.091   6.718   3.960  0.1005 -1.0460 -0.3218
 9183TIP3   OH249039   1.162   3.729   2.267  0.2331 -0.6384 -0.3825
 9183TIP3    H149040   1.130   3.764   2.350  2.6268 -0.0334  0.3576
 9183TIP3    H249041   1.240   3.780   2.247  0.4127 -1.5879 -2.3985
 9184TIP3   OH249042   5.162   1.260  16.177 -0.0695  0.2186 -0.1502
 9184TIP3    H149043   5.081   1.227  16.214 -1.1500  0.6357 -1.9934
 9184TIP3    H249044   5.169   1.215  16.092  1.1505  0.8451 -0.4073
 9185TIP3   OH249045   4.892   5.883  16.431  0.0396 -0.0943  0.3803
 9185TIP3    H149046   4.975   5.918  16.463  0.2719  0.9184 -1.1941
 9185TIP3    H249047   4.895   5.896  16.336 -1.7852 -0.3238  0.2422
 9186TIP3   OH249048   0.493   5.553   4.430  0.0653 -0.6929  0.3974
 9186TIP3    H149049   0.439   5.577   4.355  3.2365 -1.4914 -2.3725
 9186TIP3    H249050   0.495   5.458   4.429  0.1966 -0.7208  1.5195
 9187TIP3   OH249051   5.851   0.319  11.805 -0.6264  0.2632  0.2447
 9187TIP3    H149052   5.842   0.340  11.712  1.1098  0.2294  0.0182
 9187TIP3    H249053   5.762   0.317  11.839 -1.4133 -1.0236 -1.7061
 9188TIP3   OH249054   1.569   3.461  13.439  0.0243  0.3356  0.1058
 9188TIP3    H149055   1.485   3.494  13.407 -1.6839 -0.9162  2.9657
 9188TIP3    H249056   1.610   3.537  13.480  1.4674  1.5195 -3.1521
 9189TIP3   OH249057   3.992   6.499   4.699 -0.4431  0.8505 -0.1281
 9189TIP3    H149058   4.040   6.549   4.764  0.5918 -0.8147  0.4589
 9189TIP3    H249059   4.060   6.455   4.647 -1.2673 -1.0722  0.3202
 9190TIP3   OH249060   2.605   2.970   4.401 -0.3527 -0.1392  0.6693
 9190TIP3    H149061   2.623   2.878   4.386  0.0158  0.0579 -0.1480
 9190TIP3    H249062   2.546   2.971   4.477  2.4788 -0.8583  3.0522
 9191TIP3   OH249063   6.345   4.948   1.686  0.0706  0.3956  0.4026
 9191TIP3    H149064   6.306   4.999   1.616 -0.1022  1.2981  1.1390
 9191TIP3    H249065   6.430   4.989   1.702  0.5235 -0.3850  0.1069
 9192TIP3   OH249066   0.563   0.093  11.925 -0.3797 -0.0603  0.2143
 9192TIP3    H149067   0.643   0.111  11.974  0.3342 -2.8425  0.2366
 9192TIP3    H249068   0.573   0.142  11.843  0.6927  0.7109  0.7823
 9193TIP3   OH249069   2.124   5.568   4.286 -0.3043 -0.4180 -0.2357
 9193TIP3    H149070   2.081   5.538   4.207 -0.0813  0.5350 -0.7301
 9193TIP3    H249071   2.140   5.662   4.272  3.0311 -0.9128 -0.6292
 9194TIP3   OH249072   4.382   5.655  11.744 -0.5034 -0.5020 -0.6630
 9194TIP3    H149073   4.367   5.687  11.833 -1.3178 -0.7663 -0.6917
 9194TIP3    H249074   4.425   5.728  11.699 -2.2243  0.5707 -0.7011
 9195TIP3   OH249075   4.876   6.493  15.861 -0.6135  0.2478 -0.3296
 9195TIP3    H149076   4.785   6.489  15.833 -0.6520  0.7799 -0.2845
 9195TIP3    H249077   4.874   6.470  15.954 -0.4624 -1.7236 -0.7664
 9196TIP3   OH249078   4.030   1.964   5.294 -0.5364  0.1296  0.4560
 9196TIP3    H149079   4.105   2.009   5.256  0.5661 -1.6109  0.4467
 9196TIP3    H249080   4.052   1.954   5.386  0.1950 -2.0421  0.1198
 9197TIP3   OH249081   2.573   6.659  12.906  0.7051 -0.8196 -0.1199
 9197TIP3    H149082   2.503   6.724  12.916  0.7032 -0.9478  0.7746
 9197TIP3    H249083   2.616   6.682  12.823  0.1134 -0.2525 -0.2757
 9198TIP3   OH249084   2.102   2.873   2.412 -0.2014  0.2554  0.3746
 9198TIP3    H149085   2.115   2.957   2.367 -2.1560  0.1262 -0.5671
 9198TIP3    H249086   2.120   2.892   2.504  3.2930  0.6951 -0.2735
 9199TIP3   OH249087   1.226   2.610   3.164 -0.1295  0.5274  0.0626
 9199TIP3    H149088   1.318   2.638   3.163 -0.2236  0.8283 -1.1277
 9199TIP3    H249089   1.216   2.555   3.086 -1.1471  1.1328 -0.2500
 9200TIP3   OH249090   2.091   1.937   2.080 -0.2378 -0.1809  0.1631
 9200TIP3    H149091   2.041   2.011   2.045  1.5507  1.4220  0.8509
 9200TIP3    H249092   2.139   1.902   2.005 -1.6051 -1.1487 -0.3082
 9201TIP3   OH249093   5.722   4.294  12.697 -0.5898 -0.5451 -0.4928
 9201TIP3    H149094   5.790   4.286  12.630 -0.6516 -0.9622 -0.5061
 9201TIP3    H249095   5.768   4.284  12.780 -0.7003 -1.2479 -0.5172
 9202TIP3   OH249096   4.187   4.479  15.333  0.3026 -0.5442  0.5442
 9202TIP3    H149097   4.278   4.509  15.331 -0.6429  2.7366  1.3538
 9202TIP3    H249098   4.178   4.434  15.417  1.1328 -0.9362  0.4382
 9203TIP3   OH249099   2.875   1.615   2.993  0.2861 -0.2153 -0.2317
 9203TIP3    H149100   2.892   1.685   3.055 -1.8207 -1.0152  1.3546
 9203TIP3    H249101   2.923   1.641   2.914  1.4949  1.7770  1.0630
 9204TIP3   OH249102   1.602   3.909   2.926 -0.5462  0.7885 -0.2738
 9204TIP3    H149103   1.612   3.924   2.832 -1.0662  1.2596 -0.2562
 9204TIP3    H249104   1.595   3.997   2.964  0.0856  0.6228  0.2583
 9205TIP3   OH249105   0.198   1.626  14.567  0.0805 -0.4800 -0.1670
 9205TIP3    H149106   0.282   1.589  14.595  0.2274  1.1574  1.8673
 9205TIP3    H249107   0.204   1.630  14.472  2.7506  0.4585 -0.0635
 9206TIP3   OH249108   1.849   1.276   3.545 -0.3952 -0.4217  0.2066
 9206TIP3    H149109   1.909   1.296   3.473  1.9570 -1.6353  1.7426
 9206TIP3    H249110   1.898   1.296   3.624 -1.6490 -2.3939  1.5695
 9207TIP3   OH249111   2.705   5.360   2.344  0.4421  0.0766 -0.4230
 9207TIP3    H149112   2.621   5.403   2.331  0.8540  1.2004  0.4722
 9207TIP3    H249113   2.745   5.359   2.257 -0.1810  0.2084 -0.7176
 9208TIP3   OH249114   6.402   1.256   0.901 -0.6620  0.0536 -0.3250
 9208TIP3    H149115   6.411   1.214   0.816 -2.3745  0.4286 -0.7209
 9208TIP3    H249116   6.354   1.192   0.954  1.1981 -0.5717  0.6950
 9209TIP3   OH249117   4.773   0.126  14.090  0.2982 -0.0138 -0.5401
 9209TIP3    H149118   4.807   0.038  14.104  0.7497  0.0224 -1.3475
 9209TIP3    H249119   4.776   0.167  14.176 -0.1921 -0.8765 -0.1026
 9210TIP3   OH249120   3.494   3.134  12.893  0.2164 -0.2367  0.6006
 9210TIP3    H149121   3.575   3.161  12.937  0.7664  0.3145 -0.7210
 9210TIP3    H249122   3.521   3.117  12.803 -0.9750 -0.9557  0.3712
 9211TIP3   OH249123   0.124   4.595   0.586  0.2943  0.4231  0.1760
 9211TIP3    H149124   0.087   4.591   0.498 -1.7688  1.5185  0.9045
 9211TIP3    H249125   0.168   4.680   0.590 -0.5620  0.8656  0.5046
 9212TIP3   OH249126   6.539   5.993  12.147 -0.2201 -0.0689  0.3592
 9212TIP3    H149127   6.587   6.039  12.079  0.0808 -1.0451 -0.1063
 9212TIP3    H249128   6.599   5.990  12.222 -0.1833  0.1645  0.3371
 9213TIP3   OH249129   4.866   1.576  14.432 -0.1232 -0.1201 -0.6896
 9213TIP3    H149130   4.880   1.639  14.361  0.0053  0.8305  0.1618
 9213TIP3    H249131   4.774   1.589  14.457  0.4207  1.1416  0.7878
 9214TIP3   OH249132   6.668   2.794   2.905 -0.0892  0.3072 -0.7021
 9214TIP3    H149133   6.599   2.859   2.917  0.1293  0.2511  1.3802
 9214TIP3    H249134   6.700   2.777   2.994  1.5068 -0.8621 -1.4440
 9215TIP3   OH249135   0.847   0.302   2.785  0.7900 -0.0475  0.2736
 9215TIP3    H149136   0.766   0.252   2.772  0.5719  0.6825 -1.5414
 9215TIP3    H249137   0.908   0.265   2.721  1.2180  0.7451  0.2174
 9216TIP3   OH249138   0.692   0.832   3.298 -0.3572 -0.1853  0.1231
 9216TIP3    H149139   0.696   0.785   3.380 -0.3011 -0.2929  0.0590
 9216TIP3    H249140   0.725   0.770   3.233  2.0773  0.7170  0.3878
 9217TIP3   OH249141   6.492   5.529   0.952  0.3882 -0.3103 -0.0239
 9217TIP3    H149142   6.549   5.533   0.875  0.8357 -1.0811  0.2607
 9217TIP3    H249143   6.445   5.446   0.943 -1.0629  0.5208 -0.4985
 9218TIP3   OH249144   4.399   0.488   6.321 -0.0312  0.1692 -0.3949
 9218TIP3    H149145   4.401   0.510   6.227  0.8964 -0.6724 -0.5973
 9218TIP3    H249146   4.424   0.569   6.365 -1.1590  0.7718 -0.8186
 9219TIP3   OH249147   4.758   1.879  11.663 -0.1963  0.4842 -0.3161
 9219TIP3    H149148   4.702   1.949  11.698  1.3080  1.3943  0.3791
 9219TIP3    H249149   4.710   1.846  11.587  0.3187  4.3226 -2.5460
 9220TIP3   OH249150   0.815   0.660   2.489  0.0148 -0.6711  0.2241
 9220TIP3    H149151   0.804   0.752   2.513 -0.3779 -0.9618  1.2151
 9220TIP3    H249152   0.734   0.618   2.519  0.3216 -1.3902  0.0546
 9221TIP3   OH249153   1.041   5.219   2.197 -0.1029  0.5934 -0.2367
 9221TIP3    H149154   1.064   5.232   2.105 -0.8614 -1.4596 -0.7901
 9221TIP3    H249155   1.123   5.196   2.240 -0.2814 -2.7606 -1.3748
 9222TIP3   OH249156   0.446   1.779   0.398 -0.2015 -0.7779  0.0136
 9222TIP3    H149157   0.362   1.794   0.442  0.2207  1.9127  0.0980
 9222TIP3    H249158   0.511   1.790   0.467  0.3547  1.1516 -0.7558
 9223TIP3   OH249159   2.915   6.770   3.810 -0.2006  0.2122 -0.4051
 9223TIP3    H149160   2.998   6.742   3.772 -0.3835  0.2192 -0.8177
 9223TIP3    H249161   2.851   6.708   3.774 -0.5346  0.8601 -0.9450
 9224TIP3   OH249162   4.716   4.504  15.080 -0.0327 -0.1131 -0.0143
 9224TIP3    H149163   4.677   4.582  15.121 -0.2561 -0.1600 -0.1394
 9224TIP3    H249164   4.791   4.538  15.031 -0.3188  0.0628 -0.3260
 9225TIP3   OH249165   4.857   3.632  11.477  0.0118  0.2574 -0.4639
 9225TIP3    H149166   4.771   3.632  11.435 -0.3543 -0.7615  0.2182
 9225TIP3    H249167   4.894   3.546  11.456  0.1382  0.0239  0.6363
 9226TIP3   OH249168   1.732   4.977  16.870 -0.1612 -0.1761  0.2340
 9226TIP3    H149169   1.806   5.028  16.835  0.5822 -0.4582  1.3482
 9226TIP3    H249170   1.750   4.970  16.963 -2.1485  0.6501  0.7413
 9227TIP3   OH249171   2.807   5.249   1.450 -0.0810  0.0495 -0.2347
 9227TIP3    H149172   2.825   5.165   1.407  0.7654 -0.1355  0.4606
 9227TIP3    H249173   2.764   5.225   1.532 -0.9025  0.3631 -0.5627
 9228TIP3   OH249174   0.396   3.686   4.404 -0.4752  0.1489  0.0252
 9228TIP3    H149175   0.463   3.689   4.335 -0.8175 -1.5697 -0.4499
 9228TIP3    H249176   0.341   3.763   4.389  0.6082  0.8548 -0.3963
 9229TIP3   OH249177   3.112   2.468  13.106  0.1693 -0.0522  0.3200
 9229TIP3    H149178   3.117   2.436  13.196 -3.2448 -1.6463  0.0938
 9229TIP3    H249179   3.076   2.557  13.115  0.3164 -0.0134  0.5436
 9230TIP3   OH249180   0.268   4.977  11.183  0.9025  0.2256  0.0915
 9230TIP3    H149181   0.338   4.917  11.158  2.7495  2.1423  0.3943
 9230TIP3    H249182   0.295   5.011  11.268 -0.2542  1.2280  0.0906
 9231TIP3   OH249183   6.068   3.417   3.753 -0.4396 -0.4771 -0.3407
 9231TIP3    H149184   6.151   3.425   3.799  0.2321 -0.4750 -1.4983
 9231TIP3    H249185   6.006   3.387   3.819  0.6089 -1.0255  0.4200
 9232TIP3   OH249186   1.949   6.413  10.638 -0.9731  0.1300 -0.5000
 9232TIP3    H149187   1.949   6.333  10.691 -0.9258  0.5762  0.1920
 9232TIP3    H249188   1.859   6.445  10.644 -0.8578  0.4221 -0.3169
 9233TIP3   OH249189   4.410   0.122  10.729 -0.1178  0.1713 -0.1989
 9233TIP3    H149190   4.449   0.079  10.805 -0.7110  0.4738  0.2885
 9233TIP3    H249191   4.473   0.108  10.659 -0.0136 -0.9713  0.0945
 9234TIP3   OH249192   3.590   1.340   4.224  0.0623  0.0940  0.1971
 9234TIP3    H149193   3.510   1.368   4.180 -0.4452 -0.1639  0.9280
 9234TIP3    H249194   3.562   1.320   4.314  0.7416 -0.9958  0.1801
 9235TIP3   OH249195   4.353   5.761  16.577 -0.3975 -0.0013  0.1755
 9235TIP3    H149196   4.318   5.793  16.494  0.3511  1.5650  0.4314
 9235TIP3    H249197   4.380   5.840  16.624 -2.1365 -0.7407  2.5524
 9236TIP3   OH249198   3.085   3.473  11.756  0.2470 -0.9077  0.3302
 9236TIP3    H149199   3.101   3.551  11.704 -0.9264 -0.4566  0.6303
 9236TIP3    H249200   3.148   3.480  11.828 -0.6164  0.3887  1.0059
 9237TIP3   OH249201   2.126   5.279   1.881 -0.0022  0.0813  0.3614
 9237TIP3    H149202   2.143   5.185   1.868  1.4337  0.3864 -0.0863
 9237TIP3    H249203   2.031   5.284   1.892 -0.1108 -1.4239  0.3770
 9238TIP3   OH249204   6.219   4.532  12.515  0.0683 -0.4287 -0.1639
 9238TIP3    H149205   6.244   4.554  12.604 -0.5888 -0.3942  0.0198
 9238TIP3    H249206   6.284   4.467  12.487 -0.8789 -1.9871  1.0809
 9239TIP3   OH249207   6.793   3.869   6.123  0.5369  0.0887 -0.0932
 9239TIP3    H149208   6.875   3.821   6.111  0.4927  0.0573 -0.2729
 9239TIP3    H249209   6.805   3.951   6.075 -0.6925 -1.2205 -2.9127
 9240TIP3   OH249210   5.154   4.533  16.096  0.0021 -0.1032 -0.8380
 9240TIP3    H149211   5.066   4.500  16.077  0.4812 -0.8943 -1.7619
 9240TIP3    H249212   5.212   4.476  16.045  1.3592 -2.0379  2.5488
 9241TIP3   OH249213   6.118   2.640   0.717  0.6179 -0.1473  0.0979
 9241TIP3    H149214   6.105   2.724   0.760  3.2189 -0.2166  1.2490
 9241TIP3    H249215   6.105   2.575   0.787 -0.4796 -0.6646 -0.5645
 9242TIP3   OH249216   6.598   2.033  12.855  0.1311  0.2914 -0.2588
 9242TIP3    H149217   6.654   2.013  12.780  0.5037 -0.0692  0.1092
 9242TIP3    H249218   6.629   2.117  12.887 -0.2308  0.5960 -0.6902
 9243TIP3   OH249219   4.047   0.528   2.336 -0.2842 -0.2126 -0.1424
 9243TIP3    H149220   3.955   0.550   2.323 -0.7765 -1.8928  0.2712
 9243TIP3    H249221   4.046   0.442   2.378  1.4819 -0.3646 -0.3213
 9244TIP3   OH249222   5.544   0.797   3.030 -0.2700 -0.0281 -0.5127
 9244TIP3    H149223   5.558   0.803   2.935 -2.5123  0.8534 -0.8404
 9244TIP3    H249224   5.581   0.878   3.065 -1.1080  0.5185 -0.8767
 9245TIP3   OH249225   4.363   2.249   0.202 -0.4602 -0.4148  0.4006
 9245TIP3    H149226   4.382   2.183   0.135  4.0340 -1.3895  2.2396
 9245TIP3    H249227   4.405   2.329   0.170  3.0182 -1.2526  2.3880
 9246TIP3   OH249228   4.008   2.362   0.349 -0.3560  0.6099 -0.1837
 9246TIP3    H149229   3.951   2.328   0.280 -0.5561 -0.7891  0.6263
 9246TIP3    H249230   3.965   2.443   0.377 -1.8877 -0.3112  0.2834
 9247TIP3   OH249231   3.223   3.913   4.463 -0.3736  0.2004 -0.3042
 9247TIP3    H149232   3.278   3.888   4.537 -1.2619 -0.9481 -0.0131
 9247TIP3    H249233   3.283   3.917   4.389  0.1862 -0.5858  0.0967
 9248TIP3   OH249234   5.038   5.849   6.681  0.0184  0.0630 -0.2399
 9248TIP3    H149235   4.973   5.836   6.611 -0.1862  0.7621 -0.1892
 9248TIP3    H249236   4.987   5.849   6.762 -0.0327  1.2909 -0.2446
 9249TIP3   OH249237   1.974   0.941  10.283 -0.0021 -0.1285  0.6437
 9249TIP3    H149238   2.008   0.931  10.372  0.8706 -0.3004  0.3010
 9249TIP3    H249239   2.048   0.975  10.233 -0.8648  1.2848  0.2635
 9250TIP3   OH249240   0.221   5.188   3.110  0.3994 -0.4091  0.5212
 9250TIP3    H149241   0.181   5.109   3.072  0.2640 -0.4603  0.7718
 9250TIP3    H249242   0.239   5.165   3.201  2.1646 -0.8307  0.1104
 9251TIP3   OH249243   6.081   3.551  12.501  0.6037  0.1964 -0.1883
 9251TIP3    H149244   5.989   3.568  12.522  0.3277 -0.9901 -0.3688
 9251TIP3    H249245   6.126   3.561  12.585  0.0735 -0.7174  0.2220
 9252TIP3   OH249246   2.566   1.203   3.872  0.1634 -0.2417  0.1583
 9252TIP3    H149247   2.640   1.148   3.898  1.5205  0.8763 -1.1855
 9252TIP3    H249248   2.525   1.227   3.955  0.3566 -2.1086  0.8521
 9253TIP3   OH249249   6.789   6.350  17.064 -0.4363 -0.3219  0.0308
 9253TIP3    H149250   6.781   6.445  17.058 -0.0248 -0.3953 -2.7124
 9253TIP3    H249251   6.700   6.318  17.048  0.0944 -0.4031 -3.8182
 9254TIP3   OH249252   4.256   6.322  14.329  0.2640 -0.0508 -0.0778
 9254TIP3    H149253   4.224   6.352  14.244 -0.5649 -0.4302  0.0837
 9254TIP3    H249254   4.326   6.382  14.351  0.2870  0.2369 -0.8919
 9255TIP3   OH249255   2.729   2.415  16.073  0.1702 -0.2232 -0.0034
 9255TIP3    H149256   2.769   2.335  16.040  0.3054 -0.2604  0.2498
 9255TIP3    H249257   2.647   2.387  16.113  0.1289 -0.2107 -0.0795
 9256TIP3   OH249258   0.164   3.078   6.393  0.3159  0.0252 -0.1303
 9256TIP3    H149259   0.160   3.106   6.485  0.4038  0.6150 -0.3029
 9256TIP3    H249260   0.173   2.983   6.398  1.7417  0.1722  0.5013
 9257TIP3   OH249261   3.762   5.791   3.069 -0.1933 -0.1745  0.1193
 9257TIP3    H149262   3.733   5.747   3.149  0.5330  0.4476  0.7513
 9257TIP3    H249263   3.693   5.773   3.005  0.3259 -2.6678  0.1637
 9258TIP3   OH249264   6.500   6.773  16.224  0.5335 -0.0954  0.4500
 9258TIP3    H149265   6.422   6.790  16.171  0.7848 -0.9840 -0.2454
 9258TIP3    H249266   6.570   6.819  16.179  0.6914 -0.6088  0.1528
 9259TIP3   OH249267   2.199   2.083   4.583 -0.0404  0.4344  0.2270
 9259TIP3    H149268   2.120   2.067   4.531 -1.9871 -1.3616  3.3795
 9259TIP3    H249269   2.170   2.140   4.653  1.7256  0.4905  0.9501
 9260TIP3   OH249270   3.992   1.001  16.432  0.5037 -0.6389 -0.3945
 9260TIP3    H149271   3.947   0.980  16.514 -1.0008 -3.0981 -1.7070
 9260TIP3    H249272   4.085   1.000  16.455  0.0895  0.0294  1.5041
 9261TIP3   OH249273   4.328   1.736   1.090 -0.3338  0.1607  0.1915
 9261TIP3    H149274   4.243   1.763   1.123  0.2850  1.3795  0.8571
 9261TIP3    H249275   4.387   1.746   1.165  0.8043  1.4802 -0.8265
 9262TIP3   OH249276   1.606   3.470   1.715  0.7672 -0.8690 -0.3795
 9262TIP3    H149277   1.545   3.519   1.771  1.0067 -1.0422  0.0365
 9262TIP3    H249278   1.555   3.449   1.637  0.0641 -1.6283  0.2693
 9263TIP3   OH249279   5.417   3.076  15.888  0.2978  0.6914 -0.5576
 9263TIP3    H149280   5.488   3.032  15.935 -0.3033 -0.3852 -0.6073
 9263TIP3    H249281   5.460   3.130  15.822  1.0705 -1.6495 -2.0983
 9264TIP3   OH249282   5.085   4.724   0.784  0.3745 -0.3708  0.7755
 9264TIP3    H149283   5.117   4.757   0.868  1.4305 -0.0089  0.2498
 9264TIP3    H249284   5.119   4.785   0.719 -0.2121 -0.7903  0.0573
 9265TIP3   OH249285   2.721   0.297  15.139  0.1202  0.4656  0.1255
 9265TIP3    H149286   2.797   0.271  15.191  0.0928  0.7769  0.3234
 9265TIP3    H249287   2.706   0.388  15.163  0.3627  0.7399 -0.7313
 9266TIP3   OH249288   6.549   3.712  11.535 -0.1645 -0.3241  0.4397
 9266TIP3    H149289   6.586   3.788  11.579  0.9496 -0.3917 -0.3426
 9266TIP3    H249290   6.468   3.744  11.494 -0.0736  0.2612  0.7156
 9267TIP3   OH249291   0.863   1.199   3.723  0.4815  0.0435  0.8258
 9267TIP3    H149292   0.776   1.219   3.758 -0.3326  2.6322 -2.1523
 9267TIP3    H249293   0.850   1.120   3.671 -0.9241  1.8084 -1.7286
 9268TIP3   OH249294   5.879   6.568  11.890 -0.7657  0.4391 -0.7317
 9268TIP3    H149295   5.870   6.662  11.875 -0.8883  0.3804 -1.0204
 9268TIP3    H249296   5.886   6.530  11.803 -1.2931  0.1239 -0.6416
 9269TIP3   OH249297   2.719   5.176   2.593 -0.5858  0.8544  0.3883
 9269TIP3    H149298   2.730   5.271   2.594 -1.3555  0.9686  1.8377
 9269TIP3    H249299   2.659   5.158   2.666  0.9107 -0.9079  1.2669
 9270TIP3   OH249300   2.980   2.650   0.693  0.2576 -0.2796  0.4548
 9270TIP3    H149301   2.959   2.614   0.606  0.0960 -1.6288  1.0282
 9270TIP3    H249302   3.066   2.614   0.713  1.2512  1.6904  0.0114
 9271TIP3   OH249303   0.484   5.562   3.751  0.2542 -0.0581 -0.5471
 9271TIP3    H149304   0.455   5.627   3.688 -0.9523  0.5630  0.5867
 9271TIP3    H249305   0.493   5.611   3.833 -0.2799 -1.2298  0.2368
 9272TIP3   OH249306   6.741   2.349   4.582  0.1872 -0.0824  0.2550
 9272TIP3    H149307   6.673   2.358   4.516  0.5587  1.9049  0.0767
 9272TIP3    H249308   6.812   2.405   4.550  0.8706 -0.0807  1.7126
 9273TIP3   OH249309   1.717   6.234   1.554  0.0125  0.2837  0.3016
 9273TIP3    H149310   1.702   6.182   1.633 -0.1240  0.8354  0.6410
 9273TIP3    H249311   1.661   6.311   1.564  0.7104  0.8332  0.1260
 9274TIP3   OH249312   0.484   1.487   5.148  0.4170 -0.5704  0.3467
 9274TIP3    H149313   0.412   1.549   5.134 -1.1388 -2.6106 -1.4069
 9274TIP3    H249314   0.558   1.541   5.175 -0.4748  2.2403 -2.2592
 9275TIP3   OH249315   1.939   6.595  15.494  0.2920 -0.0430  0.0143
 9275TIP3    H149316   2.011   6.552  15.540 -0.7227 -2.7571 -0.7320
 9275TIP3    H249317   1.973   6.611  15.406 -0.4903 -3.2094 -1.0013
 9276TIP3   OH249318   4.187   0.447  12.662  0.1458 -0.3377  0.2305
 9276TIP3    H149319   4.214   0.511  12.596 -0.9620 -0.5436 -0.4492
 9276TIP3    H249320   4.148   0.376  12.611 -0.8494 -0.4388  1.1078
 9277TIP3   OH249321   3.507   0.349   3.468  0.3395 -0.1334 -0.0803
 9277TIP3    H149322   3.513   0.364   3.563 -0.7119 -0.3847  0.0369
 9277TIP3    H249323   3.445   0.414   3.437  0.5688 -0.1479 -0.5782
 9278TIP3   OH249324   0.960   0.077   0.426 -0.5097  0.1371 -0.1590
 9278TIP3    H149325   0.925   0.158   0.390 -1.3687 -0.6294 -1.0924
 9278TIP3    H249326   0.911   0.007   0.383 -0.7810 -0.8754  1.6490
 9279TIP3   OH249327   1.364   3.227   3.870  0.1518 -0.3987  0.5734
 9279TIP3    H149328   1.276   3.192   3.881 -1.4853  2.7494 -1.1771
 9279TIP3    H249329   1.410   3.162   3.816 -1.5655 -1.3837  0.2407
 9280TIP3   OH249330   2.064   4.142   2.655  0.4535  0.0604  0.1339
 9280TIP3    H149331   2.017   4.184   2.583 -0.4885 -0.5194  0.3935
 9280TIP3    H249332   2.073   4.210   2.721  0.1632  0.2300 -0.0007
 9281TIP3   OH249333   0.760   3.657   2.385  0.4992 -0.1152  0.1651
 9281TIP3    H149334   0.692   3.707   2.430 -0.7967 -1.7482  0.0976
 9281TIP3    H249335   0.836   3.716   2.384 -1.3935  2.4983 -1.4217
 9282TIP3   OH249336   0.781   2.105   2.086 -0.5235 -0.8366 -0.0440
 9282TIP3    H149337   0.701   2.139   2.127  0.6040 -0.7063  2.1757
 9282TIP3    H249338   0.827   2.061   2.157  1.8335 -0.1073 -1.0490
 9283TIP3   OH249339   0.381   1.931  11.862  0.3073 -0.0216  0.0655
 9283TIP3    H149340   0.435   1.982  11.922 -1.5577 -0.2341  2.0670
 9283TIP3    H249341   0.353   1.993  11.795  1.7275  0.4418 -0.1247
 9284TIP3   OH249342   6.141   5.834   5.597 -0.6211  0.2425 -0.0562
 9284TIP3    H149343   6.177   5.923   5.606  1.5400 -0.7190  1.7922
 9284TIP3    H249344   6.204   5.778   5.643 -2.1776 -2.2082 -0.7388
 9285TIP3   OH249345   0.985   3.651   2.940 -0.2185 -0.5520 -0.3029
 9285TIP3    H149346   0.955   3.642   2.849 -0.3456  0.3073 -0.3627
 9285TIP3    H249347   0.978   3.564   2.977  1.2731 -1.2408 -1.5589
 9286TIP3   OH249348   5.017   3.693   5.798 -0.9073  0.3382 -0.6913
 9286TIP3    H149349   4.922   3.702   5.806 -0.7591 -0.0521  4.6482
 9286TIP3    H249350   5.053   3.776   5.829  0.4913 -0.1981 -0.7904
 9287TIP3   OH249351   3.406   6.687  11.161  0.2378  0.2850  0.2297
 9287TIP3    H149352   3.325   6.641  11.137  0.3288  0.0375  0.3984
 9287TIP3    H249353   3.473   6.650  11.103  0.2476  0.4407  0.1384
 9288TIP3   OH249354   2.365   6.573  15.794  0.1460 -0.0705 -0.2716
 9288TIP3    H149355   2.454   6.537  15.794  1.0535  2.0109  0.5235
 9288TIP3    H249356   2.369   6.645  15.730 -1.1260 -0.3019 -0.6327
 9289TIP3   OH249357   1.209   4.659  14.710 -0.1060 -0.0951  0.6518
 9289TIP3    H149358   1.276   4.713  14.753  0.1701 -1.0402  1.4324
 9289TIP3    H249359   1.172   4.717  14.643  1.2378  0.5604  0.4387
 9290TIP3   OH249360   1.382   0.737  12.958  0.2257  0.7408 -0.4287
 9290TIP3    H149361   1.377   0.664  12.896  0.9441  1.2909 -1.1556
 9290TIP3    H249362   1.300   0.733  13.006 -0.6957  0.7656 -1.9431
 9291TIP3   OH249363   4.451   3.252  16.556  0.0870  0.6039  0.5964
 9291TIP3    H149364   4.483   3.177  16.607  0.1953  0.3021  0.0915
 9291TIP3    H249365   4.529   3.288  16.514 -0.0775  0.4934  0.1845
 9292TIP3   OH249366   5.325   4.118   4.739  0.4164  0.2512  0.2270
 9292TIP3    H149367   5.268   4.190   4.766 -0.4329 -0.5306  0.5552
 9292TIP3    H249368   5.403   4.127   4.794 -0.1740  0.2468  1.0735
 9293TIP3   OH249369   1.097   4.732   6.390 -0.3104 -0.6088  0.6710
 9293TIP3    H149370   1.134   4.818   6.372  1.2411 -1.3604  0.0512
 9293TIP3    H249371   1.167   4.684   6.434 -0.6818 -1.9448 -0.1179
 9294TIP3   OH249372   0.160   5.663  15.540  0.0463 -0.4493 -0.3731
 9294TIP3    H149373   0.193   5.734  15.485 -2.1294  0.9210 -0.0557
 9294TIP3    H249374   0.175   5.693  15.630  0.1940 -0.9571 -0.2240
 9295TIP3   OH249375   6.047   0.019   4.959  0.7570  0.2897 -0.3872
 9295TIP3    H149376   6.087  -0.042   5.022  1.7466 -0.6468 -1.8396
 9295TIP3    H249377   6.016  -0.037   4.888  1.6798  1.4510 -1.7697
 9296TIP3   OH249378   5.207   6.083  17.078  0.0691 -0.2251 -0.1925
 9296TIP3    H149379   5.157   6.009  17.111  0.2338 -0.6997 -0.9894
 9296TIP3    H249380   5.141   6.147  17.053 -0.0621  0.2066  1.1430
 9297TIP3   OH249381   0.694   4.246   2.561 -0.5650 -0.3417  0.4224
 9297TIP3    H149382   0.672   4.292   2.480  2.0875 -1.2728 -0.9527
 9297TIP3    H249383   0.743   4.310   2.613 -1.4779 -0.0316  0.9316
 9298TIP3   OH249384   2.359   6.715  13.407  0.1750  0.4330  0.2782
 9298TIP3    H149385   2.327   6.676  13.326  1.0470 -1.8319  0.9486
 9298TIP3    H249386   2.455   6.715  13.398  0.2591  0.6663  1.0587
 9299TIP3   OH249387   6.301   2.491   4.196 -0.5130  0.3455 -0.0034
 9299TIP3    H149388   6.310   2.520   4.286  1.4767  0.3841 -0.1669
 9299TIP3    H249389   6.364   2.419   4.188 -0.9375  0.0894 -1.2586
 9300TIP3   OH249390   3.047   4.265   4.660  0.0605 -0.1974 -0.4115
 9300TIP3    H149391   3.057   4.309   4.745 -2.0988  0.4522 -0.4280
 9300TIP3    H249392   3.129   4.284   4.613 -0.5923  3.6448 -0.2965
 9301TIP3   OH249393   4.359   3.494  11.278 -0.0869 -0.9092  0.5902
 9301TIP3    H149394   4.282   3.490  11.335  0.4588  1.1777  1.5538
 9301TIP3    H249395   4.325   3.529  11.195 -0.0947  0.7749  1.2671
 9302TIP3   OH249396   1.877   0.121   0.691  0.0375 -0.2583  0.1583
 9302TIP3    H149397   1.826   0.047   0.724  2.4556 -1.8146  0.6017
 9302TIP3    H249398   1.906   0.167   0.770 -2.1517  1.8246 -0.1013
 9303TIP3   OH249399   0.769   3.217  13.422  0.0901 -0.4519  0.2437
 9303TIP3    H149400   0.777   3.141  13.478  2.8012 -0.6863 -0.3230
 9303TIP3    H249401   0.762   3.291  13.482  1.9219 -0.7920  0.9400
 9304TIP3   OH249402   3.651   1.332  15.561  0.1778 -0.1782  0.1615
 9304TIP3    H149403   3.653   1.359  15.652 -0.9647  0.7041 -0.0517
 9304TIP3    H249404   3.743   1.317  15.538  0.5908  0.8476  1.0821
 9305TIP3   OH249405   0.417   3.932   6.349 -0.4135  0.2322 -0.4180
 9305TIP3    H149406   0.495   3.879   6.336  0.2380  0.2589  2.6338
 9305TIP3    H249407   0.427   4.005   6.288  0.7164 -0.9702 -1.7569
 9306TIP3   OH249408   1.969   3.342   2.339 -0.1931  0.2060  0.2286
 9306TIP3    H149409   2.010   3.377   2.418  0.9826 -0.1766 -0.1853
 9306TIP3    H249410   1.876   3.361   2.350 -0.0192  0.4279  1.5630
 9307TIP3   OH249411   4.569   6.142   1.114 -0.0208 -0.7182  0.7826
 9307TIP3    H149412   4.532   6.124   1.200 -0.2438 -1.1977  0.5848
 9307TIP3    H249413   4.595   6.056   1.080 -0.3859 -0.5840  0.1608
 9308TIP3   OH249414   6.651   2.309  13.585 -0.3395  0.3876 -0.3186
 9308TIP3    H149415   6.637   2.224  13.628 -0.7454 -0.5334 -2.1647
 9308TIP3    H249416   6.563   2.340  13.565 -0.1460  0.2881 -1.3805
 9309TIP3   OH249417   1.497   4.113  14.322 -0.1324  0.1199 -0.2511
 9309TIP3    H149418   1.493   4.192  14.375 -0.6714 -0.4159  0.5239
 9309TIP3    H249419   1.511   4.042  14.385 -2.8916 -0.7926 -0.5446
 9310TIP3   OH249420   0.834   5.313  11.127  0.6533  0.3658  0.5053
 9310TIP3    H149421   0.771   5.333  11.059  0.1820  0.6391  1.0110
 9310TIP3    H249422   0.882   5.237  11.095  0.4136  0.4721 -0.1072
 9311TIP3   OH249423   3.064   2.824   3.010  0.4702  0.0609  0.5063
 9311TIP3    H149424   3.125   2.817   3.083 -0.3020 -1.1358  1.0721
 9311TIP3    H249425   3.011   2.902   3.029  1.3155  0.6723  0.3902
 9312TIP3   OH249426   3.230   2.282   2.640  0.0998  0.2097 -0.3080
 9312TIP3    H149427   3.160   2.328   2.687 -0.6190 -1.9404  0.8383
 9312TIP3    H249428   3.187   2.248   2.561  0.4041  0.6971 -0.6895
 9313TIP3   OH249429   5.376   3.365   3.817  0.7128 -0.7847  0.2344
 9313TIP3    H149430   5.316   3.412   3.876 -0.1609  2.5675 -2.9077
 9313TIP3    H249431   5.450   3.425   3.806  1.6081 -2.0399 -0.8100
 9314TIP3   OH249432   6.197   4.900  15.325 -0.4210  0.5143 -0.0926
 9314TIP3    H149433   6.203   4.825  15.266 -0.7051  0.7704 -0.4546
 9314TIP3    H249434   6.125   4.877  15.385  0.9445 -0.4795  1.2405
 9315TIP3   OH249435   2.615   1.472  14.565 -0.0331  0.5747  0.2705
 9315TIP3    H149436   2.707   1.447  14.553  0.1938  0.2223  2.3635
 9315TIP3    H249437   2.566   1.413  14.508  1.0661  1.4292 -1.6461
 9316TIP3   OH249438   2.877   4.158   2.778 -0.2331  0.2122 -0.3697
 9316TIP3    H149439   2.795   4.112   2.761  0.8199 -1.4105 -1.3119
 9316TIP3    H249440   2.867   4.192   2.867 -1.3936 -1.1859  0.0808
 9317TIP3   OH249441   0.125   6.337   5.702 -0.0788  0.1217 -0.2065
 9317TIP3    H149442   0.093   6.278   5.770  0.5161  0.7484  0.6469
 9317TIP3    H249443   0.219   6.345   5.720 -0.2624  1.8738  0.1503
 9318TIP3   OH249444   5.430   5.273  15.341  0.3813  0.3295  0.4559
 9318TIP3    H149445   5.476   5.281  15.425  0.2259 -0.9568  0.6796
 9318TIP3    H249446   5.467   5.194  15.301 -0.5447  0.1416 -0.0478
 9319TIP3   OH249447   6.696   0.764  17.083 -0.2185 -0.1367  0.1905
 9319TIP3    H149448   6.664   0.825  17.150  0.6203 -1.1647  1.5585
 9319TIP3    H249449   6.747   0.699  17.131  1.6622 -0.0946 -1.6191
 9320TIP3   OH249450   6.170   4.384   6.017 -0.2014 -0.5043 -0.6191
 9320TIP3    H149451   6.151   4.306   6.069  1.0463 -1.3928 -1.4481
 9320TIP3    H249452   6.231   4.435   6.071 -3.3217  1.5450  1.3173
 9321TIP3   OH249453   4.258   5.647  15.802  0.3132 -0.0475  0.4290
 9321TIP3    H149454   4.219   5.580  15.747  0.7018  0.8651 -1.0074
 9321TIP3    H249455   4.338   5.608  15.836  1.4249  0.2074 -1.7508
 9322TIP3   OH249456   6.612   5.715  13.102 -0.7576  0.4474 -0.0974
 9322TIP3    H149457   6.660   5.641  13.066 -1.9725 -0.3740 -0.0761
 9322TIP3    H249458   6.630   5.787  13.041  0.1260  0.0452 -0.3280
 9323TIP3   OH249459   1.312   6.430   2.438  0.0306 -0.1602  0.3131
 9323TIP3    H149460   1.368   6.353   2.449 -0.3021 -0.2249  1.7639
 9323TIP3    H249461   1.307   6.443   2.343  3.0999  0.3060  0.1358
 9324TIP3   OH249462   6.535   1.787  11.394 -0.3909 -0.3639  0.1714
 9324TIP3    H149463   6.597   1.860  11.399  0.9733 -1.5372  1.1158
 9324TIP3    H249464   6.514   1.781  11.301  1.0201  0.0094 -0.2059
 9325TIP3   OH249465   2.836   5.248   3.043 -0.0907 -0.6080  0.3840
 9325TIP3    H149466   2.818   5.155   3.048  2.0469 -1.1536 -0.5606
 9325TIP3    H249467   2.855   5.274   3.133 -0.6452 -1.0841  0.6448
 9326TIP3   OH249468   4.252   5.414   5.579 -0.0070 -0.1648  0.0197
 9326TIP3    H149469   4.240   5.445   5.489 -0.0702  1.3674  0.5329
 9326TIP3    H249470   4.175   5.447   5.626  0.8726  0.5505  1.0013
 9327TIP3   OH249471   6.053   0.069   4.612  0.8001  0.2727  0.2108
 9327TIP3    H149472   6.139   0.104   4.637  1.2546  0.8092 -1.8676
 9327TIP3    H249473   6.073  -0.016   4.574  0.7453  1.2330 -2.1479
 9328TIP3   OH249474   3.959   5.345  12.545 -0.3188  0.3693  0.0745
 9328TIP3    H149475   3.989   5.423  12.592  1.0937 -0.0211 -0.1283
 9328TIP3    H249476   3.981   5.363  12.453 -1.4324  0.3764 -0.2062
 9329TIP3   OH249477   5.150   5.337   2.484 -0.4324 -0.1974  0.0838
 9329TIP3    H149478   5.105   5.408   2.439  0.7164 -1.0728 -2.6923
 9329TIP3    H249479   5.242   5.360   2.480 -0.0858 -1.5276 -0.4029
 9330TIP3   OH249480   6.171   0.749  17.034 -0.7526 -0.2260 -0.5835
 9330TIP3    H149481   6.170   0.656  17.057 -0.3137 -0.0038  0.3445
 9330TIP3    H249482   6.256   0.763  16.992  0.2972  0.2882  1.5957
 9331TIP3   OH249483   4.901   6.560  11.714 -0.3272 -0.1319  0.1045
 9331TIP3    H149484   4.840   6.629  11.740 -0.9895 -0.4762 -0.4981
 9331TIP3    H249485   4.908   6.570  11.619  0.7495  0.0562  0.2002
 9332TIP3   OH249486   2.613   0.095  15.834 -0.3605 -0.7254  0.4784
 9332TIP3    H149487   2.566   0.099  15.917 -0.3167 -1.4658  0.5435
 9332TIP3    H249488   2.696   0.139  15.851 -0.9082  0.3726  0.4294
 9333TIP3   OH249489   5.654   0.003   2.081  0.0182 -0.5942  0.0340
 9333TIP3    H149490   5.563   0.032   2.093  0.1196 -0.0370 -0.4987
 9333TIP3    H249491   5.706   0.072   2.123  0.1933 -1.0113  0.5136
 9334TIP3   OH249492   0.213   2.169   4.024  0.0602  0.5191  0.0008
 9334TIP3    H149493   0.302   2.196   4.048  0.7734 -0.9201 -0.8795
 9334TIP3    H249494   0.207   2.189   3.931  0.8214 -2.5942 -0.8508
 9335TIP3   OH249495   0.250   6.440   5.314  0.5513  0.1538 -0.4228
 9335TIP3    H149496   0.219   6.526   5.344 -0.4882  0.0903 -1.2375
 9335TIP3    H249497   0.283   6.397   5.393  1.8192  1.5841 -0.1228
 9336TIP3   OH249498   6.681   2.086  16.167  0.4411  0.0020  0.2981
 9336TIP3    H149499   6.589   2.068  16.181  0.0549 -0.5954 -2.4254
 9336TIP3    H249500   6.710   2.129  16.247 -2.2617  0.4904  1.0959
 9337TIP3   OH249501   1.880   3.887   4.656 -0.0684 -0.1009 -0.0550
 9337TIP3    H149502   1.865   3.962   4.715  0.9770 -1.0598  1.4921
 9337TIP3    H249503   1.815   3.822   4.684  0.0498 -0.3520 -0.3598
 9338TIP3   OH249504   5.259   6.054  14.979  0.5083  0.2420  0.4104
 9338TIP3    H149505   5.172   6.014  14.976  0.5330 -0.0492  2.5107
 9338TIP3    H249506   5.319   5.979  14.984  0.7469  0.4679  1.0104
 9339TIP3   OH249507   4.352   2.332   1.561 -0.0914  0.1236  0.2954
 9339TIP3    H149508   4.271   2.281   1.568 -0.0861 -0.1064 -0.9793
 9339TIP3    H249509   4.357   2.356   1.468  2.4727 -1.8232 -0.1676
 9340TIP3   OH249510   1.639   3.238   4.655  0.2577  0.6345  0.0326
 9340TIP3    H149511   1.646   3.307   4.588  1.9941  1.0965  0.6357
 9340TIP3    H249512   1.601   3.282   4.731 -0.4527  0.4318 -0.1942
 9341TIP3   OH249513   2.083   5.132  11.747 -0.1632 -0.4204 -0.1111
 9341TIP3    H149514   2.138   5.115  11.671  0.7419  0.9090  0.2038
 9341TIP3    H249515   2.105   5.062  11.809  0.7093 -0.2804 -0.2494
 9342TIP3   OH249516   4.116   1.223   0.719 -0.2258  0.0182  0.0753
 9342TIP3    H149517   4.073   1.290   0.665 -2.1596 -1.1702  0.0355
 9342TIP3    H249518   4.139   1.269   0.800 -3.2596  0.4172  0.8645
 9343TIP3   OH249519   2.707   1.582   0.249  0.4972 -0.1077  0.2267
 9343TIP3    H149520   2.777   1.565   0.185  0.6955 -2.5189  0.9805
 9343TIP3    H249521   2.748   1.639   0.314  1.0413  0.3771 -0.5216
 9344TIP3   OH249522   5.641   6.561   0.091 -0.0802 -0.0675 -0.0794
 9344TIP3    H149523   5.647   6.465   0.088  1.4583  0.0270 -0.7152
 9344TIP3    H249524   5.718   6.588   0.140 -1.4004  0.8036  1.6265
 9345TIP3   OH249525   5.545   5.892  17.217  0.3114  0.6552  0.4557
 9345TIP3    H149526   5.472   5.831  17.219 -0.0758  1.0488 -0.7128
 9345TIP3    H249527   5.511   5.971  17.260  0.6089  0.2761  1.4076
 9346TIP3   OH249528   3.003   4.435  10.859  0.6754 -0.1813 -0.2822
 9346TIP3    H149529   2.948   4.357  10.851 -0.4506  0.4018  1.3452
 9346TIP3    H249530   2.985   4.485  10.779 -0.8061 -0.2407 -0.0115
 9347TIP3   OH249531   0.293   2.514  17.178  0.6509  0.7728 -0.7719
 9347TIP3    H149532   0.203   2.532  17.151  0.3920  0.8621  0.1288
 9347TIP3    H249533   0.348   2.556  17.112  0.0345  0.3157 -1.5902
 9348TIP3   OH249534   0.441   3.207   4.604 -0.4316  0.2600 -0.8125
 9348TIP3    H149535   0.402   3.292   4.581  0.4343  0.4236 -1.7622
 9348TIP3    H249536   0.403   3.145   4.542 -0.4603  0.1012 -0.6371
 9349TIP3   OH249537   1.474   5.096  14.373  0.0060  1.0021 -0.2877
 9349TIP3    H149538   1.414   5.112  14.447  0.5511 -0.3167  0.4746
 9349TIP3    H249539   1.523   5.178  14.365 -1.2460  1.7834 -0.3320
 9350TIP3   OH249540   2.590   1.278  13.105 -0.1832 -0.4409  0.0572
 9350TIP3    H149541   2.667   1.320  13.068  0.5021 -2.5741 -1.1501
 9350TIP3    H249542   2.526   1.348  13.115  1.5679  1.2183  0.2028
 9351TIP3   OH249543   1.536   2.056  13.133 -0.1876  0.2630 -0.0723
 9351TIP3    H149544   1.610   2.049  13.194  0.3096  1.4613 -0.4909
 9351TIP3    H249545   1.472   1.992  13.164 -0.8320  2.1641  2.9348
 9352TIP3   OH249546   1.951   0.314   1.804  0.5051 -0.1692  0.0361
 9352TIP3    H149547   1.891   0.278   1.739  1.2524 -3.2308  0.9139
 9352TIP3    H249548   2.036   0.317   1.759  0.7554 -1.0187  0.4422
 9353TIP3   OH249549   4.797   0.504  16.840 -0.6103  0.3514 -0.3391
 9353TIP3    H149550   4.814   0.444  16.913 -1.3210 -0.6223 -0.9582
 9353TIP3    H249551   4.882   0.544  16.822 -0.2334 -0.0804  0.4184
 9354TIP3   OH249552   0.539   3.723  11.339  0.0816 -0.4701 -0.3389
 9354TIP3    H149553   0.491   3.663  11.282 -0.0901  1.0183 -1.8235
 9354TIP3    H249554   0.571   3.791  11.281 -1.4358  1.9986  1.5468
 9355TIP3   OH249555   1.257   3.269  15.838 -0.9592  0.1148 -0.0052
 9355TIP3    H149556   1.183   3.250  15.895 -0.0482 -1.5127  0.7351
 9355TIP3    H249557   1.232   3.233  15.753 -1.7424  1.2445 -0.2660
 9356TIP3   OH249558   3.809   3.017  11.880  0.6082 -0.3140 -0.5828
 9356TIP3    H149559   3.756   2.938  11.892  1.5903 -1.3188 -2.3911
 9356TIP3    H249560   3.875   3.013  11.950  0.0371 -0.5473 -0.0529
 9357TIP3   OH249561   3.204   1.654  14.634 -0.4463  0.1026  0.0468
 9357TIP3    H149562   3.213   1.690  14.545  0.1321  1.2319  0.5320
 9357TIP3    H249563   3.138   1.709  14.675  0.9175  1.0930  1.0117
 9358TIP3   OH249564   6.032   2.690  15.840 -0.3089 -0.3880  0.5111
 9358TIP3    H149565   6.027   2.622  15.773 -0.1077  0.2425 -0.1517
 9358TIP3    H249566   6.126   2.697  15.860  0.0027  1.5462 -1.3725
 9359TIP3   OH249567   5.196   4.022  13.658 -0.2061  0.3624 -0.6095
 9359TIP3    H149568   5.170   4.113  13.675 -1.2983 -0.0222 -0.2035
 9359TIP3    H249569   5.127   3.969  13.698  1.5641 -0.7147  1.2365
 9360TIP3   OH249570   4.355   2.623   4.180  0.3431 -0.4772  0.3170
 9360TIP3    H149571   4.284   2.686   4.167  0.8871 -0.2772 -2.0660
 9360TIP3    H249572   4.352   2.603   4.274 -0.8298  1.9044  0.8616
 9361TIP3   OH249573   5.131   6.487  14.532 -0.0981 -0.0979 -0.1476
 9361TIP3    H149574   5.176   6.403  14.541  0.0433 -0.0595 -0.4894
 9361TIP3    H249575   5.039   6.463  14.522 -0.1751 -0.1672  0.7097
 9362TIP3   OH249576   2.637   3.115   5.150  0.2307  0.4444  0.1116
 9362TIP3    H149577   2.552   3.076   5.129  0.5607 -0.0234 -0.3935
 9362TIP3    H249578   2.616   3.204   5.179 -0.6522 -0.5814  2.8206
 9363TIP3   OH249579   6.113   6.471  15.188  0.0459 -0.1528  0.3862
 9363TIP3    H149580   6.206   6.450  15.188  0.3180  0.9061 -0.5904
 9363TIP3    H249581   6.069   6.388  15.204  1.1220 -1.0358 -0.9830
 9364TIP3   OH249582   5.683   3.993   6.261  0.5718  0.4121  0.9089
 9364TIP3    H149583   5.729   3.927   6.313  2.3238  0.3340 -0.6152
 9364TIP3    H249584   5.689   3.961   6.171 -3.0196  0.1615  0.6266
 9365TIP3   OH249585   2.431   0.408  14.214  0.1847  0.4934 -0.1846
 9365TIP3    H149586   2.432   0.318  14.180 -1.4975  0.5669 -0.4837
 9365TIP3    H249587   2.394   0.400  14.302 -2.8358  1.1649 -1.2703
 9366TIP3   OH249588   3.796   6.033   2.398  0.5270  0.3269  0.2484
 9366TIP3    H149589   3.853   6.106   2.373 -2.4081  3.3497  1.6306
 9366TIP3    H249590   3.719   6.041   2.343  0.5226 -2.5572 -0.3442
 9367TIP3   OH249591   1.969   0.684   1.684  0.1441  0.0886 -0.1110
 9367TIP3    H149592   1.960   0.704   1.777 -1.9774  2.9726 -0.7840
 9367TIP3    H249593   2.044   0.736   1.655  1.0116 -1.0642 -0.0035
 9368TIP3   OH249594   0.881   4.188  16.780  0.4764 -0.2506  0.1462
 9368TIP3    H149595   0.842   4.191  16.867  2.2439 -1.2377  1.0297
 9368TIP3    H249596   0.841   4.112  16.738 -0.6916  0.4739 -0.0935
 9369TIP3   OH249597   2.256   1.236   0.697 -0.6778  0.6021 -0.1927
 9369TIP3    H149598   2.218   1.170   0.639  1.3692 -0.4631 -0.4057
 9369TIP3    H249599   2.292   1.186   0.770  3.7876  0.9143 -1.8514
 9370TIP3   OH249600   4.318   1.998  14.163  0.6606 -0.0957 -0.8749
 9370TIP3    H149601   4.348   2.034  14.246 -0.4099 -0.9833 -0.0600
 9370TIP3    H249602   4.352   2.057  14.096  0.3303  1.4598  0.2911
 9371TIP3   OH249603   6.733   2.905  15.784 -0.2601  0.3147  0.2342
 9371TIP3    H149604   6.739   2.842  15.856  0.9805 -0.8185 -0.7873
 9371TIP3    H249605   6.725   2.851  15.705  1.1165  1.3844 -0.7057
 9372TIP3   OH249606   5.350   2.546   1.902  0.1218 -0.6302  0.0698
 9372TIP3    H149607   5.424   2.603   1.922 -0.5347  0.8555 -1.4532
 9372TIP3    H249608   5.286   2.564   1.971 -0.3310  1.0331 -0.7314
 9373TIP3   OH249609   6.038   4.122   0.199 -0.5088  0.2476  0.9267
 9373TIP3    H149610   6.114   4.075   0.165 -2.4339 -1.5792 -1.1719
 9373TIP3    H249611   6.071   4.210   0.216  2.2683 -0.7015  1.0132
 9374TIP3   OH249612   4.148   0.833   1.444 -0.0583 -0.0468  0.0319
 9374TIP3    H149613   4.194   0.917   1.440  1.6887 -0.8975  0.9450
 9374TIP3    H249614   4.189   0.780   1.376 -0.6338 -0.3895 -0.0513
 9375TIP3   OH249615   5.457   6.095  16.932  0.1315  0.1408 -0.0976
 9375TIP3    H149616   5.379   6.108  16.986 -0.3014  1.8174 -1.0459
 9375TIP3    H249617   5.423   6.073  16.845  0.3955  4.0893 -1.4502
 9376TIP3   OH249618   4.110   3.897  16.764 -0.1509  0.0921 -0.3012
 9376TIP3    H149619   4.187   3.945  16.793 -0.6893  0.2167  0.9735
 9376TIP3    H249620   4.036   3.945  16.801 -0.7473 -1.1615  0.2006
 9377TIP3   OH249621   3.588   6.826   4.141 -0.0536 -0.1905 -0.3383
 9377TIP3    H149622   3.659   6.869   4.188 -0.5039  1.1308 -0.8232
 9377TIP3    H249623   3.614   6.734   4.136  0.0776 -0.3616  2.3474
 9378TIP3   OH249624   5.581   4.865  15.748 -0.5529 -0.2160 -0.6293
 9378TIP3    H149625   5.555   4.773  15.755 -1.5506  0.0175 -1.0992
 9378TIP3    H249626   5.659   4.863  15.693 -0.4095 -0.8092 -0.4165
 9379TIP3   OH249627   4.876   5.577   4.088  0.3016  0.5257 -0.4424
 9379TIP3    H149628   4.903   5.547   4.176 -0.0972 -1.7466 -1.0201
 9379TIP3    H249629   4.836   5.662   4.103  0.0282  0.0979  1.6479
 9380TIP3   OH249630   5.637   6.579  12.492  0.5340 -0.0590  0.1022
 9380TIP3    H149631   5.593   6.496  12.473 -1.1708  0.6562  0.6991
 9380TIP3    H249632   5.577   6.646  12.458  1.7825  0.9542 -0.1961
 9381TIP3   OH249633   4.732   4.171  13.248 -0.1651 -0.0776 -0.0447
 9381TIP3    H149634   4.644   4.191  13.278  0.8082  1.1585  2.2566
 9381TIP3    H249635   4.733   4.198  13.157 -2.0233  0.2831  0.0018
 9382TIP3   OH249636   1.900   2.402  14.767 -0.0214 -0.2570 -0.4261
 9382TIP3    H149637   1.856   2.418  14.683 -0.3818  1.3490  0.0374
 9382TIP3    H249638   1.977   2.350  14.744 -0.8891 -1.0953 -1.5521
 9383TIP3   OH249639   4.798   6.247   1.228  0.1142  0.2129 -0.5666
 9383TIP3    H149640   4.858   6.275   1.159  1.3308 -1.7676 -0.3880
 9383TIP3    H249641   4.715   6.229   1.183  0.7936 -0.7294 -1.4780
 9384TIP3   OH249642   3.963   3.614   3.876  0.3337 -0.0831  0.1279
 9384TIP3    H149643   4.002   3.582   3.794  0.8213 -0.4544  0.5010
 9384TIP3    H249644   3.904   3.684   3.848 -1.3557 -1.7697 -0.8214
 9385TIP3   OH249645   2.968   3.249   0.029 -0.0397  0.2427 -0.2748
 9385TIP3    H149646   3.056   3.220   0.005 -0.3497 -0.4495 -0.5980
 9385TIP3    H249647   2.918   3.168   0.041 -0.4548  0.6134  0.6031
 9386TIP3   OH249648   2.758   0.331  11.324 -0.8519 -0.6887 -0.1713
 9386TIP3    H149649   2.817   0.387  11.275 -0.9060 -0.7540 -0.3105
 9386TIP3    H249650   2.696   0.298  11.259 -1.7802  0.3217  0.1613
 9387TIP3   OH249651   1.647   4.089   2.384 -0.0803 -0.1156  0.1550
 9387TIP3    H149652   1.643   4.009   2.331  0.2797  0.2864 -0.4969
 9387TIP3    H249653   1.617   4.158   2.325  1.9149  0.6172 -0.1122
 9388TIP3   OH249654   6.690   4.010  12.012 -0.0740  0.0312  0.4859
 9388TIP3    H149655   6.656   3.938  12.065  1.8983 -1.5129 -0.2559
 9388TIP3    H249656   6.731   3.968  11.937  0.0912  2.0097 -0.5900
 9389TIP3   OH249657   1.381   4.572  11.192  0.1816 -0.6107 -0.1202
 9389TIP3    H149658   1.459   4.624  11.210  0.6024 -1.5044  0.7211
 9389TIP3    H249659   1.312   4.611  11.245  0.2316 -0.2754 -0.3010
 9390TIP3   OH249660   2.449   3.726  14.872 -0.0189  0.3592 -0.6162
 9390TIP3    H149661   2.542   3.707  14.881  0.0223  0.6502 -0.4282
 9390TIP3    H249662   2.421   3.674  14.797 -0.2981 -1.9218  0.9644
 9391TIP3   OH249663   2.011   5.647   3.273 -0.2373  0.5230  0.0954
 9391TIP3    H149664   2.008   5.557   3.306 -0.9391  0.3523 -0.3987
 9391TIP3    H249665   1.971   5.642   3.186 -1.0297  1.4373  0.3829
 9392TIP3   OH249666   4.770   4.032  11.320 -0.2205 -0.3712  0.1478
 9392TIP3    H149667   4.861   4.033  11.349 -0.1258 -0.8649 -0.1323
 9392TIP3    H249668   4.734   4.114  11.353 -0.0950 -0.8763  1.5951
 9393TIP3   OH249669   3.409   5.729   6.305 -0.4564  0.0106  0.6072
 9393TIP3    H149670   3.354   5.657   6.336  0.2853  0.0932  2.2179
 9393TIP3    H249671   3.375   5.807   6.350  0.1297  0.2884  0.5831
 9394TIP3   OH249672   1.007   2.695   5.403 -0.2598  0.1861 -0.8233
 9394TIP3    H149673   1.046   2.619   5.361  0.9925  1.4535 -2.0798
 9394TIP3    H249674   0.998   2.670   5.494 -0.6711 -1.7525 -1.3568
 9395TIP3   OH249675   4.286   0.119  15.784  0.6420 -0.0405  0.0326
 9395TIP3    H149676   4.306   0.212  15.772 -0.2696  0.3266  1.1475
 9395TIP3    H249677   4.270   0.110  15.878  0.1509 -1.2132 -0.1416
 9396TIP3   OH249678   0.806   1.284  12.810  0.3415 -0.4287 -0.6909
 9396TIP3    H149679   0.888   1.271  12.763  0.6153 -0.1099 -0.3099
 9396TIP3    H249680   0.765   1.359  12.767 -0.0231 -0.9279 -1.2387
 9397TIP3   OH249681   2.631   1.042  11.286  0.3325 -0.3005 -0.3881
 9397TIP3    H149682   2.617   1.137  11.278 -1.0713 -0.4316  0.0992
 9397TIP3    H249683   2.652   1.013  11.197 -0.4417  0.3106 -0.7857
 9398TIP3   OH249684   3.833   1.931  15.415  0.2801 -0.5702  0.6514
 9398TIP3    H149685   3.744   1.964  15.406 -0.1595 -1.7052  0.7921
 9398TIP3    H249686   3.833   1.879  15.495  0.8890 -1.1463  0.2941
 9399TIP3   OH249687   2.536   4.129   5.092  0.2985  0.1090  0.6631
 9399TIP3    H149688   2.451   4.154   5.057  0.8504  1.0074 -0.0983
 9399TIP3    H249689   2.554   4.193   5.161  0.4889  0.1195  0.6062
 9400TIP3   OH249690   1.006   4.358   5.731 -0.4538  0.1349 -0.1443
 9400TIP3    H149691   1.064   4.314   5.669 -0.8327 -0.4974 -0.0539
 9400TIP3    H249692   1.061   4.373   5.808  0.0215  0.9328 -0.6207
 9401TIP3   OH249693   6.394   4.771   4.914  0.4469  0.1398 -0.1729
 9401TIP3    H149694   6.373   4.850   4.866 -0.0676  0.5032  0.6196
 9401TIP3    H249695   6.487   4.780   4.937  0.0713  1.1669  1.0625
 9402TIP3   OH249696   4.250   2.660   0.252  0.1024 -0.7652  0.5978
 9402TIP3    H149697   4.303   2.663   0.331  1.5447 -0.2818 -0.3389
 9402TIP3    H249698   4.217   2.749   0.242  1.8132 -0.1852 -0.5076
 9403TIP3   OH249699   6.013   5.816  11.987  0.1563 -0.1297 -0.5128
 9403TIP3    H149700   6.025   5.764  12.067 -1.0363 -0.8256 -0.7573
 9403TIP3    H249701   5.945   5.880  12.011 -0.4706 -0.5748 -1.0513
 9404TIP3   OH249702   5.235   6.012   1.533 -0.1631  0.2409  0.3571
 9404TIP3    H149703   5.245   6.061   1.615  1.9700 -0.5307  0.6188
 9404TIP3    H249704   5.281   5.930   1.548 -0.8879 -0.4926 -1.1815
 9405TIP3   OH249705   2.567   0.362   5.331 -0.1351  0.5634  0.3164
 9405TIP3    H149706   2.543   0.453   5.349 -3.4797 -0.2271  0.6074
 9405TIP3    H249707   2.542   0.349   5.240 -0.8308 -0.3282  0.6166
 9406TIP3   OH249708   5.355   2.632   3.398 -0.1505 -0.0187  0.3487
 9406TIP3    H149709   5.438   2.624   3.351 -1.8699  0.6904 -3.0861
 9406TIP3    H249710   5.329   2.541   3.416  0.6455 -0.2993  0.1246
 9407TIP3   OH249711   5.132   1.794   4.110  0.2922 -0.3442  0.1514
 9407TIP3    H149712   5.124   1.887   4.133 -2.5911  0.0231 -1.7671
 9407TIP3    H249713   5.113   1.748   4.192 -2.1992  0.8540  0.3421
 9408TIP3   OH249714   1.680   6.357   3.874  0.2010  0.1223 -0.1139
 9408TIP3    H149715   1.678   6.325   3.784  0.1020 -2.6905  0.7808
 9408TIP3    H249716   1.693   6.278   3.927 -2.5333  1.2643  2.5344
 9409TIP3   OH249717   1.332   4.013   4.459  0.0713 -0.0184  0.5779
 9409TIP3    H149718   1.254   3.959   4.470 -0.2350  0.4825  0.8804
 9409TIP3    H249719   1.354   4.005   4.367 -0.2177 -0.3284  0.5338
 9410TIP3   OH249720   5.294   3.460  16.234  0.3963 -0.2298  0.0226
 9410TIP3    H149721   5.236   3.444  16.309 -1.3226  1.2882 -0.8807
 9410TIP3    H249722   5.288   3.380  16.182 -0.2713 -0.4086  0.3520
 9411TIP3   OH249723   0.387   6.271   5.519 -0.3911 -0.5671  0.4424
 9411TIP3    H149724   0.462   6.236   5.568  1.1771 -0.5968 -1.8331
 9411TIP3    H249725   0.319   6.204   5.527  0.6275 -1.5840  0.7150
 9412TIP3   OH249726   1.801   0.381  12.886  0.7591  0.1481  0.1757
 9412TIP3    H149727   1.712   0.415  12.876  0.8369  0.3350  0.0991
 9412TIP3    H249728   1.852   0.456  12.918  1.2974  0.6191 -1.6619
 9413TIP3   OH249729   3.579   0.107   3.336 -0.0628  0.4522 -0.5324
 9413TIP3    H149730   3.548   0.180   3.390  0.6282  0.1225  0.3270
 9413TIP3    H249731   3.514   0.038   3.351 -0.3719  0.6652 -0.8553
 9414TIP3   OH249732   2.699   5.267  13.294  0.4100 -0.1790 -0.4418
 9414TIP3    H149733   2.666   5.181  13.265  2.2532 -1.2104  0.3641
 9414TIP3    H249734   2.767   5.289  13.232 -0.9140  1.3901 -1.4163
 9415TIP3   OH249735   0.296   2.741   3.103  0.0864 -0.5352 -0.9252
 9415TIP3    H149736   0.234   2.748   3.176  0.9017  1.9330 -0.4035
 9415TIP3    H249737   0.365   2.683   3.135 -0.2149 -0.5068 -0.2116
 9416TIP3   OH249738   2.690   3.200  15.902  0.4773 -0.1562 -0.2114
 9416TIP3    H149739   2.622   3.247  15.951  0.5551 -0.2068 -0.0534
 9416TIP3    H249740   2.664   3.209  15.810 -0.1307 -0.7778 -0.1070
 9417TIP3   OH249741   5.502   0.146   2.741  0.2969 -0.4559 -0.1018
 9417TIP3    H149742   5.571   0.155   2.807 -0.3588 -0.0918  0.5463
 9417TIP3    H249743   5.548   0.118   2.662  1.2002 -0.1158  0.2925
 9418TIP3   OH249744   6.040   3.379  15.791  0.4938  0.1145  0.0935
 9418TIP3    H149745   6.091   3.461  15.792  2.6061 -1.0758 -1.9408
 9418TIP3    H249746   6.067   3.334  15.871 -0.5236  1.2438  1.1210
 9419TIP3   OH249747   5.173   4.482  11.875 -0.2263  0.2426 -0.6087
 9419TIP3    H149748   5.095   4.507  11.826  0.9243  0.4796 -2.4362
 9419TIP3    H249749   5.202   4.563  11.918 -1.0801  0.1030  0.2552
 9420TIP3   OH249750   1.605   5.479  16.905  0.7018 -0.2956  0.7533
 9420TIP3    H149751   1.647   5.393  16.915  2.0484  0.5512  3.0569
 9420TIP3    H249752   1.620   5.523  16.988 -2.4061  1.1631  0.6888
 9421TIP3   OH249753   4.150   4.199  14.081 -0.5144 -0.6117  0.0394
 9421TIP3    H149754   4.151   4.154  14.166  0.8505 -1.3901 -0.3698
 9421TIP3    H249755   4.242   4.202  14.055 -1.0733 -2.2653 -2.3984
 9422TIP3   OH249756   5.800   0.486  14.090 -0.2877  0.2731  0.1628
 9422TIP3    H149757   5.766   0.476  14.001  0.1338  1.7209 -0.1878
 9422TIP3    H249758   5.727   0.520  14.141  0.1477  1.8857 -0.2355
 9423TIP3   OH249759   0.870   3.015  15.080 -0.3564 -0.4357  0.1723
 9423TIP3    H149760   0.853   3.012  14.986  0.3661  0.3759  0.0042
 9423TIP3    H249761   0.792   3.057  15.117 -0.7641 -1.0089 -0.0187
 9424TIP3   OH249762   1.367   0.040  12.516 -0.0052 -0.0339  0.3202
 9424TIP3    H149763   1.286  -0.007  12.533 -0.3087 -0.1044 -1.2287
 9424TIP3    H249764   1.431  -0.028  12.495 -0.3741  0.1637 -1.6409
 9425TIP3   OH249765   4.656   3.060   4.505 -0.3301 -0.0732  0.5085
 9425TIP3    H149766   4.623   2.972   4.526 -2.8822  0.8456  0.7683
 9425TIP3    H249767   4.634   3.112   4.583 -0.0597  1.0765 -0.1690
 9426TIP3   OH249768   2.692   6.816  14.209  0.2922 -0.0616  0.5789
 9426TIP3    H149769   2.735   6.826  14.124 -0.5178 -1.2770  0.0025
 9426TIP3    H249770   2.758   6.773  14.264  0.3036 -0.6343  0.1196
 9427TIP3   OH249771   3.499   3.438  14.044  0.1923  0.5505  0.1548
 9427TIP3    H149772   3.410   3.409  14.063 -0.2124  0.9055 -1.0744
 9427TIP3    H249773   3.488   3.509  13.981  1.3165  1.1765  0.6432
 9428TIP3   OH249774   6.246   5.026   2.538  0.2204  0.1181 -0.4403
 9428TIP3    H149775   6.251   5.053   2.630  0.0909  0.0288 -0.4059
 9428TIP3    H249776   6.156   4.995   2.527  0.6417 -1.2853 -0.2021
 9429TIP3   OH249777   2.559   6.156   0.780  0.2782 -0.5837  0.2122
 9429TIP3    H149778   2.644   6.114   0.767  0.0446 -0.8932 -0.3762
 9429TIP3    H249779   2.574   6.248   0.761  0.4975 -0.6322  0.1531
 9430TIP3   OH249780   5.495   5.319  16.447  0.0995 -0.1722  0.5117
 9430TIP3    H149781   5.572   5.277  16.408  0.1841 -0.4461  0.9632
 9430TIP3    H249782   5.427   5.252  16.444 -0.0068 -0.0628  0.4786
 9431TIP3   OH249783   4.156   0.172  15.298  0.2772  0.5102  0.5682
 9431TIP3    H149784   4.109   0.090  15.310  0.6469  0.1124 -0.5987
 9431TIP3    H249785   4.225   0.170  15.365 -0.3586  0.3785  1.2422
 9432TIP3   OH249786   1.416   1.505   6.413  0.1115  0.0199  0.0033
 9432TIP3    H149787   1.346   1.490   6.350  0.0837  0.3404 -0.0402
 9432TIP3    H249788   1.466   1.579   6.377 -0.2099  0.5428  0.6209
 9433TIP3   OH249789   6.175   3.924  17.015  0.7140 -0.0624  0.1281
 9433TIP3    H149790   6.089   3.895  17.047  1.0219  0.7288  1.7669
 9433TIP3    H249791   6.194   3.865  16.942 -0.8350 -0.8088  0.2826
 9434TIP3   OH249792   1.378   4.179  12.683 -0.2075  0.0581  0.2369
 9434TIP3    H149793   1.447   4.244  12.689 -0.7880  0.6147  1.0863
 9434TIP3    H249794   1.389   4.140  12.596 -0.7485  2.2983 -0.9051
 9435TIP3   OH249795   1.006   0.794  15.528  0.1036  0.1596  0.1805
 9435TIP3    H149796   1.007   0.706  15.491 -0.7577  0.8188 -1.4823
 9435TIP3    H249797   1.087   0.834  15.498 -0.5526  0.6645 -0.9672
 9436TIP3   OH249798   0.408   5.026  13.212 -0.6638 -0.5879  0.2707
 9436TIP3    H149799   0.488   5.038  13.263 -1.0206  0.5976  0.5664
 9436TIP3    H249800   0.440   5.001  13.125  0.0879  0.7171  0.1406
 9437TIP3   OH249801   5.384   1.525  13.573 -0.4712  0.0859 -0.0557
 9437TIP3    H149802   5.394   1.608  13.526  0.1570 -0.3752 -0.7666
 9437TIP3    H249803   5.470   1.507  13.609 -1.4827  1.8410  3.8433
 9438TIP3   OH249804   0.762   0.623  13.384 -0.2528 -0.7478 -0.0108
 9438TIP3    H149805   0.794   0.708  13.355 -1.0374 -0.0395  1.1218
 9438TIP3    H249806   0.838   0.566  13.380 -0.3104 -0.8214 -3.6624
 9439TIP3   OH249807   5.767   0.907  11.177  0.3372  0.0624 -0.4847
 9439TIP3    H149808   5.705   0.931  11.109 -0.8843  0.0590  0.5795
 9439TIP3    H249809   5.745   0.816  11.199  1.0850 -0.1219 -0.4694
 9440TIP3   OH249810   2.886   6.826   2.179 -0.8258  0.1935 -0.5881
 9440TIP3    H149811   2.945   6.877   2.123  0.2409 -2.3947 -2.0252
 9440TIP3    H249812   2.838   6.770   2.117  1.3286 -3.7621  0.9661
 9441TIP3   OH249813   3.815   2.759   6.126 -0.1434  0.4532 -0.0688
 9441TIP3    H149814   3.890   2.701   6.134 -1.1842 -0.6955  2.7547
 9441TIP3    H249815   3.836   2.835   6.180 -1.4262 -0.4692  1.8404
 9442TIP3   OH249816   3.268   2.236  14.133  0.1864  0.4995  0.4730
 9442TIP3    H149817   3.230   2.149  14.142 -1.2400  0.9111 -0.9757
 9442TIP3    H249818   3.232   2.286  14.207  1.1187 -0.1547  1.3821
 9443TIP3   OH249819   2.671   0.878   1.119 -0.5381 -0.1770 -0.2273
 9443TIP3    H149820   2.674   0.793   1.074 -0.2061  0.2335 -0.9907
 9443TIP3    H249821   2.627   0.859   1.203 -3.2204 -0.5498 -1.6052
 9444TIP3   OH249822   4.350   5.871  13.397  0.0834 -0.1696 -1.0654
 9444TIP3    H149823   4.281   5.886  13.461  0.0162  0.6626 -1.3206
 9444TIP3    H249824   4.314   5.902  13.314  0.8888  0.6211 -1.1317
 9445TIP3   OH249825   0.287   3.193   1.163  0.2946 -0.8600 -0.3621
 9445TIP3    H149826   0.367   3.214   1.212  0.0340  0.6416 -0.5441
 9445TIP3    H249827   0.309   3.114   1.114  2.1238  0.2183 -1.3926
 9446TIP3   OH249828   4.467   5.951  12.282  0.5528 -0.8485 -0.1068
 9446TIP3    H149829   4.533   5.992  12.339 -0.6747  1.3478 -0.1600
 9446TIP3    H249830   4.509   5.950  12.195  0.0078  2.1597 -0.5194
 9447TIP3   OH249831   0.622   4.135  12.064 -0.2498 -0.2661  0.2163
 9447TIP3    H149832   0.628   4.212  12.120 -2.6437 -0.1899  0.4752
 9447TIP3    H249833   0.650   4.062  12.119  2.9494  0.4418 -0.3150
 9448TIP3   OH249834   6.317   5.509  16.482  0.1311 -0.1238  0.6762
 9448TIP3    H149835   6.410   5.507  16.462 -0.1432 -0.6517 -0.6192
 9448TIP3    H249836   6.281   5.579  16.429 -0.3316 -0.3972  0.6192
 9449TIP3   OH249837   5.366   2.518  16.006 -0.7105  0.2686 -0.5189
 9449TIP3    H149838   5.392   2.477  15.923 -1.3700 -0.0027 -0.6033
 9449TIP3    H249839   5.430   2.588  16.020  2.3137 -2.5884  1.1532
 9450TIP3   OH249840   3.778   2.002   4.544 -0.3711 -0.4061 -0.3257
 9450TIP3    H149841   3.865   1.965   4.558 -0.8064 -1.3548 -0.0451
 9450TIP3    H249842   3.793   2.080   4.490  0.3640 -2.3117 -3.0671
 9451TIP3   OH249843   6.645   2.622  11.778  0.8944  0.5516 -0.5108
 9451TIP3    H149844   6.721   2.594  11.828  0.9153  0.3887 -0.6353
 9451TIP3    H249845   6.573   2.620  11.841  0.5651 -1.3159 -0.8917
 9452TIP3   OH249846   2.578   5.815   5.143  0.1957  0.0485 -0.6847
 9452TIP3    H149847   2.574   5.875   5.218  1.2871 -0.3243 -0.3167
 9452TIP3    H249848   2.606   5.870   5.070  0.3780  0.1499 -0.5371
 9453TIP3   OH249849   3.485   0.343  16.767 -0.0744 -0.3302 -0.0737
 9453TIP3    H149850   3.413   0.345  16.704  0.7534  2.7152 -1.1274
 9453TIP3    H249851   3.563   0.360  16.714  0.7100  1.8206  1.6034
 9454TIP3   OH249852   3.238   2.918   0.822 -0.5821  0.6398  0.1665
 9454TIP3    H149853   3.235   2.879   0.735 -0.6644  0.5705  0.2004
 9454TIP3    H249854   3.289   2.998   0.810  2.3040 -0.9888  0.6904
 9455TIP3   OH249855   3.433   2.968   3.885  0.2033 -0.3144  0.0340
 9455TIP3    H149856   3.483   2.887   3.887 -1.2837 -1.3321  3.6738
 9455TIP3    H249857   3.341   2.939   3.889 -0.3827  1.5176  0.8487
 9456TIP3   OH249858   6.012   5.363   5.751  0.1809  0.9534 -0.3509
 9456TIP3    H149859   6.076   5.300   5.717 -1.0944 -1.5266  1.5099
 9456TIP3    H249860   6.062   5.443   5.767  2.5382 -0.4835 -0.1056
 9457TIP3   OH249861   0.539   3.003   4.789  0.4818 -0.4410 -0.5638
 9457TIP3    H149862   0.562   2.917   4.753  2.5022 -0.9092  1.6113
 9457TIP3    H249863   0.536   3.060   4.712  2.1526 -1.8496 -1.7668
 9458TIP3   OH249864   1.737   0.676  16.364  0.4812 -0.5245 -0.0434
 9458TIP3    H149865   1.665   0.718  16.412 -1.5736 -0.5079 -2.9043
 9458TIP3    H249866   1.794   0.641  16.433 -1.1461  1.2494  2.3846
 9459TIP3   OH249867   2.655   1.103  14.296  0.5199 -0.6303 -0.3794
 9459TIP3    H149868   2.588   1.163  14.329 -1.1869 -2.0743 -1.0826
 9459TIP3    H249869   2.628   1.085  14.206  1.0684 -2.3334 -0.2317
 9460TIP3   OH249870   6.546   1.012  14.999  0.3029  0.3118 -0.1133
 9460TIP3    H149871   6.508   1.073  14.936 -0.8714 -1.5254 -1.2867
 9460TIP3    H249872   6.472   0.957  15.025  1.6028 -1.5915 -0.3006
 9461TIP3   OH249873   0.916   3.750   4.292  0.5541  0.3766  0.4141
 9461TIP3    H149874   0.978   3.749   4.219 -0.1882 -2.4567 -0.3167
 9461TIP3    H249875   0.830   3.749   4.251  0.0877  0.7580  1.3554
 9462TIP3   OH249876   1.515   6.806  10.985  0.5278 -0.3615  0.0813
 9462TIP3    H149877   1.604   6.785  11.013  1.1331  0.4843 -1.1200
 9462TIP3    H249878   1.505   6.760  10.901 -0.3628 -0.8792  0.4601
 9463TIP3   OH249879   6.326   5.709   3.702  0.7352 -0.1207 -0.1943
 9463TIP3    H149880   6.263   5.658   3.652 -0.0614  1.2772 -0.6964
 9463TIP3    H249881   6.406   5.707   3.650 -0.1368  1.4871 -1.7343
 9464TIP3   OH249882   3.689   1.912   5.688  0.0996  0.3304 -0.0669
 9464TIP3    H149883   3.637   1.943   5.761  0.9340 -0.2766  0.8104
 9464TIP3    H249884   3.629   1.857   5.637  0.0581 -0.9761  1.3397
 9465TIP3   OH249885   1.132   0.404  11.633  0.2739  0.0528  0.4576
 9465TIP3    H149886   1.144   0.316  11.598  1.3019 -0.1349  1.2552
 9465TIP3    H249887   1.200   0.414  11.699  0.0380  1.3704  0.5365
 9466TIP3   OH249888   1.970   3.182  14.645  0.0607 -0.1451 -0.0435
 9466TIP3    H149889   2.036   3.243  14.677 -0.0625 -0.2273  0.3680
 9466TIP3    H249890   1.985   3.102  14.694  1.8331 -1.2921 -2.3202
 9467TIP3   OH249891   4.583   2.597   4.864  0.3748 -0.8595 -0.4789
 9467TIP3    H149892   4.602   2.563   4.776 -1.2661  0.5951 -1.4572
 9467TIP3    H249893   4.488   2.604   4.866  0.4926  0.7612  0.7966
 9468TIP3   OH249894   5.013   3.443  12.307  0.6736  0.2546 -0.0058
 9468TIP3    H149895   5.055   3.395  12.236  0.7042  0.9174 -0.4460
 9468TIP3    H249896   5.029   3.390  12.385 -0.1178 -0.9438 -0.6279
 9469TIP3   OH249897   3.325   2.458  16.373  0.2292 -0.5709  0.1157
 9469TIP3    H149898   3.310   2.488  16.463 -0.5232  1.0984 -0.5222
 9469TIP3    H249899   3.241   2.471  16.330  0.6943 -0.9848 -0.9260
 9470TIP3   OH249900   0.188   3.899  11.570  0.4486 -0.3442  0.0874
 9470TIP3    H149901   0.122   3.968  11.564 -0.2863 -1.1098 -1.1846
 9470TIP3    H249902   0.249   3.918  11.499  2.0844  0.7717  1.6891
 9471TIP3   OH249903   4.315   6.586   2.609 -0.4638  0.3334  0.0921
 9471TIP3    H149904   4.315   6.511   2.549  3.8435 -1.9583  2.5142
 9471TIP3    H249905   4.312   6.547   2.696  1.2562  2.9890  1.4755
 9472TIP3   OH249906   3.126   2.299  12.324 -0.3093 -0.1663 -0.1743
 9472TIP3    H149907   3.110   2.363  12.255 -0.5785  0.9064  0.8421
 9472TIP3    H249908   3.122   2.214  12.280 -0.5558  0.4812 -1.4481
 9473TIP3   OH249909   1.132   0.853   0.573  0.2644 -0.9859  0.1891
 9473TIP3    H149910   1.203   0.830   0.514 -0.2575 -1.4085 -0.2900
 9473TIP3    H249911   1.131   0.949   0.574  1.4035 -0.9638  0.9137
 9474TIP3   OH249912   2.193   5.722   2.461  0.3815 -0.2275  0.0165
 9474TIP3    H149913   2.262   5.748   2.399  1.1495 -0.4532  0.7538
 9474TIP3    H249914   2.225   5.752   2.546 -0.6376  0.0241  0.3124
 9475TIP3   OH249915   1.354   4.812  12.566  0.4822  0.1965 -0.2710
 9475TIP3    H149916   1.288   4.874  12.536  0.6423  0.6062  0.2114
 9475TIP3    H249917   1.332   4.794  12.657  0.8102  0.0369 -0.2197
 9476TIP3   OH249918   0.458   4.513   2.141 -0.3031 -0.0869 -0.6556
 9476TIP3    H149919   0.393   4.578   2.112  1.3365  1.6809 -0.5316
 9476TIP3    H249920   0.464   4.451   2.068 -0.7750  0.7800 -1.4531
 9477TIP3   OH249921   3.193   6.730  16.655  0.2147  1.1462 -0.1419
 9477TIP3    H149922   3.099   6.740  16.643 -0.2997 -2.0213  0.3930
 9477TIP3    H249923   3.205   6.720  16.749  0.6242 -1.3402 -0.3895
 9478TIP3   OH249924   6.530   0.162  12.971  0.0189  0.2336 -0.1606
 9478TIP3    H149925   6.477   0.189  13.046 -0.5223  0.9737 -0.8035
 9478TIP3    H249926   6.587   0.093  13.006 -0.0704  0.7222  0.9813
 9479TIP3   OH249927   1.908   3.162   3.212 -0.0451 -0.3840  0.2779
 9479TIP3    H149928   1.917   3.072   3.178 -1.5556 -0.8718  1.0745
 9479TIP3    H249929   1.962   3.164   3.291 -2.3857 -1.6201  2.0327
 9480TIP3   OH249930   5.676   0.151  15.578  0.1158 -0.4701 -0.5080
 9480TIP3    H149931   5.674   0.071  15.632  0.8643 -0.9043 -1.0994
 9480TIP3    H249932   5.584   0.177  15.571 -0.3469 -2.2771 -1.7519
 9481TIP3   OH249933   3.287   1.941  13.215 -0.1197  0.0728 -0.2756
 9481TIP3    H149934   3.243   1.878  13.158  0.4377 -1.1435  0.6012
 9481TIP3    H249935   3.362   1.972  13.164 -0.7996  0.6058 -0.9855
 9482TIP3   OH249936   2.981   5.201   3.622  0.7693 -0.9339 -0.2171
 9482TIP3    H149937   2.942   5.140   3.684  1.0413 -0.8335  0.0577
 9482TIP3    H249938   3.064   5.227   3.663  0.3306  0.1734  0.0277
 9483TIP3   OH249939   3.767   5.775  14.736 -0.3183 -0.1692  0.4036
 9483TIP3    H149940   3.712   5.764  14.659 -0.1254  1.1722  0.0439
 9483TIP3    H249941   3.852   5.740  14.711 -0.1799  0.5083 -0.1118
 9484TIP3   OH249942   1.866   3.435   1.906  0.0656 -0.5705 -0.1738
 9484TIP3    H149943   1.836   3.347   1.930 -0.1945 -0.6872 -0.9236
 9484TIP3    H249944   1.904   3.425   1.819 -3.2433  0.7060 -1.9384
 9485TIP3   OH249945   3.929   6.046   6.120  0.0996 -0.1613  0.0172
 9485TIP3    H149946   3.946   6.082   6.033 -3.0506  0.0509 -0.6303
 9485TIP3    H249947   3.870   6.110   6.162  0.2648 -1.0365  1.6782
 9486TIP3   OH249948   3.151   5.837   1.456  0.3312  0.1238 -0.2067
 9486TIP3    H149949   3.190   5.895   1.522 -2.3673  0.5919  1.0987
 9486TIP3    H249950   3.057   5.851   1.465 -0.3601 -3.3283 -0.9280
 9487TIP3   OH249951   6.192   6.119  13.499 -0.1922  0.0548  0.1259
 9487TIP3    H149952   6.165   6.202  13.540 -0.3040  0.8911 -1.5598
 9487TIP3    H249953   6.144   6.116  13.417  0.6207 -1.1920 -0.3314
 9488TIP3   OH249954   1.550   2.588  10.428 -0.1515 -0.1193 -0.0095
 9488TIP3    H149955   1.605   2.666  10.435 -0.6961  0.2147  0.7410
 9488TIP3    H249956   1.476   2.616  10.374 -1.4308  0.5706  1.9635
 9489TIP3   OH249957   5.503   5.621   3.435  0.5761 -0.6866 -0.0108
 9489TIP3    H149958   5.468   5.536   3.462  1.0158  0.2927  4.4412
 9489TIP3    H249959   5.430   5.682   3.448  0.3083 -0.2325 -3.0317
 9490TIP3   OH249960   6.707   6.655   0.188  0.6900 -0.1081 -0.5833
 9490TIP3    H149961   6.745   6.717   0.126 -1.0931 -1.7059 -3.5382
 9490TIP3    H249962   6.613   6.675   0.187  0.4936 -0.8081  0.9215
 9491TIP3   OH249963   2.970   3.679   2.356  0.1576 -0.0184  0.7676
 9491TIP3    H149964   3.013   3.638   2.280 -0.3828  0.1964  0.3396
 9491TIP3    H249965   3.039   3.685   2.422  0.6204 -0.2703  0.3140
 9492TIP3   OH249966   6.435   0.034  16.599  0.1418 -0.2849  0.0929
 9492TIP3    H149967   6.416  -0.005  16.514  0.6119 -0.1687 -0.0722
 9492TIP3    H249968   6.354   0.079  16.624 -0.0170 -0.3671 -0.2685
 9493TIP3   OH249969   1.523   4.347   2.818 -0.0188 -0.0740 -0.3120
 9493TIP3    H149970   1.481   4.305   2.893 -1.8119 -0.6323 -1.5600
 9493TIP3    H249971   1.491   4.437   2.819  0.9723  0.2897  0.2918
 9494TIP3   OH249972   6.028   6.747   2.542  0.3128 -0.1332  0.4422
 9494TIP3    H149973   6.052   6.794   2.622 -1.1204  1.3411  0.0902
 9494TIP3    H249974   5.960   6.685   2.570 -0.6123  0.7905  0.3225
 9495TIP3   OH249975   2.061   4.549  12.921  0.6979  0.3378 -0.5636
 9495TIP3    H149976   2.103   4.619  12.971 -0.1174  0.6399 -0.2824
 9495TIP3    H249977   2.092   4.468  12.963  2.2470  0.4745 -1.3730
 9496TIP3   OH249978   5.101   2.758  15.036  0.7316 -0.2857  0.5292
 9496TIP3    H149979   5.166   2.708  14.986  0.4978 -0.6606  0.5952
 9496TIP3    H249980   5.022   2.704  15.033  0.4991  0.0439  0.6731
 9497TIP3   OH249981   6.223   5.005  10.520  0.1091  0.3829 -0.2420
 9497TIP3    H149982   6.283   5.033  10.589 -0.8848  1.5180  0.2008
 9497TIP3    H249983   6.273   5.018  10.439  0.3629  1.6402  0.0955
 9498TIP3   OH249984   0.851   0.219  16.062  0.5575  0.0577  0.2430
 9498TIP3    H149985   0.802   0.137  16.071  1.2112 -0.6047 -1.6544
 9498TIP3    H249986   0.802   0.270  15.998  0.4382  0.9317  1.0227
 9499TIP3   OH249987   0.561   4.188  16.495 -0.2690  0.0086 -0.1937
 9499TIP3    H149988   0.602   4.103  16.477  1.5327  0.9712 -0.7917
 9499TIP3    H249989   0.490   4.194  16.431 -0.2034 -0.8860 -0.3640
 9500TIP3   OH249990   1.543   4.355  13.885  0.3001  0.4200 -0.1675
 9500TIP3    H149991   1.506   4.267  13.872 -0.4362  0.7398 -0.2467
 9500TIP3    H249992   1.479   4.414  13.845 -0.1907  1.1470  1.6253
 9501TIP3   OH249993   1.612   4.154   5.057 -0.1237  0.2479 -0.0782
 9501TIP3    H149994   1.706   4.136   5.056  0.2484  1.7232  2.0212
 9501TIP3    H249995   1.571   4.070   5.037  1.5860 -1.1967  2.0250
 9502TIP3   OH249996   3.242   3.732   3.634  0.0766  0.1506  0.1214
 9502TIP3    H149997   3.320   3.686   3.666 -1.5427 -3.7664 -0.9133
 9502TIP3    H249998   3.264   3.759   3.545  0.7665  0.6261  0.4276
 9503TIP3   OH249999   6.732   1.358   3.794 -0.0469  0.6423  0.2021
 9503TIP3    H150000   6.746   1.435   3.850  1.4142  0.3341  0.2936
 9503TIP3    H250001   6.681   1.391   3.720  0.1657  1.5912  0.4674
 9504TIP3   OH250002   3.983   4.156  12.967  0.4284 -0.5469 -0.5000
 9504TIP3    H150003   4.074   4.183  12.978  0.4356 -0.6872 -0.1837
 9504TIP3    H250004   3.962   4.177  12.876 -0.1379  2.2054  0.1958
 9505TIP3   OH250005   3.838   0.383  12.561 -0.8602 -0.0038 -0.5175
 9505TIP3    H150006   3.832   0.421  12.649 -0.3560 -1.2423  0.0683
 9505TIP3    H250007   3.840   0.459  12.502 -2.4422  0.8272  0.4421
 9506TIP3   OH250008   4.561   6.190  15.809 -0.2665  0.7871 -0.4694
 9506TIP3    H150009   4.529   6.267  15.857 -2.6246 -0.1441 -0.3959
 9506TIP3    H250010   4.507   6.118  15.842  1.5777 -0.8332 -0.8522
 9507TIP3   OH250011   1.427   6.738   5.533 -0.3023 -0.4764 -0.2470
 9507TIP3    H150012   1.421   6.646   5.558 -2.2188 -0.4671 -0.4679
 9507TIP3    H250013   1.367   6.783   5.593  2.2795  1.0367  1.3812
 9508TIP3   OH250014   3.755   4.737  14.315 -0.4041 -0.1178  0.5314
 9508TIP3    H150015   3.699   4.664  14.288 -1.9719  0.6176  1.7257
 9508TIP3    H250016   3.724   4.811  14.264  1.2646 -0.2454 -0.7653
 9509TIP3   OH250017   4.798   0.587   4.838  0.3792  0.4612  0.7152
 9509TIP3    H150018   4.818   0.626   4.923  1.4707  1.8327 -0.1322
 9509TIP3    H250019   4.703   0.581   4.836  0.2404  2.0121  1.3681
 9510TIP3   OH250020   1.960   0.293   5.709  0.6854 -0.4259 -0.2900
 9510TIP3    H150021   1.905   0.221   5.678 -0.4039 -0.3794  1.4054
 9510TIP3    H250022   1.898   0.358   5.743  1.7477  0.0863  0.7592
 9511TIP3   OH250023   5.176   5.207   3.836  0.4589  0.3422  0.1649
 9511TIP3    H150024   5.086   5.208   3.869 -0.0104 -1.3394 -0.9414
 9511TIP3    H250025   5.225   5.157   3.901  0.2198 -0.2029 -0.0686
 9512TIP3   OH250026   1.252   2.513   0.017  0.4507  0.1336  0.3575
 9512TIP3    H150027   1.235   2.496  -0.075 -2.9162  1.7073  0.5527
 9512TIP3    H250028   1.339   2.553   0.019  0.9754 -0.7328 -1.9645
 9513TIP3   OH250029   4.642   2.179   3.915  0.3775 -0.1840  0.2049
 9513TIP3    H150030   4.563   2.131   3.942  1.1106 -0.9034  1.1807
 9513TIP3    H250031   4.641   2.258   3.968  0.2597 -0.1505  0.1524
 9514TIP3   OH250032   2.358   5.260   0.528  0.5899  0.0718 -0.3623
 9514TIP3    H150033   2.280   5.254   0.473 -0.1915  0.2509  0.6972
 9514TIP3    H250034   2.381   5.353   0.528  0.3972  0.1208 -0.1352
 9515TIP3   OH250035   3.644   5.017  16.359 -0.0237  0.2795  0.2034
 9515TIP3    H150036   3.719   5.009  16.301 -1.1804  0.4033 -1.3779
 9515TIP3    H250037   3.680   5.008  16.447  2.0690  2.0443 -0.4056
 9516TIP3   OH250038   4.741   0.074  13.415  0.7417  0.5976  0.0571
 9516TIP3    H150039   4.758   0.010  13.346  3.3230  1.3630 -0.1155
 9516TIP3    H250040   4.664   0.041  13.460  1.1246 -1.8339 -0.9422
 9517TIP3   OH250041   5.890   0.650   0.226 -0.5428 -0.1284 -0.1093
 9517TIP3    H150042   5.928   0.698   0.300 -0.6368  0.7798 -0.6386
 9517TIP3    H250043   5.964   0.607   0.185 -0.1178  1.2188 -0.8318
 9518TIP3   OH250044   2.148   4.654  17.179 -0.0754  0.4029  0.4469
 9518TIP3    H150045   2.221   4.716  17.189 -0.1739  0.8178 -1.1060
 9518TIP3    H250046   2.091   4.696  17.115 -0.1613 -1.2796 -0.6116
 9519TIP3   OH250047   4.564   5.925  11.924 -0.0716  0.7333  0.5432
 9519TIP3    H150048   4.469   5.940  11.920  0.0804  1.7568  0.5262
 9519TIP3    H250049   4.583   5.871  11.848 -0.2941  2.5560 -0.8602
 9520TIP3   OH250050   3.801   2.363  12.444 -0.2043  0.1875  0.2540
 9520TIP3    H150051   3.796   2.319  12.529 -0.3003  1.7927  1.1086
 9520TIP3    H250052   3.719   2.339  12.400 -1.5906  1.7310  1.8457
 9521TIP3   OH250053   1.010   5.740   5.282 -0.2486 -0.7195  0.0286
 9521TIP3    H150054   0.983   5.831   5.272 -0.3640 -0.5308  1.8262
 9521TIP3    H250055   1.106   5.743   5.280 -0.2546 -0.7165 -0.9627
 9522TIP3   OH250056   4.867   2.906  12.731 -0.0568  0.4064 -0.4554
 9522TIP3    H150057   4.782   2.876  12.698 -0.1804  1.5518 -1.2533
 9522TIP3    H250058   4.856   2.908  12.826 -1.6761  2.5455 -0.6122
 9523TIP3   OH250059   6.338   1.309  15.746  0.5046 -0.2849 -0.2030
 9523TIP3    H150060   6.414   1.303  15.804 -0.5567 -2.4736  1.0729
 9523TIP3    H250061   6.368   1.271  15.663  1.2882  0.5688 -0.3428
 9524TIP3   OH250062   6.276   6.558  16.707  0.0858 -0.0149  0.3935
 9524TIP3    H150063   6.252   6.587  16.795  2.6326 -0.1536  1.2190
 9524TIP3    H250064   6.293   6.464  16.717  1.3145  0.1495 -0.0016
 9525TIP3   OH250065   4.647   6.711  14.006  0.1736  0.4798  0.1885
 9525TIP3    H150066   4.650   6.647  13.936 -0.0471  1.7896 -1.0623
 9525TIP3    H250067   4.695   6.670  14.078 -1.1723 -1.6632 -0.0445
 9526TIP3   OH250068   2.734   1.051   4.184  0.2469 -0.1066  0.4527
 9526TIP3    H150069   2.701   0.970   4.144  1.2053 -0.2403 -0.0819
 9526TIP3    H250070   2.667   1.116   4.163 -0.2328 -0.6187  0.3506
 9527TIP3   OH250071   6.419   4.122  10.913 -0.4628  0.1020  0.0492
 9527TIP3    H150072   6.336   4.088  10.880 -0.6003  0.2855  0.2041
 9527TIP3    H250073   6.441   4.195  10.855 -0.8274  0.5810  0.4998
 9528TIP3   OH250074   3.545   0.935   6.429  0.0949 -0.1092  0.4561
 9528TIP3    H150075   3.585   0.847   6.427  0.6624  0.1486  0.2006
 9528TIP3    H250076   3.593   0.984   6.363  0.5572  0.7253  1.3961
 9529TIP3   OH250077   5.502   2.076   0.430 -0.1417  0.3422  0.5411
 9529TIP3    H150078   5.475   1.991   0.465  0.3818  0.4485  1.2152
 9529TIP3    H250079   5.421   2.115   0.398 -0.2279 -0.8548 -0.7620
 9530TIP3   OH250080   1.131   4.347  12.373  0.4611  0.0799  0.2175
 9530TIP3    H150081   1.095   4.407  12.308  1.2474  0.7839  0.4318
 9530TIP3    H250082   1.201   4.395  12.416  2.1426 -1.4927 -0.6361
 9531TIP3   OH250083   3.138   4.463   5.745  0.2642  0.0465 -0.1249
 9531TIP3    H150084   3.124   4.538   5.802  0.1400  0.5066 -0.7494
 9531TIP3    H250085   3.221   4.481   5.701  0.0689 -0.0190 -0.5236
 9532TIP3   OH250086   6.082   4.808  12.565  0.0784 -0.8375  0.0586
 9532TIP3    H150087   6.051   4.765  12.645 -3.3654 -1.3968 -1.3748
 9532TIP3    H250088   6.116   4.737  12.511 -0.7133 -1.0079 -0.2348
 9533TIP3   OH250089   0.368   2.589   6.463  0.6326 -0.3176 -0.5620
 9533TIP3    H150090   0.305   2.518   6.474  0.0488  0.2716 -0.0396
 9533TIP3    H250091   0.451   2.545   6.444  0.5864 -1.2235  1.1004
 9534TIP3   OH250092   0.374   6.510  15.900  0.4869 -0.2094 -0.2499
 9534TIP3    H150093   0.357   6.421  15.933 -0.0555 -0.7859 -1.9919
 9534TIP3    H250094   0.287   6.543  15.877  0.7664  0.5057 -0.2914
 9535TIP3   OH250095   3.810   1.615   3.119 -0.2248  0.1446  0.6752
 9535TIP3    H150096   3.769   1.593   3.203 -0.2830  1.3865  0.9863
 9535TIP3    H250097   3.830   1.530   3.079  1.8744 -0.5403  2.9337
 9536TIP3   OH250098   1.391   2.229  12.518  0.0904 -0.5658 -0.8032
 9536TIP3    H150099   1.440   2.311  12.527  1.0169 -1.3529  4.2663
 9536TIP3    H250100   1.447   2.175  12.462  1.8970  0.6894 -0.3128
 9537TIP3   OH250101   4.643   6.746   0.518 -0.1384 -0.5904 -0.1491
 9537TIP3    H150102   4.716   6.718   0.464  0.4930  1.4474 -0.4582
 9537TIP3    H250103   4.684   6.786   0.595 -0.9994 -2.1159  1.1524
 9538TIP3   OH250104   6.286   2.419  17.004  0.1697 -0.1320 -0.3572
 9538TIP3    H150105   6.231   2.497  17.011  1.8274  1.0733  0.0672
 9538TIP3    H250106   6.291   2.384  17.093  0.8495  0.3337 -0.2057
 9539TIP3   OH250107   5.250   0.457  15.082 -0.0328 -0.5932  0.3260
 9539TIP3    H150108   5.228   0.367  15.105 -1.2656  0.0973  2.0550
 9539TIP3    H250109   5.166   0.501  15.071  0.5161  0.6598  0.8662
 9540TIP3   OH250110   6.138   2.618  12.323  0.1999  0.4744  0.4341
 9540TIP3    H150111   6.168   2.701  12.361 -0.8765  1.1248 -0.0858
 9540TIP3    H250112   6.046   2.634  12.299  0.7785  0.1054 -2.4186
 9541TIP3   OH250113   2.772   6.251   2.628 -0.0504  0.2161 -0.4031
 9541TIP3    H150114   2.847   6.298   2.593 -1.3599  0.8928 -2.5161
 9541TIP3    H250115   2.727   6.315   2.683  0.0380  0.3594 -0.4970
 9542TIP3   OH250116   2.053   6.516   2.267 -1.1706 -0.3169 -0.0954
 9542TIP3    H150117   2.070   6.466   2.347 -0.8941 -1.3061 -0.7543
 9542TIP3    H250118   2.119   6.585   2.267  0.4467 -1.7851 -0.6864
 9543TIP3   OH250119   4.987   2.696  14.335  0.1290  0.0013 -0.1945
 9543TIP3    H150120   4.927   2.680  14.262  2.3245 -0.5820 -2.0049
 9543TIP3    H250121   4.994   2.611  14.379 -1.6510  0.4922  1.1512
 9544TIP3   OH250122   3.229   2.171   4.108 -0.1874  0.6415 -0.4993
 9544TIP3    H150123   3.231   2.131   4.021 -0.8889 -0.8790  0.1562
 9544TIP3    H250124   3.281   2.113   4.163  0.5853  1.8081  0.0418
 9545TIP3   OH250125   3.927   6.179  10.502  0.2740 -0.4028  0.4123
 9545TIP3    H150126   3.968   6.223  10.427  0.4768 -0.9446  0.2000
 9545TIP3    H250127   3.881   6.249  10.548  1.1096  0.1499  0.4347
 9546TIP3   OH250128   0.710   5.991   6.469 -0.0633  0.0835 -0.1926
 9546TIP3    H150129   0.795   5.951   6.486  0.0428  0.1335 -0.5874
 9546TIP3    H250130   0.727   6.053   6.398 -0.3883  0.2388 -0.1353
 9547TIP3   OH250131   1.990   2.646   3.233  0.3291 -0.4498 -0.1532
 9547TIP3    H150132   2.051   2.624   3.163  0.7424  1.1176 -0.3042
 9547TIP3    H250133   2.017   2.591   3.306  2.0094  0.3057 -0.1809
 9548TIP3   OH250134   0.285   5.581  11.383  0.4339  0.0526  0.5168
 9548TIP3    H150135   0.220   5.519  11.415  0.6181  0.5054  1.8389
 9548TIP3    H250136   0.368   5.533  11.387  0.2258 -0.5462 -1.2283
 9549TIP3   OH250137   0.110   6.809  10.826  0.5183 -0.3370 -0.5202
 9549TIP3    H150138   0.017   6.791  10.817  0.2772 -0.5493  1.8998
 9549TIP3    H250139   0.144   6.737  10.879  1.1980  1.7863  2.1375
 9550TIP3   OH250140   6.508   2.323   4.126 -0.4435  0.2228 -0.0384
 9550TIP3    H150141   6.555   2.261   4.182  0.3920 -0.0099 -0.9819
 9550TIP3    H250142   6.572   2.391   4.106 -0.4455 -0.1593 -1.4281
 9551TIP3   OH250143   6.685   4.270   3.065  0.4049 -0.4606  0.6741
 9551TIP3    H150144   6.644   4.305   2.986  2.6679 -0.3535 -0.5483
 9551TIP3    H250145   6.754   4.212   3.032  1.2948 -0.5621  2.5672
 9552TIP3   OH250146   5.601   1.799   4.644  0.0023 -0.1838 -0.3372
 9552TIP3    H150147   5.591   1.726   4.705  0.7360 -2.0416 -2.2911
 9552TIP3    H250148   5.694   1.799   4.623 -0.0083  1.3029 -0.4356
 9553TIP3   OH250149   5.174   1.437  13.888 -0.0657  0.0697  0.0592
 9553TIP3    H150150   5.166   1.501  13.958 -0.3500  0.0627  0.0347
 9553TIP3    H250151   5.227   1.480  13.821  1.4654 -0.4471  0.8885
 9554TIP3   OH250152   6.431   5.627   4.073 -0.2686 -0.0953 -0.0724
 9554TIP3    H150153   6.358   5.583   4.117  0.3702 -0.8489  0.2463
 9554TIP3    H250154   6.425   5.718   4.102 -0.3031 -0.4300  0.9916
 9555TIP3   OH250155   5.894   3.106   3.968  0.2780 -0.0992 -0.1895
 9555TIP3    H150156   5.895   3.010   3.967  0.9548 -0.0960 -1.8092
 9555TIP3    H250157   5.815   3.129   3.920 -0.6668  0.1888  1.4236
 9556TIP3   OH250158   4.588   5.477   3.953 -0.5614  0.2385 -0.4421
 9556TIP3    H150159   4.500   5.511   3.938 -0.9968 -1.1102 -1.0088
 9556TIP3    H250160   4.636   5.496   3.873 -1.1154 -1.4042 -1.1917
 9557TIP3   OH250161   2.497   6.481   4.576 -0.1073 -0.1197 -0.4863
 9557TIP3    H150162   2.406   6.510   4.580 -0.3602 -0.9126 -0.3758
 9557TIP3    H250163   2.546   6.559   4.546 -0.9318  0.0759 -1.3643
 9558TIP3   OH250164   5.000   5.566  11.780  0.3605  1.0024 -0.0979
 9558TIP3    H150165   4.917   5.604  11.749  1.7014  2.8826 -1.6668
 9558TIP3    H250166   5.053   5.559  11.701  1.7907  0.0518  0.9096
 9559TIP3   OH250167   2.220   5.048  11.524  0.4981  0.6935  1.3494
 9559TIP3    H150168   2.167   5.018  11.450  1.8598 -2.2251  1.4525
 9559TIP3    H250169   2.264   5.127  11.491 -0.2952  0.4784 -0.3122
 9560TIP3   OH250170   4.911   2.460   3.070 -0.2026  0.1220 -0.0401
 9560TIP3    H150171   4.825   2.501   3.066 -0.2646 -0.0224 -0.2120
 9560TIP3    H250172   4.973   2.531   3.057 -0.3082  0.1670 -0.3017
 9561TIP3   OH250173   3.428   4.072  11.372  0.0893 -0.2574  0.1500
 9561TIP3    H150174   3.392   4.144  11.321 -0.6993 -1.1665 -0.6229
 9561TIP3    H250175   3.514   4.102  11.399 -0.0602  0.8079 -0.5183
 9562TIP3   OH250176   4.861   4.875   0.123 -0.9818 -0.8510 -0.9560
 9562TIP3    H150177   4.860   4.779   0.117  0.9331 -1.0454  0.8858
 9562TIP3    H250178   4.817   4.894   0.205  0.0911 -0.2827 -0.4961
 9563TIP3   OH250179   0.675   0.288  12.706 -0.4757 -0.3691 -0.4901
 9563TIP3    H150180   0.629   0.365  12.739 -2.3980 -1.4098 -0.5647
 9563TIP3    H250181   0.725   0.320  12.631 -0.1666  1.0407  0.2926
 9564TIP3   OH250182   4.376   4.894  16.631 -0.2921  0.3027  0.2798
 9564TIP3    H150183   4.423   4.972  16.602 -0.4444  0.3309  0.1088
 9564TIP3    H250184   4.443   4.826  16.636 -0.1830  0.4116  0.3018
 9565TIP3   OH250185   1.659   3.989  10.454 -0.1900  0.2273  0.1792
 9565TIP3    H150186   1.707   4.054  10.505 -1.0998  1.6700 -0.7401
 9565TIP3    H250187   1.719   3.964  10.383  0.7393 -1.1251  1.3904
 9566TIP3   OH250188   6.715   0.095  14.550 -0.1329  0.1691  0.2437
 9566TIP3    H150189   6.687   0.008  14.522 -3.0124  1.4045 -1.1996
 9566TIP3    H250190   6.703   0.149  14.472 -1.1980  2.3869  1.8593
 9567TIP3   OH250191   4.968   0.578   4.612 -0.6054  0.1240 -0.0814
 9567TIP3    H150192   5.039   0.516   4.630 -0.5733  0.1329 -0.1785
 9567TIP3    H250193   4.920   0.584   4.695 -1.0462 -0.5890 -0.2753
 9568TIP3   OH250194   0.090   5.988   1.668 -0.1006 -0.3317 -0.3278
 9568TIP3    H150195   0.164   6.047   1.677  0.5487 -1.4698  3.6471
 9568TIP3    H250196   0.037   6.004   1.746 -1.0807 -3.3717 -0.2377
 9569TIP3   OH250197   5.552   0.675  12.616 -0.4498 -0.4661 -0.3825
 9569TIP3    H150198   5.631   0.629  12.643  0.2593 -1.4139 -3.5977
 9569TIP3    H250199   5.500   0.608  12.572 -2.6718  0.3548  0.8507
 9570TIP3   OH250200   2.323   0.772   0.449 -0.3597 -0.4674  0.2138
 9570TIP3    H150201   2.325   0.863   0.476 -0.7880  0.2857 -2.1022
 9570TIP3    H250202   2.232   0.745   0.462 -1.0462  0.4840 -2.0812
 9571TIP3   OH250203   5.289   2.255  13.214  0.2092  0.3249  0.3199
 9571TIP3    H150204   5.326   2.168  13.202 -1.7210 -0.5193  0.0857
 9571TIP3    H250205   5.214   2.257  13.155  0.4025  2.2947  0.0562
 9572TIP3   OH250206   4.980   6.048  15.804 -0.1819 -0.7715 -0.1105
 9572TIP3    H150207   5.071   6.021  15.791  0.4785  0.1968  2.0973
 9572TIP3    H250208   4.973   6.132  15.759  0.9648  0.6752  2.2696
 9573TIP3   OH250209   4.822   3.021   3.493  0.2831 -0.2566  0.0577
 9573TIP3    H150210   4.734   3.040   3.459  0.5003 -0.4935 -0.6632
 9573TIP3    H250211   4.853   3.104   3.527 -0.5413 -0.3534  1.0782
 9574TIP3   OH250212   4.383   1.368   4.666 -0.1779 -0.5704 -0.1285
 9574TIP3    H150213   4.448   1.436   4.651  0.2644 -0.9905 -0.1684
 9574TIP3    H250214   4.298   1.411   4.656  0.0852 -0.3302 -1.5458
 9575TIP3   OH250215   3.625   3.439   2.229  0.2050  0.5107 -0.1273
 9575TIP3    H150216   3.686   3.512   2.219  0.7970 -0.0159 -0.3955
 9575TIP3    H250217   3.587   3.451   2.317 -0.0585  1.3981 -0.3520
 9576TIP3   OH250218   6.745   2.559  16.627 -0.4056 -0.3433  0.5878
 9576TIP3    H150219   6.740   2.629  16.693 -1.4977  0.3232 -0.1664
 9576TIP3    H250220   6.706   2.598  16.549 -0.0107 -1.4480 -0.1705
 9577TIP3   OH250221   5.294   1.761  11.515 -0.5663 -0.4869  0.2504
 9577TIP3    H150222   5.261   1.790  11.599 -0.3738 -0.5218  0.3389
 9577TIP3    H250223   5.229   1.699  11.483 -1.4758  0.7659 -0.3882
 9578TIP3   OH250224   2.204   4.423  16.958  0.0012 -0.6207  0.1919
 9578TIP3    H150225   2.268   4.433  16.888 -0.6835 -0.3371 -0.4019
 9578TIP3    H250226   2.183   4.512  16.985 -0.6419 -0.6857 -0.0794
 9579TIP3   OH250227   3.354   0.521   1.076 -0.3307 -0.5180 -0.1099
 9579TIP3    H150228   3.412   0.446   1.090 -0.3916 -0.2748  1.5824
 9579TIP3    H250229   3.319   0.541   1.162  0.9145  2.4698 -0.1828
 9580TIP3   OH250230   5.847   2.560  12.357 -0.1416  0.1171 -0.4300
 9580TIP3    H150231   5.773   2.565  12.297  0.6485  0.4147 -1.4033
 9580TIP3    H250232   5.874   2.468  12.353 -0.0066  0.1667 -0.6170
 9581TIP3   OH250233   4.606   1.646  15.561  0.2763  0.0408 -0.2797
 9581TIP3    H150234   4.575   1.676  15.646  1.0954 -1.0751  0.4382
 9581TIP3    H250235   4.536   1.671  15.500 -0.8559 -0.1661  0.8846
 9582TIP3   OH250236   1.856   6.492   5.061  0.0177 -0.1849 -0.1132
 9582TIP3    H150237   1.893   6.432   4.997  1.5804 -0.7697  1.2766
 9582TIP3    H250238   1.868   6.579   5.023 -0.0362 -0.5810 -1.0530
 9583TIP3   OH250239   2.710   2.148  16.795  0.7293 -0.3682  0.3194
 9583TIP3    H150240   2.709   2.102  16.712 -0.0150 -1.8379  1.0956
 9583TIP3    H250241   2.624   2.129  16.834  0.8681  0.6930  1.2009
 9584TIP3   OH250242   4.154   4.534  16.028  0.5965 -0.0774  0.8989
 9584TIP3    H150243   4.084   4.469  16.031  0.1805  0.1378 -1.7403
 9584TIP3    H250244   4.109   4.617  16.044  0.5703 -0.1126  1.0131
 9585TIP3   OH250245   3.282   4.164   0.095 -0.6200  0.4975 -0.0049
 9585TIP3    H150246   3.356   4.108   0.117 -0.5437  0.6390  0.0994
 9585TIP3    H250247   3.229   4.111   0.035 -1.4733 -0.3716  1.4537
 9586TIP3   OH250248   0.745   0.040   2.998  0.1567  0.2863 -1.2397
 9586TIP3    H150249   0.729   0.132   2.978 -0.5084  1.2428  2.8113
 9586TIP3    H250250   0.658  -0.001   2.998  0.4174 -0.3316 -2.7124
 9587TIP3   OH250251   3.317   3.153  13.982  0.3573  0.0666  0.0835
 9587TIP3    H150252   3.252   3.090  14.015 -0.1934  0.8433  0.5257
 9587TIP3    H250253   3.401   3.114  14.005  0.0573 -0.8695 -0.3296
 9588TIP3   OH250254   1.104   4.784  14.163  0.0066  0.0963 -0.0547
 9588TIP3    H150255   1.193   4.804  14.134 -0.9757  0.2168 -3.3837
 9588TIP3    H250256   1.076   4.862  14.211  1.0947  0.7972 -0.5334
 9589TIP3   OH250257   4.838   0.777   4.422 -0.4131 -0.3035 -0.4206
 9589TIP3    H150258   4.892   0.813   4.493  0.2732 -0.0998 -1.0367
 9589TIP3    H250259   4.783   0.712   4.465 -1.5297  1.2957  0.6787
 9590TIP3   OH250260   2.653   6.639   2.419  0.2202  0.4900  0.3188
 9590TIP3    H150261   2.577   6.585   2.398  0.4361  1.4190 -3.7715
 9590TIP3    H250262   2.728   6.580   2.407  0.3483  1.0416 -2.0254
 9591TIP3   OH250263   0.418   2.567  12.596 -0.0679  0.6338  0.4317
 9591TIP3    H150264   0.433   2.639  12.657 -0.6532  1.3206 -0.2048
 9591TIP3    H250265   0.419   2.609  12.509 -0.6672 -0.0794  0.0700
 9592TIP3   OH250266   4.789   4.898  15.736 -0.0546  0.8908 -0.1326
 9592TIP3    H150267   4.839   4.817  15.739 -0.7451  0.4869  1.2248
 9592TIP3    H250268   4.708   4.874  15.691 -0.3576  0.7581  0.4742
 9593TIP3   OH250269   4.878   5.348   3.929  0.0945  0.6936 -0.5477
 9593TIP3    H150270   4.869   5.439   3.956 -2.3837 -0.0522  1.4660
 9593TIP3    H250271   4.798   5.305   3.959  1.2564 -2.2292 -1.2374
 9594TIP3   OH250272   5.077   3.974   5.601  0.0091 -0.2309  0.2854
 9594TIP3    H150273   5.126   4.022   5.668 -1.3165  2.6430 -0.6425
 9594TIP3    H250274   4.987   4.006   5.609 -0.7460 -1.7996 -1.1621
 9595TIP3   OH250275   6.769   5.582  11.666 -0.3088 -0.1900 -0.1561
 9595TIP3    H150276   6.812   5.629  11.737  0.9040  0.3466 -1.2065
 9595TIP3    H250277   6.747   5.650  11.602  0.6462 -0.8974 -1.2870
 9596TIP3   OH250278   3.404   3.515   4.404 -0.4668  0.2257 -0.3060
 9596TIP3    H150279   3.391   3.581   4.335  0.1724  1.3177  0.5901
 9596TIP3    H250280   3.483   3.542   4.449 -1.7725  0.5284  1.9513
 9597TIP3   OH250281   3.359   0.707  10.698 -0.1937 -0.0758  0.5854
 9597TIP3    H150282   3.292   0.701  10.767  0.0575  0.7912  0.9151
 9597TIP3    H250283   3.407   0.624  10.705 -1.3421 -0.8034  0.2105
 9598TIP3   OH250284   4.171   5.031  13.079 -0.6073 -0.0951  0.8232
 9598TIP3    H150285   4.212   5.117  13.065 -2.1580  0.4175 -1.0969
 9598TIP3    H250286   4.245   4.970  13.079  0.3973  1.0467  0.2498
 9599TIP3   OH250287   4.772   0.911   6.068 -0.2321 -0.0117  0.6178
 9599TIP3    H150288   4.677   0.917   6.076 -0.6053 -3.2417 -0.0444
 9599TIP3    H250289   4.802   0.890   6.156 -0.4275 -1.1538  0.4310
 9600TIP3   OH250290   4.190   0.859   6.784  0.0445  0.1850 -0.2545
 9600TIP3    H150291   4.204   0.775   6.829  1.7577  1.2469  1.3629
 9600TIP3    H250292   4.100   0.882   6.805  0.2300 -0.2511  1.1781
 9601TIP3   OH250293   4.012   5.509  13.605  0.0347  0.2884  0.5670
 9601TIP3    H150294   4.026   5.441  13.539 -0.4524  2.1074 -1.5416
 9601TIP3    H250295   3.917   5.519  13.610  0.0490  0.0586  1.7442
 9602TIP3   OH250296   2.679   3.572  11.882  1.0531  0.2475  0.3187
 9602TIP3    H150297   2.731   3.622  11.819  2.3745  1.9753  2.6498
 9602TIP3    H250298   2.739   3.505  11.915  1.0591  0.6908  1.2389
 9603TIP3   OH250299   2.563   3.180   2.508  0.0491  0.2613  0.0943
 9603TIP3    H150300   2.615   3.129   2.570 -0.5042 -2.2233 -1.3300
 9603TIP3    H250301   2.612   3.174   2.426  0.1207  2.3890 -0.0732
 9604TIP3   OH250302   5.173   3.256  16.410 -0.2150 -0.2954 -0.3862
 9604TIP3    H150303   5.142   3.185  16.467  0.7338 -0.8428 -0.5394
 9604TIP3    H250304   5.103   3.322  16.415 -1.1785 -1.2843 -0.3527
 9605TIP3   OH250305   2.775   3.490   4.186 -0.1127 -0.6708 -0.1884
 9605TIP3    H150306   2.824   3.408   4.197 -0.1514 -0.5111  1.4529
 9605TIP3    H250307   2.738   3.507   4.273 -0.0180  1.1385 -0.4687
 9606TIP3   OH250308   2.842   0.715  13.314  0.0559  0.0807 -0.0882
 9606TIP3    H150309   2.797   0.650  13.260  0.5476 -0.4529  0.1421
 9606TIP3    H250310   2.927   0.727  13.272 -0.2839  1.1101 -0.5363
 9607TIP3   OH250311   1.692   4.448  13.676 -0.0252  0.5708 -0.2649
 9607TIP3    H150312   1.762   4.507  13.703 -0.6656  1.2622 -0.1011
 9607TIP3    H250313   1.663   4.407  13.757  0.2961  0.1486 -0.3558
 9608TIP3   OH250314   5.123   5.828   5.758 -0.2689  0.0267  0.1186
 9608TIP3    H150315   5.125   5.737   5.788 -1.0631  0.1785  0.6732
 9608TIP3    H250316   5.206   5.840   5.711  0.2596 -0.7207  0.8199
 9609TIP3   OH250317   6.271   5.259   0.140 -0.1774 -0.6173  0.2009
 9609TIP3    H150318   6.331   5.275   0.212 -0.2518  0.4515  0.0470
 9609TIP3    H250319   6.326   5.228   0.068  0.4695  1.7429 -0.4183
 9610TIP3   OH250320   4.316   0.726   5.582  0.1303  0.1438 -0.2898
 9610TIP3    H150321   4.382   0.711   5.514 -0.2378  0.5385 -0.7485
 9610TIP3    H250322   4.239   0.758   5.534 -0.5964 -0.8782  0.1694
 9611TIP3   OH250323   6.043   0.298  13.199  0.4977 -0.0995  0.2655
 9611TIP3    H150324   6.005   0.254  13.275 -2.5414  0.8123 -0.5990
 9611TIP3    H250325   6.019   0.243  13.124  0.6080  0.6729 -0.3503
 9612TIP3   OH250326   1.446   5.069  12.952 -0.3403 -0.3869  0.7250
 9612TIP3    H150327   1.398   5.001  12.999 -0.6958  0.6943  1.9687
 9612TIP3    H250328   1.463   5.136  13.017 -1.5369  1.5509 -0.8244
 9613TIP3   OH250329   5.617   1.660   1.187  0.1697  0.4258  0.0031
 9613TIP3    H150330   5.606   1.746   1.227  0.6787  0.0571  0.9714
 9613TIP3    H250331   5.656   1.606   1.256  0.7695 -0.3272 -0.8983
 9614TIP3   OH250332   2.112   5.299  16.117  0.1677 -0.3666  0.0479
 9614TIP3    H150333   2.154   5.365  16.062  0.0345 -1.6644 -1.7150
 9614TIP3    H250334   2.048   5.347  16.169 -0.2024  0.8558 -1.4639
 9615TIP3   OH250335   4.930   5.351  15.550  0.3694  0.8838  0.5414
 9615TIP3    H150336   5.012   5.384  15.513  0.1469  2.6181  1.4883
 9615TIP3    H250337   4.870   5.347  15.476  1.1954 -0.1228 -0.1059
 9616TIP3   OH250338   2.200   3.224   3.249  0.1039 -0.5558  0.3579
 9616TIP3    H150339   2.239   3.310   3.260 -1.5219  0.3299 -0.3317
 9616TIP3    H250340   2.149   3.231   3.168 -0.6461 -1.9359  0.6733
 9617TIP3   OH250341   2.886   4.072   5.904  0.4234 -0.3575  0.0249
 9617TIP3    H150342   2.867   4.058   5.997 -1.4632  0.0753 -0.2625
 9617TIP3    H250343   2.848   3.996   5.860  0.7793 -0.2616 -0.4604
 9618TIP3   OH250344   0.549   5.239   3.711  1.0910 -0.1216 -0.0511
 9618TIP3    H150345   0.518   5.329   3.726  0.0885 -0.2115 -1.3595
 9618TIP3    H250346   0.507   5.213   3.629  2.1246 -1.4588 -0.1834
 9619TIP3   OH250347   6.291   6.217   3.111  0.1833 -0.1857  0.7424
 9619TIP3    H150348   6.231   6.175   3.173 -1.4953 -0.3036 -0.8641
 9619TIP3    H250349   6.271   6.177   3.026  5.0131 -2.8698  0.5021
 9620TIP3   OH250350   1.249   3.091  17.164 -0.5657  0.6396  1.0755
 9620TIP3    H150351   1.192   3.131  17.098  1.5714  0.9465 -0.7008
 9620TIP3    H250352   1.191   3.036  17.216 -2.4939  1.0485 -0.5432
 9621TIP3   OH250353   6.645   4.144   0.188 -0.1888  0.1940 -0.2660
 9621TIP3    H150354   6.711   4.204   0.222 -1.1673  1.6255 -0.7709
 9621TIP3    H250355   6.562   4.189   0.202 -0.9547 -0.9633 -0.8544
 9622TIP3   OH250356   6.796   4.235   3.634 -0.1889  0.3433 -0.6425
 9622TIP3    H150357   6.783   4.257   3.726  0.3226  3.0910 -1.1370
 9622TIP3    H250358   6.890   4.246   3.619 -0.1380 -0.8561 -1.3382
 9623TIP3   OH250359   5.287   4.187  14.817 -0.1489 -0.0711  0.0991
 9623TIP3    H150360   5.334   4.192  14.899  0.6439  0.5216 -0.3798
 9623TIP3    H250361   5.250   4.274  14.804  1.4946  0.4896 -1.1770
 9624TIP3   OH250362   0.610   5.481   1.570  0.0043 -0.4502  0.4420
 9624TIP3    H150363   0.642   5.403   1.526 -1.2389  0.2032 -1.8363
 9624TIP3    H250364   0.518   5.462   1.589 -1.3359  1.3801 -3.0762
 9625TIP3   OH250365   3.106   2.403   6.910  0.2836 -0.1375  0.4682
 9625TIP3    H150366   3.077   2.312   6.900  0.6714 -0.0351 -2.5848
 9625TIP3    H250367   3.027   2.451   6.934 -0.3504 -1.0233  0.2023
 9626TIP3   OH250368   0.492   6.288   2.038 -0.2928  0.2334  0.4325
 9626TIP3    H150369   0.406   6.292   1.996 -1.3446 -2.0579  2.1672
 9626TIP3    H250370   0.512   6.380   2.059 -2.0442  0.8851 -0.5013
 9627TIP3   OH250371   2.717   4.584   4.402 -0.3895 -0.6662 -0.1700
 9627TIP3    H150372   2.622   4.573   4.409 -0.6092  0.1181 -1.6458
 9627TIP3    H250373   2.750   4.497   4.380 -0.8892 -0.7211 -0.7119
 9628TIP3   OH250374   5.310   6.404  13.581 -0.1509 -0.4606 -0.2580
 9628TIP3    H150375   5.275   6.494  13.580 -0.6143 -0.4364  3.3540
 9628TIP3    H250376   5.405   6.415  13.579 -0.2086  0.1399 -0.0304
 9629TIP3   OH250377   1.214   0.096  16.403  0.1648 -0.3391  0.2837
 9629TIP3    H150378   1.240   0.003  16.404  0.2102 -0.3264  0.3123
 9629TIP3    H250379   1.142   0.101  16.466  0.1395 -0.3613  0.2567
 9630TIP3   OH250380   2.270   1.387   5.523  0.1426  0.6166  0.3167
 9630TIP3    H150381   2.245   1.336   5.599  0.0056  0.0605 -0.0995
 9630TIP3    H250382   2.351   1.347   5.492 -0.7898 -0.3753 -0.9509
 9631TIP3   OH250383   3.710   2.559   1.414  0.5000  0.2266 -0.6540
 9631TIP3    H150384   3.788   2.613   1.414  0.1007  0.8159 -0.6914
 9631TIP3    H250385   3.642   2.615   1.377 -0.2816  0.2525  0.7371
 9632TIP3   OH250386   4.327   4.602  11.423  0.1779  0.5565 -0.4925
 9632TIP3    H150387   4.361   4.513  11.418 -0.3176  0.3980 -1.1214
 9632TIP3    H250388   4.233   4.592  11.432  0.1719  1.0131  0.0306
 9633TIP3   OH250389   3.522   5.050   0.640  0.0203  0.5252  0.1105
 9633TIP3    H150390   3.556   5.117   0.699  2.3530  0.3845 -0.9559
 9633TIP3    H250391   3.518   5.092   0.554  0.1361 -0.2664 -0.3011
 9634TIP3   OH250392   5.851   3.807  15.241  0.1104 -0.6322 -0.1215
 9634TIP3    H150393   5.823   3.721  15.209  0.1503 -1.1520  1.1759
 9634TIP3    H250394   5.945   3.810  15.223 -0.2475  0.0540 -2.1243
 9635TIP3   OH250395   6.506   5.282  14.226  0.0897 -0.1648 -0.2829
 9635TIP3    H150396   6.497   5.308  14.134 -2.6539  0.1305 -0.0186
 9635TIP3    H250397   6.502   5.186  14.224  2.0455 -0.2621 -0.6012
 9636TIP3   OH250398   5.421   2.316  16.184 -0.1741  0.3831 -0.4477
 9636TIP3    H150399   5.362   2.341  16.255  0.5791  0.1868  0.2659
 9636TIP3    H250400   5.399   2.375  16.112 -3.3431 -1.5780 -1.3319
 9637TIP3   OH250401   5.384   2.350   2.952  0.0557  0.1090  0.5289
 9637TIP3    H150402   5.419   2.297   3.024  2.6389  1.2471  0.2471
 9637TIP3    H250403   5.435   2.323   2.876  1.9707  3.2816  0.4903
 9638TIP3   OH250404   6.379   0.750  16.234  0.6087 -0.2166 -1.0747
 9638TIP3    H150405   6.327   0.679  16.198 -1.8932  1.3644 -0.8427
 9638TIP3    H250406   6.392   0.727  16.326 -0.5671 -0.1867 -0.8916
 9639TIP3   OH250407   2.185   3.213  12.566  0.1997  0.3805  0.0504
 9639TIP3    H150408   2.245   3.286  12.580  1.4759 -0.2897 -1.6097
 9639TIP3    H250409   2.183   3.168  12.650 -1.5061  2.8609  1.4927
 9640TIP3   OH250410   2.636   4.445   3.119  0.0573 -0.2960  0.2510
 9640TIP3    H150411   2.609   4.534   3.143  2.2969  0.6756 -0.6073
 9640TIP3    H250412   2.649   4.449   3.025  1.5497 -1.1372  0.4003
 9641TIP3   OH250413   3.827   3.784  15.075  0.3265 -0.0625 -0.2603
 9641TIP3    H150414   3.733   3.780  15.094 -0.1176 -0.7069 -2.2806
 9641TIP3    H250415   3.832   3.840  14.997  1.7458  0.8057  0.4241
 9642TIP3   OH250416   6.396   1.652   3.403 -0.5884 -0.3555 -0.4189
 9642TIP3    H150417   6.367   1.737   3.436  1.0163  0.4155 -0.8766
 9642TIP3    H250418   6.337   1.589   3.444 -2.8714  1.0799 -1.3509
 9643TIP3   OH250419   2.716   1.399   1.638 -0.6777 -0.3004 -0.1272
 9643TIP3    H150420   2.768   1.404   1.719  1.2478  2.3781 -1.3643
 9643TIP3    H250421   2.725   1.308   1.610  0.4633 -0.7597  1.5508
 9644TIP3   OH250422   6.638   6.040  14.016 -0.0356  0.1594  0.1708
 9644TIP3    H150423   6.552   6.007  14.044 -0.8522  2.9773  1.3342
 9644TIP3    H250424   6.619   6.095  13.940  1.2705 -1.7370 -1.6583
 9645TIP3   OH250425   6.798   6.662  14.057 -0.2840  0.1435 -0.0279
 9645TIP3    H150426   6.868   6.680  13.995 -0.0317 -0.1370  0.1686
 9645TIP3    H250427   6.837   6.600  14.119 -0.1875  1.2083  1.0134
 9646TIP3   OH250428   4.702   4.630  12.156 -0.9875  0.1963 -0.7451
 9646TIP3    H150429   4.715   4.719  12.189 -0.4778 -0.2090  0.1603
 9646TIP3    H250430   4.771   4.618  12.091  0.0265 -0.1457  0.3821
 9647TIP3   OH250431   6.771   5.047  12.623  0.4587  0.1393 -0.7094
 9647TIP3    H150432   6.787   5.118  12.685  1.6034 -0.9005  0.2587
 9647TIP3    H250433   6.705   4.993  12.665  0.1934  0.1930 -1.0571
 9648TIP3   OH250434   1.686   4.874   3.359  0.0993 -0.8963 -0.1808
 9648TIP3    H150435   1.650   4.867   3.448 -1.1815  1.0168 -0.4857
 9648TIP3    H250436   1.744   4.950   3.362  0.0134 -0.7900 -0.9930
 9649TIP3   OH250437   1.725   3.470   3.954  0.1600  0.1092 -0.2230
 9649TIP3    H150438   1.671   3.488   3.877 -0.2736  1.3668  0.3373
 9649TIP3    H250439   1.798   3.531   3.946  1.6255 -1.6584 -1.0344
 9650TIP3   OH250440   4.864   2.637  11.398  0.2431  0.9161  0.2676
 9650TIP3    H150441   4.890   2.545  11.401 -0.8173  0.3745 -2.7414
 9650TIP3    H250442   4.862   2.665  11.489  0.4116 -2.0856  1.3077
 9651TIP3   OH250443   5.362   1.509   6.732 -0.0986 -0.5903 -0.2013
 9651TIP3    H150444   5.319   1.488   6.650 -0.5385 -4.6855  0.8678
 9651TIP3    H250445   5.456   1.501   6.714 -0.1782 -1.0135 -0.4272
 9652TIP3   OH250446   4.295   6.537   3.810 -0.6624 -0.2288  0.0655
 9652TIP3    H150447   4.337   6.462   3.852  1.1984 -0.6635 -2.3167
 9652TIP3    H250448   4.223   6.498   3.759  0.3477 -0.5003 -1.2288
 9653TIP3   OH250449   6.317   2.330   2.349 -0.0558  0.4775 -0.0022
 9653TIP3    H150450   6.405   2.315   2.383 -0.3553 -1.7935 -0.0803
 9653TIP3    H250451   6.261   2.328   2.427 -0.3296 -1.0523 -0.2069
 9654TIP3   OH250452   5.821   2.167  16.806 -0.9636  0.3954  0.0847
 9654TIP3    H150453   5.730   2.183  16.831 -1.4618 -1.1012 -0.6746
 9654TIP3    H250454   5.849   2.249  16.764 -2.5770  0.2842 -1.3350
 9655TIP3   OH250455   0.888   2.909  16.904 -0.4539  0.1691  0.2478
 9655TIP3    H150456   0.933   2.833  16.939  1.2105  0.8163 -0.3999
 9655TIP3    H250457   0.795   2.892  16.921 -0.2328 -2.4189 -0.6685
 9656TIP3   OH250458   0.014   5.571  12.337  0.6214  0.2449  0.1404
 9656TIP3    H150459   0.005   5.598  12.245  0.2619  1.3164  0.4684
 9656TIP3    H250460   0.011   5.476  12.334 -0.5279  0.2748 -0.8590
 9657TIP3   OH250461   3.426   0.943  16.836  0.7058  0.1015  0.1214
 9657TIP3    H150462   3.398   0.985  16.917 -0.3517 -0.8820  0.2922
 9657TIP3    H250463   3.421   0.849  16.854 -1.0488 -0.1898 -1.5244
 9658TIP3   OH250464   4.394   0.632  14.504  0.3546 -0.0960  0.0818
 9658TIP3    H150465   4.330   0.696  14.473 -0.1924  0.4402  2.1286
 9658TIP3    H250466   4.471   0.683  14.527  1.0434 -0.5763 -1.0878
 9659TIP3   OH250467   1.663   6.309   0.993 -0.0243 -0.1485  0.6085
 9659TIP3    H150468   1.665   6.386   1.050 -0.7351 -1.2419  2.1798
 9659TIP3    H250469   1.628   6.239   1.048  0.7515 -1.6497 -0.7155
 9660TIP3   OH250470   5.442   4.110   2.274 -0.3351 -0.2180  0.9772
 9660TIP3    H150471   5.510   4.049   2.303 -0.3923 -0.4190  0.6941
 9660TIP3    H250472   5.433   4.172   2.346  0.0246 -0.2953  1.0901
 9661TIP3   OH250473   3.916   4.123  15.296 -0.2040 -0.1975 -0.1204
 9661TIP3    H150474   3.959   4.198  15.254 -0.4724  0.3592  0.5746
 9661TIP3    H250475   3.942   4.130  15.389 -1.6390  0.0409  0.2762
 9662TIP3   OH250476   2.149   5.129   5.568  0.3446 -0.5591  0.4919
 9662TIP3    H150477   2.116   5.131   5.479 -0.3816  0.2483  0.7625
 9662TIP3    H250478   2.096   5.063   5.612 -0.4397  0.2001  0.7292
 9663TIP3   OH250479   3.497   5.545  17.091 -0.0243  0.5177 -0.3070
 9663TIP3    H150480   3.466   5.545  17.181 -1.8630 -0.3102 -0.8849
 9663TIP3    H250481   3.563   5.475  17.088 -0.7044 -0.1637  0.1751
 9664TIP3   OH250482   5.533   6.719   2.408 -0.3944  0.2208  0.4778
 9664TIP3    H150483   5.598   6.784   2.436  0.8575 -0.3497 -0.9746
 9664TIP3    H250484   5.449   6.761   2.424  0.1513  0.2235  4.4188
 9665TIP3   OH250485   0.919   4.182   3.886  0.1562 -0.2083  0.1955
 9665TIP3    H150486   0.925   4.277   3.888  1.1558 -0.2674  1.5775
 9665TIP3    H250487   0.826   4.163   3.886 -0.0520  0.7619  0.6694
 9666TIP3   OH250488   5.313   2.448  14.371  0.1682 -0.8700  0.0692
 9666TIP3    H150489   5.299   2.360  14.336 -1.8444 -1.1064  1.3106
 9666TIP3    H250490   5.280   2.506  14.302 -0.7256 -1.1843  0.2290
 9667TIP3   OH250491   4.264   5.402  14.802  0.8046  0.1462  0.4819
 9667TIP3    H150492   4.287   5.487  14.763 -0.4529  0.1741 -0.2750
 9667TIP3    H250493   4.215   5.425  14.881 -1.7367  0.2574 -0.9957
 9668TIP3   OH250494   0.729   2.953   1.745 -0.0502 -0.3731 -0.3925
 9668TIP3    H150495   0.813   2.997   1.727 -0.3341  0.7927  0.9812
 9668TIP3    H250496   0.689   3.005   1.815 -2.4157 -0.2576 -1.7184
 9669TIP3   OH250497   5.462   2.120  15.865  0.2006  0.0866  0.3901
 9669TIP3    H150498   5.541   2.137  15.813  0.8286  0.3169  1.3977
 9669TIP3    H250499   5.493   2.068  15.939 -1.0881 -2.4360 -0.7184
 9670TIP3   OH250500   4.543   2.459  10.701  0.4329 -0.1326 -0.5250
 9670TIP3    H150501   4.593   2.520  10.646 -0.0905 -0.1325 -1.0105
 9670TIP3    H250502   4.465   2.509  10.727  0.7615 -0.0698  0.3801
 9671TIP3   OH250503   3.553   4.351   1.803 -0.7930  0.6910  0.8145
 9671TIP3    H150504   3.550   4.444   1.824 -1.5336  0.3490  2.4358
 9671TIP3    H250505   3.602   4.345   1.721 -0.8098  2.5005  0.6500
 9672TIP3   OH250506   6.716   4.630   5.479 -0.2862  0.5695  0.0633
 9672TIP3    H150507   6.631   4.650   5.440 -0.0115  1.1490 -0.2546
 9672TIP3    H250508   6.700   4.554   5.535 -0.5898 -0.5898 -1.5415
 9673TIP3   OH250509   2.617   5.160   2.856 -0.0739  0.6162 -0.1069
 9673TIP3    H150510   2.573   5.084   2.895  2.6569 -1.0411  0.0086
 9673TIP3    H250511   2.650   5.210   2.930  1.8455 -0.4890 -0.1567
 9674TIP3   OH250512   5.630   5.884  16.949 -0.0046 -0.0629  0.4249
 9674TIP3    H150513   5.596   5.860  17.035  0.6999 -0.9281  0.4717
 9674TIP3    H250514   5.591   5.970  16.931 -1.2782 -0.5092  0.9668
 9675TIP3   OH250515   0.246   0.470  12.828 -0.0874  0.0547 -0.2962
 9675TIP3    H150516   0.163   0.428  12.849 -0.3285  0.9719  0.6178
 9675TIP3    H250517   0.223   0.542  12.769 -0.0816  0.9637  0.7906
 9676TIP3   OH250518   5.967   5.906   1.799  0.2018  0.1216 -0.0568
 9676TIP3    H150519   5.978   5.877   1.890 -2.7484 -0.1153  0.3303
 9676TIP3    H250520   5.962   6.001   1.805 -1.8811  0.0395  0.3848
 9677TIP3   OH250521   4.390   3.422  14.586  0.2934  0.5310  0.1055
 9677TIP3    H150522   4.370   3.399  14.495  0.1520  2.4539 -0.4039
 9677TIP3    H250523   4.452   3.495  14.579  0.7314  0.3339  1.5774
 9678TIP3   OH250524   3.758   0.888  12.353 -0.4216  0.0875  0.6336
 9678TIP3    H150525   3.693   0.871  12.421 -1.3374  1.4006  0.1135
 9678TIP3    H250526   3.750   0.814  12.293 -1.2986  0.1375  0.6829
 9679TIP3   OH250527   0.364   1.886   0.770 -0.1767  0.7169  0.9449
 9679TIP3    H150528   0.371   1.802   0.816 -0.6113  0.3133  0.2986
 9679TIP3    H250529   0.303   1.868   0.698 -0.4559  1.6510  0.9395
 9680TIP3   OH250530   1.003   0.363  17.064 -0.2249 -0.0050 -0.0153
 9680TIP3    H150531   0.950   0.384  16.987  0.2449  0.6721 -0.1732
 9680TIP3    H250532   1.073   0.308  17.031  1.9453  2.9510 -0.8228
 9681TIP3   OH250533   6.303   2.846  14.098  0.2039  0.4199  0.5292
 9681TIP3    H150534   6.270   2.868  14.184  1.1482 -0.3508  1.1131
 9681TIP3    H250535   6.371   2.780  14.114  0.1278 -0.0315 -0.8271
 9682TIP3   OH250536   3.407   1.949   1.907  0.1364  0.3756  0.2656
 9682TIP3    H150537   3.384   2.018   1.969 -2.7352 -2.1322  2.3354
 9682TIP3    H250538   3.355   1.967   1.829 -0.1921  0.8593  0.5928
 9683TIP3   OH250539   4.232   5.813   0.819  0.3016 -0.3886  0.1824
 9683TIP3    H150540   4.296   5.846   0.756  0.1536 -0.3810  0.0359
 9683TIP3    H250541   4.250   5.862   0.899  0.9486 -0.8981  0.3558
 9684TIP3   OH250542   5.614   6.440  14.016 -0.2250 -0.3413 -0.2271
 9684TIP3    H150543   5.606   6.448  13.921  0.1598  0.7943 -0.1880
 9684TIP3    H250544   5.707   6.457  14.033 -0.3807 -0.0925  0.3872
 9685TIP3   OH250545   5.298   1.783  14.204 -0.2125  0.2326 -0.0427
 9685TIP3    H150546   5.374   1.840  14.219 -0.2414 -0.0936  1.6080
 9685TIP3    H250547   5.317   1.705  14.256 -1.2375 -0.2600 -0.3927
 9686TIP3   OH250548   5.520   2.384  12.454  0.2968  0.0948  0.1332
 9686TIP3    H150549   5.575   2.462  12.449  1.9788 -1.1107 -2.0438
 9686TIP3    H250550   5.432   2.417  12.472  1.3487  2.2501  1.7910
 9687TIP3   OH250551   5.885   6.630   4.095 -0.5739 -0.2172  0.4830
 9687TIP3    H150552   5.793   6.605   4.100 -0.3391 -1.5027 -0.6779
 9687TIP3    H250553   5.923   6.565   4.035 -0.2098  3.8887 -4.3746
 9688TIP3   OH250554   4.716   1.834  13.988 -0.6568  0.0796 -0.4372
 9688TIP3    H150555   4.622   1.818  13.981 -0.7441  0.1308  0.5445
 9688TIP3    H250556   4.756   1.747  13.976 -0.9158 -0.2116  0.7402
 9689TIP3   OH250557   4.528   1.097  12.618 -0.3046 -0.3913 -0.3279
 9689TIP3    H150558   4.532   1.159  12.545 -0.7406  0.5034  0.3902
 9689TIP3    H250559   4.609   1.112  12.667 -0.1445 -0.7965 -0.4584
 9690TIP3   OH250560   0.942   6.681   2.920  0.0133 -0.4695 -0.0634
 9690TIP3    H150561   0.886   6.753   2.952 -0.7980 -0.3642 -1.6179
 9690TIP3    H250562   0.885   6.604   2.924  0.2210 -0.6341 -0.3017
 9691TIP3   OH250563   0.751   4.133  11.438 -0.1519 -0.3279 -0.3248
 9691TIP3    H150564   0.704   4.050  11.440 -2.5335  0.9205  0.1125
 9691TIP3    H250565   0.832   4.114  11.391 -1.4853 -2.4588 -1.9635
 9692TIP3   OH250566   4.245   3.227  14.985  0.2312  0.3328 -0.7135
 9692TIP3    H150567   4.181   3.292  15.015 -0.3329 -1.1482  1.5508
 9692TIP3    H250568   4.311   3.225  15.054  1.1381 -0.2915 -1.5793
 9693TIP3   OH250569   2.636   2.069  11.862  0.0556  0.2622  1.0304
 9693TIP3    H150570   2.638   1.980  11.827  0.1497  0.9935 -0.9670
 9693TIP3    H250571   2.647   2.058  11.956 -0.9175 -1.8870  0.9442
 9694TIP3   OH250572   4.943   1.985  16.954 -1.0489 -0.1128 -0.2626
 9694TIP3    H150573   4.900   2.071  16.962 -1.0137 -0.2379  1.8063
 9694TIP3    H250574   5.016   1.989  17.016  1.3088 -0.3451 -2.8119
 9695TIP3   OH250575   0.821   5.916   0.601 -0.3264 -0.3092 -0.1025
 9695TIP3    H150576   0.915   5.925   0.582 -0.7605  0.4226 -2.1555
 9695TIP3    H250577   0.798   5.831   0.565 -0.7031  0.0857 -0.8082
 9696TIP3   OH250578   1.182   2.116   3.841  0.9343 -0.4692 -0.0550
 9696TIP3    H150579   1.259   2.062   3.862  0.0654 -1.2897  1.1798
 9696TIP3    H250580   1.164   2.164   3.922 -0.1469 -0.6894 -0.1486
 9697TIP3   OH250581   4.027   1.212  13.322 -0.5389 -0.2138  0.2047
 9697TIP3    H150582   3.942   1.239  13.287 -1.2962 -0.7539  1.5327
 9697TIP3    H250583   4.048   1.132  13.274 -0.2706  0.4660 -0.8415
 9698TIP3   OH250584   6.764   5.254  15.607  0.0293  0.5290 -0.4310
 9698TIP3    H150585   6.756   5.349  15.620 -0.2674  0.3163  1.2865
 9698TIP3    H250586   6.697   5.217  15.664  1.6165 -0.7646  0.6795
 9699TIP3   OH250587   3.534   4.170  15.454 -0.1895 -0.0463 -0.2159
 9699TIP3    H150588   3.465   4.194  15.392 -0.1118  0.1881 -0.2136
 9699TIP3    H250589   3.564   4.254  15.489  1.8377  0.0958 -2.0593
 9700TIP3   OH250590   1.836   3.122  13.838  0.2107 -0.1581 -0.1351
 9700TIP3    H150591   1.854   3.198  13.893 -1.5259 -0.3682  0.7871
 9700TIP3    H250592   1.769   3.073  13.885  0.7093 -1.8569 -1.0998
 9701TIP3   OH250593   6.234   3.486  13.543 -0.9710 -0.0763 -0.0074
 9701TIP3    H150594   6.222   3.569  13.497  0.5363  0.0013 -0.3029
 9701TIP3    H250595   6.230   3.509  13.636  0.0720  0.4545 -0.0777
 9702TIP3   OH250596   5.405   4.786   1.611 -0.0767  0.2865  0.0844
 9702TIP3    H150597   5.393   4.770   1.517  0.4866  0.6534 -0.0549
 9702TIP3    H250598   5.326   4.749   1.651 -0.2717  0.0190 -0.5187
 9703TIP3   OH250599   0.016   3.883  10.743 -0.1013 -0.4756  0.6192
 9703TIP3    H150600   0.075   3.854  10.673 -0.7710 -1.0835  0.2841
 9703TIP3    H250601   0.054   3.965  10.775 -0.4085  0.4331 -1.2399
 9704TIP3   OH250602   2.463   3.310   0.710 -0.2597  0.2806 -0.4398
 9704TIP3    H150603   2.471   3.244   0.641 -1.1320  0.5269 -0.8022
 9704TIP3    H250604   2.384   3.284   0.758  0.7915 -0.3529  0.9962
 9705TIP3   OH250605   1.474   1.679   0.872 -0.1752  0.1474  0.0938
 9705TIP3    H150606   1.392   1.633   0.891 -0.6343  0.7213 -0.5016
 9705TIP3    H250607   1.514   1.692   0.959 -0.4442 -0.6078  0.3413
 9706TIP3   OH250608   5.583   0.133   4.651 -0.4793 -0.1853  0.4018
 9706TIP3    H150609   5.607   0.103   4.563  2.1523  1.6750  0.3653
 9706TIP3    H250610   5.667   0.144   4.696 -1.4104  3.5987  1.5351
 9707TIP3   OH250611   0.768   3.036  13.620 -0.9095  0.4647 -0.3094
 9707TIP3    H150612   0.710   3.034  13.697  1.5394  2.3410  1.7505
 9707TIP3    H250613   0.825   2.960  13.631 -1.3249  0.0476 -0.9724
 9708TIP3   OH250614   3.956   3.687  14.751  0.0975 -0.5310  0.2123
 9708TIP3    H150615   3.977   3.780  14.763 -0.9879  0.0345 -1.7197
 9708TIP3    H250616   4.038   3.641  14.767  1.3087  1.0108 -1.1999
 9709TIP3   OH250617   6.005   3.918  14.501 -0.5148 -0.6087 -0.7846
 9709TIP3    H150618   6.050   3.838  14.472 -0.0609 -0.5940 -0.1556
 9709TIP3    H250619   6.074   3.971  14.540 -1.2606 -1.2269  1.5763
 9710TIP3   OH250620   0.366   6.761   5.423 -0.0505  0.2349 -0.0886
 9710TIP3    H150621   0.381   6.703   5.498 -0.5269 -0.4571 -0.5077
 9710TIP3    H250622   0.272   6.755   5.406 -0.2311  1.6825  0.2748
 9711TIP3   OH250623   5.682   0.293   6.830 -0.4308 -0.2793  0.0579
 9711TIP3    H150624   5.685   0.210   6.878  0.5825 -1.2727 -1.6286
 9711TIP3    H250625   5.773   0.311   6.807 -0.8875  0.1069 -1.5445
 9712TIP3   OH250626   3.950   0.615  16.935  0.1721 -0.2745 -0.4961
 9712TIP3    H150627   3.962   0.679  17.005  2.4447 -0.2382 -0.8513
 9712TIP3    H250628   3.959   0.530  16.979 -0.5336 -0.3248 -0.4243
 9713TIP3   OH250629   1.441   5.788  16.833 -0.5989  0.6161  0.0708
 9713TIP3    H150630   1.491   5.728  16.778 -0.7446  0.1371  0.4518
 9713TIP3    H250631   1.506   5.825  16.893 -0.8639 -1.0168  1.4677
 9714TIP3   OH250632   4.112   2.778  12.330 -0.1897 -0.2426 -0.8061
 9714TIP3    H150633   4.038   2.717  12.325 -0.0720 -0.7214  1.8954
 9714TIP3    H250634   4.074   2.863  12.305 -1.1410 -0.8495 -1.4986
 9715TIP3   OH250635   4.740   0.791   0.809 -0.0186 -0.2413 -0.1859
 9715TIP3    H150636   4.800   0.865   0.800 -0.2924 -0.1443 -1.3935
 9715TIP3    H250637   4.744   0.768   0.902  1.2109  0.3254 -0.0781
 9716TIP3   OH250638   1.238   6.790   4.459  0.3072  0.1702  0.1759
 9716TIP3    H150639   1.198   6.706   4.482 -1.1125  0.6693 -0.3760
 9716TIP3    H250640   1.331   6.778   4.478  0.1639 -1.5830 -0.0536
 9717TIP3   OH250641   5.806   1.268   4.191  0.7606  0.5998 -0.3462
 9717TIP3    H150642   5.729   1.213   4.207  1.0742  0.5143  1.0514
 9717TIP3    H250643   5.873   1.233   4.249  1.3715  1.6467 -0.3851
 9718TIP3   OH250644   1.730   2.517   2.501  0.0767  0.4053  0.2467
 9718TIP3    H150645   1.731   2.610   2.520  0.2325  0.4724 -0.0772
 9718TIP3    H250646   1.643   2.501   2.463  1.6400  1.4259 -4.4439
 9719TIP3   OH250647   0.363   2.090  17.023  0.0737  0.0371 -0.2119
 9719TIP3    H150648   0.433   2.115  16.962 -0.3973  1.1883 -0.2987
 9719TIP3    H250649   0.368   2.154  17.094 -1.7354  0.9795 -0.8773
 9720TIP3   OH250650   5.905   4.561   1.494  0.4002  0.2586 -0.5521
 9720TIP3    H150651   5.860   4.612   1.561 -1.3183 -1.1883 -0.5624
 9720TIP3    H250652   5.998   4.569   1.517 -0.1772 -1.5300  3.0299
 9721TIP3   OH250653   3.821   5.277   2.471 -0.2368 -0.1171  0.1483
 9721TIP3    H150654   3.778   5.253   2.553  0.4462 -1.5204  0.1258
 9721TIP3    H250655   3.751   5.276   2.406 -0.8072  1.1309  0.7112
 9722TIP3   OH250656   0.246   3.958  14.114 -0.3829 -0.0931 -0.2370
 9722TIP3    H150657   0.315   3.950  14.180 -0.2310  0.4554 -0.3227
 9722TIP3    H250658   0.290   3.937  14.031 -0.9945 -2.6410  0.0101
 9723TIP3   OH250659   1.154   0.134   2.921  0.2742  0.4445  0.0295
 9723TIP3    H150660   1.220   0.083   2.874 -1.9321 -2.2928 -0.3095
 9723TIP3    H250661   1.093   0.162   2.853  0.1018  1.4253  0.5717
 9724TIP3   OH250662   0.072   3.456   1.572 -0.5809  0.4585 -0.0618
 9724TIP3    H150663   0.107   3.463   1.483 -1.5317  0.5461 -0.4448
 9724TIP3    H250664   0.148   3.469   1.629  0.1607 -0.2754 -0.8621
 9725TIP3   OH250665   5.173   2.113   1.356  0.5093  0.1294 -0.1907
 9725TIP3    H150666   5.103   2.153   1.408  1.3810  1.5224 -0.0317
 9725TIP3    H250667   5.129   2.078   1.279 -0.3292  1.3697 -0.3126
 9726TIP3   OH250668   2.793   3.509   0.157 -0.0954 -0.2060  0.0471
 9726TIP3    H150669   2.719   3.568   0.173  0.4115  0.3708  0.3426
 9726TIP3    H250670   2.795   3.452   0.234  0.3147  0.3875  0.4952
 9727TIP3   OH250671   0.485   6.463   4.186 -0.2153  0.4509 -0.2981
 9727TIP3    H150672   0.410   6.483   4.243  0.1052  1.9597 -0.3565
 9727TIP3    H250673   0.561   6.493   4.236  0.5723 -2.4337  0.4162
 9728TIP3   OH250674   4.929   5.769  15.832  0.8559 -0.4205 -0.4465
 9728TIP3    H150675   5.009   5.759  15.884  0.4782  0.4760  0.3163
 9728TIP3    H250676   4.934   5.857  15.796 -0.2667  0.0185  0.4276
 9729TIP3   OH250677   3.022   5.879  11.590  0.0022 -0.0716 -0.1371
 9729TIP3    H150678   2.969   5.835  11.656  1.3263  0.3479  1.2717
 9729TIP3    H250679   3.011   5.827  11.511  1.1268 -2.7063  1.3130
 9730TIP3   OH250680   1.129   5.927   1.879 -0.1095 -0.1977  0.1867
 9730TIP3    H150681   1.120   5.909   1.785 -0.1408 -0.0648  0.1645
 9730TIP3    H250682   1.154   5.843   1.917 -2.6370 -0.9264  0.4382
 9731TIP3   OH250683   6.142   1.004   5.562 -0.3686 -0.0819 -0.0053
 9731TIP3    H150684   6.104   1.073   5.616  0.9868  0.3902  0.4017
 9731TIP3    H250685   6.184   0.944   5.625  1.6288  0.7180 -0.4952
 9732TIP3   OH250686   2.985   0.604  15.619 -0.1414 -0.2305 -0.1033
 9732TIP3    H150687   2.912   0.546  15.598 -0.4898  0.3305 -0.4843
 9732TIP3    H250688   2.967   0.633  15.709 -1.4976  1.4704 -0.8595
 9733TIP3   OH250689   1.459   6.001  13.369 -0.2887  0.4949  0.0106
 9733TIP3    H150690   1.487   5.909  13.360 -0.9135  0.3768 -0.8472
 9733TIP3    H250691   1.375   6.005  13.323 -0.2187  1.5189 -0.0460
 9734TIP3   OH250692   5.484   5.366  13.453  0.4772  0.6299 -0.2037
 9734TIP3    H150693   5.397   5.343  13.486  0.7588  1.5844  1.3097
 9734TIP3    H250694   5.469   5.445  13.401  0.5355  1.3431  0.8276
 9735TIP3   OH250695   3.366   4.269  11.210  0.2239 -0.3313  0.4398
 9735TIP3    H150696   3.307   4.295  11.140 -1.9178 -0.8600  1.9550
 9735TIP3    H250697   3.410   4.350  11.236  0.5022 -0.0028 -0.9931
 9736TIP3   OH250698   4.633   0.284   2.994  0.2444  0.3990 -0.4610
 9736TIP3    H150699   4.666   0.196   3.010  0.3867  0.3820 -0.8422
 9736TIP3    H250700   4.709   0.341   3.003 -0.5031  1.0493  4.0598
 9737TIP3   OH250701   2.171   6.419  12.975 -0.6871 -0.6697 -0.3642
 9737TIP3    H150702   2.239   6.357  12.947  0.7214 -0.4118  2.1753
 9737TIP3    H250703   2.109   6.366  13.024 -1.3522 -0.5984 -1.1147
 9738TIP3   OH250704   0.637   3.096   1.943 -0.0941 -0.0831 -0.2542
 9738TIP3    H150705   0.580   3.043   1.999 -1.4421  2.5922  1.1052
 9738TIP3    H250706   0.705   3.129   2.002  0.7031 -0.2321 -1.0604
 9739TIP3   OH250707   2.895   4.617  10.672 -0.3501 -0.0430 -0.2735
 9739TIP3    H150708   2.809   4.578  10.686 -0.6895  1.0908  1.0421
 9739TIP3    H250709   2.876   4.710  10.655  0.6567  0.6320  1.9107
 9740TIP3   OH250710   0.207   5.324   2.873 -0.0263  0.2277  0.1547
 9740TIP3    H150711   0.126   5.282   2.845 -0.3885  0.3747  0.9428
 9740TIP3    H250712   0.228   5.282   2.956  1.6091 -0.9583 -0.8256
 9741TIP3   OH250713   0.535   4.003  13.751 -0.0914  0.0669  0.3502
 9741TIP3    H150714   0.572   3.977  13.667  2.0027 -3.1662  2.0391
 9741TIP3    H250715   0.595   4.070  13.784  0.1404  0.0317  0.0037
 9742TIP3   OH250716   1.140   6.397  14.686  0.2107 -1.1519 -0.2451
 9742TIP3    H150717   1.065   6.340  14.670 -1.0020  0.7315 -1.8198
 9742TIP3    H250718   1.210   6.361  14.632 -0.6101 -1.0352 -1.4227
 9743TIP3   OH250719   0.553   2.235  15.306 -0.0965  0.1223  0.6661
 9743TIP3    H150720   0.564   2.278  15.221  3.5677  0.9436  1.3515
 9743TIP3    H250721   0.469   2.265  15.338 -0.4955  1.7058 -1.6382
 9744TIP3   OH250722   3.769   3.769  13.474 -0.2757  0.6574  0.3310
 9744TIP3    H150723   3.808   3.836  13.418  2.1907  0.9637  2.2695
 9744TIP3    H250724   3.840   3.741  13.532 -1.5776 -2.6307  0.5774
 9745TIP3   OH250725   4.253   2.574   5.080  0.5864  0.1508  0.0986
 9745TIP3    H150726   4.239   2.577   4.985  0.0558  0.8045  0.1899
 9745TIP3    H250727   4.261   2.666   5.105  1.2797 -0.0494  0.6086
 9746TIP3   OH250728   0.445   4.161  10.969 -0.2380  0.1668  0.6389
 9746TIP3    H150729   0.372   4.222  10.969 -1.2449 -0.9635 -0.9686
 9746TIP3    H250730   0.523   4.216  10.966 -1.0648  1.3780  0.8943
 9747TIP3   OH250731   1.597   5.818  14.674 -0.7022 -0.3567 -0.2675
 9747TIP3    H150732   1.585   5.888  14.609  0.4721  0.3736  0.2652
 9747TIP3    H250733   1.542   5.845  14.748 -1.2372 -0.6613 -0.5466
 9748TIP3   OH250734   2.137   1.319   2.047 -0.3108 -0.6527 -0.2613
 9748TIP3    H150735   2.042   1.310   2.048 -0.2104 -1.8289 -0.1696
 9748TIP3    H250736   2.152   1.412   2.063 -1.4197 -0.6313  0.7955
 9749TIP3   OH250737   1.271   0.140   0.758  0.0016  0.1449  0.7370
 9749TIP3    H150738   1.281   0.216   0.815  1.0384  1.1627 -0.7056
 9749TIP3    H250739   1.277   0.176   0.669 -1.3126 -1.4010 -0.0290
 9750TIP3   OH250740   1.104   5.167  15.231  0.0886  0.1630 -0.3029
 9750TIP3    H150741   1.075   5.093  15.177  0.1683 -0.1071  0.0273
 9750TIP3    H250742   1.153   5.127  15.303  1.2103  0.6081 -0.8018
 9751TIP3   OH250743   2.931   2.384  12.107 -0.4438 -0.3128  0.4797
 9751TIP3    H150744   2.935   2.322  12.034  0.7505 -1.2807  1.3394
 9751TIP3    H250745   2.974   2.463  12.073 -1.1767 -0.2359 -0.3186
 9752TIP3   OH250746   4.819   4.711  16.237  0.3107  0.4869 -0.2178
 9752TIP3    H150747   4.750   4.665  16.283  0.4912 -0.0797 -0.4983
 9752TIP3    H250748   4.869   4.642  16.194  1.5419  0.8002  0.6388
 9753TIP3   OH250749   3.428   2.411  15.041  0.0432  0.2919  0.2964
 9753TIP3    H150750   3.360   2.364  14.993 -0.2731 -1.1546  2.0511
 9753TIP3    H250751   3.507   2.398  14.989 -0.1541 -1.7653  0.4512
 9754TIP3   OH250752   2.436   2.843  15.497  0.2260 -0.0658  0.1251
 9754TIP3    H150753   2.458   2.757  15.461  2.1256  0.4518 -0.0811
 9754TIP3    H250754   2.343   2.838  15.518 -0.1884 -1.4795 -1.8102
 9755TIP3   OH250755   5.472   1.500  16.006 -0.3317  0.0641 -0.2011
 9755TIP3    H150756   5.430   1.548  16.078 -1.3558 -0.1784 -0.6167
 9755TIP3    H250757   5.461   1.407  16.030  2.6267 -0.0624  1.1689
 9756TIP3   OH250758   6.728   5.557   4.432  0.5827 -0.3810 -0.2945
 9756TIP3    H150759   6.776   5.482   4.466  2.0414  0.3776 -0.5714
 9756TIP3    H250760   6.789   5.599   4.371 -0.7520  0.1611 -1.3188
 9757TIP3   OH250761   4.810   5.819   6.498 -0.8876 -0.2773  0.6409
 9757TIP3    H150762   4.776   5.743   6.451  0.4444 -0.8127  0.5104
 9757TIP3    H250763   4.826   5.884   6.429  1.5001 -1.2233  0.2145
 9758TIP3   OH250764   6.795   2.730   6.534  0.1646 -0.3426 -0.8958
 9758TIP3    H150765   6.785   2.717   6.440  0.9302 -0.6171 -0.9482
 9758TIP3    H250766   6.890   2.739   6.547 -0.0320  1.0753 -0.3255
 9759TIP3   OH250767   3.053   3.522  17.196 -0.1235 -0.6788  0.2259
 9759TIP3    H150768   3.115   3.449  17.187  1.0080  0.1511  1.0086
 9759TIP3    H250769   3.101   3.599  17.165 -0.8560 -0.0564  0.5981
 9760TIP3   OH250770   0.991   1.417   2.271 -0.1198  0.1622  0.1993
 9760TIP3    H150771   0.914   1.372   2.235  0.8444 -0.3872 -1.2413
 9760TIP3    H250772   1.014   1.365   2.349 -0.8902  0.0367  0.3529
 9761TIP3   OH250773   5.052   1.221   0.916 -0.4885  0.0381  0.5427
 9761TIP3    H150774   4.976   1.275   0.936 -0.1679  1.0616 -0.8170
 9761TIP3    H250775   5.065   1.232   0.822  0.9623 -0.6252  0.6353
 9762TIP3   OH250776   5.910   4.935  11.299 -0.1612  0.0023 -0.3031
 9762TIP3    H150777   5.895   4.963  11.389 -0.5731  0.7899 -0.6114
 9762TIP3    H250778   5.890   4.841  11.300 -2.1785  0.3776  0.0007
 9763TIP3   OH250779   2.122   5.882  11.728  0.4820  0.0319 -0.5915
 9763TIP3    H150780   2.151   5.919  11.645  1.0616 -1.4463 -1.0707
 9763TIP3    H250781   2.202   5.881  11.782  0.3769 -0.1352 -0.4398
 9764TIP3   OH250782   3.999   3.093  14.584  0.0907 -0.2569  0.3197
 9764TIP3    H150783   3.933   3.051  14.639 -0.9948  1.1763  0.1699
 9764TIP3    H250784   4.033   3.164  14.637  1.4373 -0.8823  0.3317
 9765TIP3   OH250785   1.847   0.706  15.711 -0.4720 -0.2145 -0.0149
 9765TIP3    H150786   1.902   0.762  15.765 -1.5595 -0.2017  1.1304
 9765TIP3    H250787   1.806   0.766  15.649 -1.9581  0.4003  1.4766
 9766TIP3   OH250788   0.043   4.898   5.978  0.0455  0.7156  0.2306
 9766TIP3    H150789   0.041   4.839   5.903  1.0299  1.8011 -0.6854
 9766TIP3    H250790   0.107   4.858   6.037 -0.1851  0.2440  0.1692
 9767TIP3   OH250791   0.279   4.242   6.085  0.0309  0.1626 -0.4665
 9767TIP3    H150792   0.345   4.224   6.151 -0.9008 -2.9428 -0.2363
 9767TIP3    H250793   0.203   4.273   6.136 -0.0640 -0.3803 -0.2729
 9768TIP3   OH250794   1.460   3.232  13.009 -0.1450 -0.7401  0.1184
 9768TIP3    H150795   1.385   3.177  13.031 -1.7126  1.7792  1.5582
 9768TIP3    H250796   1.525   3.213  13.076  0.0043 -1.9108 -0.3229
 9769TIP3   OH250797   0.723   1.312   2.148 -0.1627  0.0409  0.3796
 9769TIP3    H150798   0.666   1.358   2.087  0.6249  1.2222  0.4820
 9769TIP3    H250799   0.702   1.350   2.233  1.2920  1.1142  0.3139
 9770TIP3   OH250800   1.726   6.228  12.833 -0.4698 -0.0688 -0.7504
 9770TIP3    H150801   1.653   6.269  12.878 -0.1520  0.6036 -0.8293
 9770TIP3    H250802   1.750   6.291  12.765  0.3894 -0.1368 -0.5166
 9771TIP3   OH250803   2.096   4.709  13.641  0.1445  0.1373  0.7481
 9771TIP3    H150804   2.057   4.737  13.559  0.7304 -1.7160 -0.2003
 9771TIP3    H250805   2.126   4.791  13.682 -0.7857  1.1534 -0.5192
 9772TIP3   OH250806   6.051   4.694   3.952  0.1374  0.2335  0.2326
 9772TIP3    H150807   6.073   4.614   3.905 -1.8627 -0.0751 -0.2852
 9772TIP3    H250808   6.031   4.758   3.884  1.9735  1.3090  0.6341
 9773TIP3   OH250809   3.754   1.693   2.006 -0.4081 -0.2930  0.1008
 9773TIP3    H150810   3.798   1.682   2.091 -2.9241 -0.9836  1.4419
 9773TIP3    H250811   3.822   1.725   1.947  1.2917  1.0208  2.5728
 9774TIP3   OH250812   1.463   2.671   1.895  0.0235  0.2755 -0.2197
 9774TIP3    H150813   1.502   2.758   1.881  2.0419 -0.4935  0.3809
 9774TIP3    H250814   1.373   2.680   1.862  0.2181  2.5502 -0.2802
 9775TIP3   OH250815   0.720   1.351  13.066  0.2728  0.5836  0.1174
 9775TIP3    H150816   0.747   1.319  12.980 -1.2261 -0.7994  0.1069
 9775TIP3    H250817   0.742   1.280  13.127  0.7370  1.2823  0.7842
 9776TIP3   OH250818   3.764   5.881  13.034  0.2895 -0.1078  0.0732
 9776TIP3    H150819   3.702   5.863  13.104 -2.1534  0.4028 -1.8247
 9776TIP3    H250820   3.808   5.797  13.018  0.1767 -0.4589  1.4949
 9777TIP3   OH250821   0.162   6.170   0.647  0.1121 -0.2078  0.1754
 9777TIP3    H150822   0.162   6.265   0.637 -1.4731 -0.2951 -0.9797
 9777TIP3    H250823   0.081   6.150   0.693 -0.5790 -1.1357 -1.3741
 9778TIP3   OH250824   2.517   1.182  11.660  0.0553 -0.2380  0.3536
 9778TIP3    H150825   2.563   1.103  11.689  0.4977 -0.8798 -1.8569
 9778TIP3    H250826   2.425   1.158  11.664 -0.0643  0.4189  3.0604
 9779TIP3   OH250827   0.919   4.817  16.652  0.4691  0.0663 -0.0717
 9779TIP3    H150828   0.901   4.756  16.723 -1.4281  0.0460 -0.5005
 9779TIP3    H250829   1.004   4.790  16.617  0.3476 -1.3887  0.6958
 9780TIP3   OH250830   4.420   4.438  13.727 -0.2795 -0.0698  0.6306
 9780TIP3    H150831   4.339   4.389  13.712  0.6244 -1.2815 -0.5334
 9780TIP3    H250832   4.486   4.389  13.678  0.7968  1.9972 -0.0781
 9781TIP3   OH250833   3.371   0.374  16.148 -0.2069  0.0347  0.2252
 9781TIP3    H150834   3.298   0.313  16.161 -0.6085  0.8094  1.8458
 9781TIP3    H250835   3.359   0.441  16.214  0.8246  1.3352 -0.8341
 9782TIP3   OH250836   3.784   6.275   0.730 -0.3818 -0.1580 -0.0101
 9782TIP3    H150837   3.819   6.339   0.792 -1.7146 -0.8148  1.5142
 9782TIP3    H250838   3.705   6.316   0.695 -0.5751 -0.4811  0.0463
 9783TIP3   OH250839   3.252   1.848  12.137  0.1511  0.2918 -0.1947
 9783TIP3    H150840   3.237   1.865  12.044 -2.2045 -0.3670  0.0015
 9783TIP3    H250841   3.185   1.900  12.182  0.5069 -0.2983  1.0544
 9784TIP3   OH250842   4.888   4.121  14.790  0.1252  0.3351 -0.3509
 9784TIP3    H150843   4.812   4.078  14.829 -0.3413  0.2836 -1.2816
 9784TIP3    H250844   4.918   4.060  14.722  0.9363  0.4065 -0.0700
 9785TIP3   OH250845   5.510   5.372  15.937  0.6928 -0.0480 -0.4832
 9785TIP3    H150846   5.546   5.286  15.955  0.9245  0.2812  0.7240
 9785TIP3    H250847   5.429   5.376  15.988  0.4633  0.2981 -0.8607
 9786TIP3   OH250848   6.163   0.231   4.820  0.4384  0.0331  0.4819
 9786TIP3    H150849   6.231   0.266   4.877 -1.2185  1.7306  1.5255
 9786TIP3    H250850   6.123   0.160   4.871  1.1056 -0.6673  0.0489
 9787TIP3   OH250851   2.668   5.876   5.621  0.6740 -0.3826 -0.4559
 9787TIP3    H150852   2.712   5.823   5.688 -0.9645 -0.6876  0.4387
 9787TIP3    H250853   2.575   5.869   5.642  0.2950  1.6617 -1.2098
 9788TIP3   OH250854   2.322   5.519   0.670  0.1836 -0.1797 -0.4032
 9788TIP3    H150855   2.293   5.451   0.730 -0.9608  0.1507 -0.5435
 9788TIP3    H250856   2.327   5.598   0.724  0.1475 -0.0922 -0.5274
 9789TIP3   OH250857   4.744   5.333  10.998  0.7990 -0.4040 -0.2276
 9789TIP3    H150858   4.806   5.297  10.935 -0.2014 -1.5035 -0.6375
 9789TIP3    H250859   4.699   5.403  10.950  2.8250  1.5827  0.6054
 9790TIP3   OH250860   3.786   1.846   1.064  0.0406  0.0674  0.3694
 9790TIP3    H150861   3.701   1.878   1.095 -0.6910  0.1847 -1.6554
 9790TIP3    H250862   3.766   1.765   1.017  1.3211 -0.9680  1.5043
 9791TIP3   OH250863   4.577   0.804   2.836 -0.5080  0.2164  0.1629
 9791TIP3    H150864   4.553   0.840   2.922 -0.4832 -0.6340  0.5371
 9791TIP3    H250865   4.656   0.852   2.811 -1.6985  1.9938 -0.3916
 9792TIP3   OH250866   0.787   2.814  14.500  0.5019 -0.5025 -0.4418
 9792TIP3    H150867   0.703   2.780  14.531 -0.0211  0.1411 -1.1193
 9792TIP3    H250868   0.792   2.786  14.409  1.1208 -0.7049 -0.3518
 9793TIP3   OH250869   5.715   3.587   4.625 -0.6760 -0.0966  0.3990
 9793TIP3    H150870   5.728   3.493   4.612  1.4731  0.3034 -0.6990
 9793TIP3    H250871   5.733   3.601   4.718  1.9435 -0.4020  0.0172
 9794TIP3   OH250872   5.563   0.595  11.710  0.3487 -0.6424 -0.6292
 9794TIP3    H150873   5.493   0.649  11.745  2.3393  1.0623  0.9790
 9794TIP3    H250874   5.535   0.505  11.727 -1.7153 -0.0660 -0.6897
 9795TIP3   OH250875   0.861   2.010   4.872 -0.3336  0.4981 -0.0783
 9795TIP3    H150876   0.829   1.933   4.826  1.7982 -0.3715 -0.1907
 9795TIP3    H250877   0.785   2.041   4.922 -1.7283 -0.5712 -1.4468
 9796TIP3   OH250878   2.261   2.972   3.372  0.0534 -0.2078 -0.5726
 9796TIP3    H150879   2.250   3.012   3.458 -1.5107  0.0181 -0.8555
 9796TIP3    H250880   2.254   3.046   3.311 -1.2519 -0.6713 -1.0110
 9797TIP3   OH250881   5.533   5.269  13.895 -0.2714 -0.4922  0.6096
 9797TIP3    H150882   5.525   5.218  13.814  1.0691 -0.5546  0.4918
 9797TIP3    H250883   5.530   5.203  13.964  1.3408 -0.7601  0.4627
 9798TIP3   OH250884   4.782   5.514  15.731 -0.5349  0.2051  0.0092
 9798TIP3    H150885   4.841   5.590  15.733 -0.1297 -0.1125  1.5620
 9798TIP3    H250886   4.820   5.457  15.665  0.0932  0.6465 -0.0273
 9799TIP3   OH250887   0.837   1.778  11.681  0.4718 -0.0172 -0.0344
 9799TIP3    H150888   0.744   1.799  11.674  0.0930 -0.2698  3.0071
 9799TIP3    H250889   0.872   1.844  11.741  2.0454 -0.5849 -0.2872
 9800TIP3   OH250890   3.256   3.099   2.901  0.3962  0.4889 -0.0242
 9800TIP3    H150891   3.187   3.139   2.848 -0.6220 -0.4074  0.5708
 9800TIP3    H250892   3.315   3.171   2.922 -0.4639  1.3284 -0.3886
 9801TIP3   OH250893   5.274   0.807   4.700  0.1416  0.2181  0.1304
 9801TIP3    H150894   5.327   0.739   4.741 -0.5189  0.0569  0.7378
 9801TIP3    H250895   5.326   0.887   4.710  0.5850 -0.0599  0.0813
 9802TIP3   OH250896   5.595   4.133  16.936 -0.2101  0.1510 -0.1285
 9802TIP3    H150897   5.574   4.191  17.009  0.1309  0.0983  0.0120
 9802TIP3    H250898   5.598   4.190  16.860  1.8846  0.6413  0.2717
 9803TIP3   OH250899   4.306   5.961  11.900  0.3652 -0.2678 -0.7431
 9803TIP3    H150900   4.256   6.040  11.919  1.7929  0.2982  0.9299
 9803TIP3    H250901   4.294   5.947  11.806  0.2777  2.1035 -1.1440
 9804TIP3   OH250902   0.878   0.256  15.450  0.1904  0.0202 -0.3071
 9804TIP3    H150903   0.887   0.351  15.462  0.8063 -0.1126  0.3939
 9804TIP3    H250904   0.941   0.234  15.382  0.2906  0.0649 -0.2285
 9805TIP3   OH250905   0.110   2.899   5.616 -0.3639 -0.1810  0.3350
 9805TIP3    H150906   0.161   2.962   5.565  0.2477 -2.3435 -1.9980
 9805TIP3    H250907   0.122   2.925   5.707  1.4860  1.8463 -0.4034
 9806TIP3   OH250908   5.293   1.661  12.092 -0.6599 -0.1107  0.3777
 9806TIP3    H150909   5.338   1.576  12.086 -0.9681 -0.2298 -0.3187
 9806TIP3    H250910   5.361   1.726  12.073 -0.5348 -0.2271  0.4212
 9807TIP3   OH250911   6.538   4.292   3.911 -0.0828 -0.0215 -0.0523
 9807TIP3    H150912   6.499   4.292   3.824 -1.2772  2.0426  0.4152
 9807TIP3    H250913   6.465   4.274   3.970  0.1445  1.3354  0.6762
 9808TIP3   OH250914   0.207   6.167  12.200  0.5124 -0.1847 -0.2348
 9808TIP3    H150915   0.220   6.150  12.107 -0.1319 -0.2676 -0.3150
 9808TIP3    H250916   0.281   6.221  12.226  0.0029  0.9501 -1.1000
 9809TIP3   OH250917   6.225   0.470  11.918 -0.0337  0.1117 -0.3330
 9809TIP3    H150918   6.243   0.495  11.827  0.3925  2.7141  0.3946
 9809TIP3    H250919   6.163   0.398  11.911 -0.6622  0.7972 -2.6838
 9810TIP3   OH250920   5.840   1.267  13.027  0.4298 -0.3342  0.6273
 9810TIP3    H150921   5.833   1.324  12.950 -1.8496 -2.1975 -0.6945
 9810TIP3    H250922   5.934   1.251  13.036  0.7602 -0.3203 -2.0058
 9811TIP3   OH250923   4.763   5.310   4.388  0.3281  0.4270  0.0292
 9811TIP3    H150924   4.703   5.381   4.410 -0.0965 -0.0395  0.4225
 9811TIP3    H250925   4.705   5.238   4.360  0.6401 -0.2843  1.1281
 9812TIP3   OH250926   1.578   6.224  12.192 -0.0829  0.1119 -0.1099
 9812TIP3    H150927   1.497   6.191  12.231 -0.8374  0.7033 -1.1216
 9812TIP3    H250928   1.637   6.149  12.194 -0.4788 -0.1940  1.0915
 9813TIP3   OH250929   3.486   1.440  13.435 -0.0141 -0.0618 -0.0528
 9813TIP3    H150930   3.544   1.495  13.381  0.5320 -2.2500 -1.8510
 9813TIP3    H250931   3.411   1.495  13.453  0.8119  1.5141 -1.1730
 9814TIP3   OH250932   3.532   5.521  16.085  0.1582 -0.0974  0.0480
 9814TIP3    H150933   3.470   5.481  16.023 -1.0367  4.0955 -1.8059
 9814TIP3    H250934   3.484   5.522  16.168 -0.6054 -0.5232 -0.3722
 9815TIP3   OH250935   4.187   1.304  16.597 -0.2545 -0.6271  0.1257
 9815TIP3    H150936   4.158   1.327  16.685  1.9445  0.7799  0.5478
 9815TIP3    H250937   4.247   1.230  16.610  1.6085  0.8146  0.1013
 9816TIP3   OH250938   0.122   0.994   6.715  0.1375  0.0120 -0.7258
 9816TIP3    H150939   0.123   1.080   6.757 -1.5639 -0.2887  0.0296
 9816TIP3    H250940   0.033   0.985   6.680  0.8790 -0.6491 -2.5304
 9817TIP3   OH250941   1.748   2.888  10.915  0.3361 -0.0437  0.2609
 9817TIP3    H150942   1.789   2.838  10.844 -0.0482  1.2063 -0.8915
 9817TIP3    H250943   1.708   2.822  10.971  1.5792 -1.1279 -0.0889
 9818TIP3   OH250944   0.667   2.841   2.782  0.3628 -0.4938 -0.0462
 9818TIP3    H150945   0.579   2.832   2.819  0.4879 -1.9750 -0.0266
 9818TIP3    H250946   0.661   2.915   2.722 -2.4788 -3.7166 -4.3599
 9819TIP3   OH250947   3.438   2.380   1.336  0.3661 -0.6170 -0.4415
 9819TIP3    H150948   3.483   2.415   1.413 -0.4068 -0.2299 -0.1630
 9819TIP3    H250949   3.424   2.288   1.357  1.9525 -1.0228 -0.9695
 9820TIP3   OH250950   6.681   2.882   4.941 -0.7769  0.3102  0.0201
 9820TIP3    H150951   6.711   2.797   4.972  0.7172  0.5842 -0.5947
 9820TIP3    H250952   6.704   2.883   4.848  2.3078  2.6024  0.6466
 9821TIP3   OH250953   5.950   3.074  11.576 -0.6367 -0.0754  0.6292
 9821TIP3    H150954   5.885   3.090  11.508 -1.2630 -1.5864  0.8280
 9821TIP3    H250955   5.984   3.161  11.598 -1.1473  0.5402 -0.8839
 9822TIP3   OH250956   0.375   0.085  11.650 -0.4789 -0.0617  0.3966
 9822TIP3    H150957   0.390   0.006  11.703 -0.3459  0.9007  1.8578
 9822TIP3    H250958   0.444   0.084  11.585  1.1369  0.1782  2.0362
 9823TIP3   OH250959   4.994   6.366   1.091 -0.6902 -0.3892  0.3421
 9823TIP3    H150960   5.006   6.387   0.998  2.1574 -2.3740  0.1288
 9823TIP3    H250961   4.985   6.451   1.133  0.6411  0.7359 -1.4842
 9824TIP3   OH250962   2.801   1.828  13.691  0.2280  0.1715 -0.3065
 9824TIP3    H150963   2.895   1.846  13.697  0.0940  0.9716 -0.4643
 9824TIP3    H250964   2.791   1.778  13.610  0.7695 -1.7977  0.7907
 9825TIP3   OH250965   3.852   2.220   4.400 -0.2348 -0.5587  0.1168
 9825TIP3    H150966   3.944   2.198   4.385 -0.3361 -1.0136  0.1726
 9825TIP3    H250967   3.855   2.311   4.431  0.1970 -0.5708  0.1224
 9826TIP3   OH250968   6.292   0.323   4.576 -0.3477 -0.0472  0.0851
 9826TIP3    H150969   6.237   0.296   4.649 -2.1873  1.0544 -0.8327
 9826TIP3    H250970   6.328   0.407   4.604  0.5167 -0.5267  0.4727
 9827TIP3   OH250971   4.752   2.430  12.994  0.3330  0.4961  0.2949
 9827TIP3    H150972   4.808   2.508  12.989  1.6028 -0.2793  1.7245
 9827TIP3    H250973   4.745   2.411  13.087 -1.1666 -0.2783  0.0524
 9828TIP3   OH250974   0.785   2.065  13.189 -0.0260 -0.6578  0.0911
 9828TIP3    H150975   0.726   2.059  13.264  1.2651  0.3956  1.2252
 9828TIP3    H250976   0.731   2.037  13.115 -1.7258 -0.4690  1.1941
 9829TIP3   OH250977   2.805   0.287   0.360  0.2278 -0.1641  0.3363
 9829TIP3    H150978   2.759   0.369   0.344  3.1208  1.4715 -0.2924
 9829TIP3    H250979   2.787   0.234   0.282 -0.0995  0.6743 -0.1703
 9830TIP3   OH250980   3.824   2.649  10.939  0.3955  0.0049 -0.0846
 9830TIP3    H150981   3.809   2.680  10.850 -1.4228  0.4657  0.3486
 9830TIP3    H250982   3.831   2.729  10.992 -0.9466 -0.2673  0.5323
 9831TIP3   OH250983   4.670   2.609   2.157  0.1046  0.0042  0.2135
 9831TIP3    H150984   4.751   2.643   2.195  0.5201 -1.2891  0.5550
 9831TIP3    H250985   4.633   2.553   2.225 -0.1566 -0.7987 -0.5634
 9832TIP3   OH250986   5.555   3.692   3.100  0.1028  0.4466  0.4718
 9832TIP3    H150987   5.590   3.642   3.026 -0.0167  1.5473 -0.3508
 9832TIP3    H250988   5.471   3.651   3.120 -0.0745  0.4265 -0.3005
 9833TIP3   OH250989   5.163   5.799   4.735 -0.2110  0.2002  0.2690
 9833TIP3    H150990   5.200   5.775   4.820 -0.7103  0.2868  0.5178
 9833TIP3    H250991   5.144   5.715   4.692 -0.4096  0.1508  0.4488
 9834TIP3   OH250992   3.344   6.567   2.745  0.2625  0.2105 -0.6612
 9834TIP3    H150993   3.415   6.616   2.787  0.7378  1.6531 -2.9562
 9834TIP3    H250994   3.282   6.550   2.816  1.0936  2.3136  0.6929
 9835TIP3   OH250995   2.207   2.033   2.555  0.0664  0.3153  0.3445
 9835TIP3    H150996   2.265   2.015   2.628 -1.6128 -1.6958  1.2879
 9835TIP3    H250997   2.188   2.127   2.561  0.9141  0.4183  1.7412
 9836TIP3   OH250998   6.464   6.759   4.149  0.0750 -0.0724 -0.2465
 9836TIP3    H150999   6.369   6.771   4.155  0.2218  2.2286 -1.5583
 9836TIP3    H251000   6.479   6.672   4.187 -2.6867 -1.1025 -1.2623
 9837TIP3   OH251001   4.005   0.804  16.724 -0.0466  0.5471 -0.3131
 9837TIP3    H151002   3.919   0.839  16.747  0.2976  1.4800 -0.4064
 9837TIP3    H251003   4.022   0.737  16.791 -1.6747 -1.0546 -1.4196
 9838TIP3   OH251004   4.257   4.236  15.178  0.1547 -0.2751 -0.9073
 9838TIP3    H151005   4.309   4.156  15.183 -0.1185 -0.4614 -0.9729
 9838TIP3    H251006   4.225   4.249  15.267  0.8514  0.2083 -0.7242
 9839TIP3   OH251007   3.172   6.221   1.205  0.3441  0.4667 -0.1666
 9839TIP3    H151008   3.099   6.179   1.251 -0.9531 -0.0363 -2.5225
 9839TIP3    H251009   3.192   6.161   1.133  1.9133  1.4681 -0.6072
 9840TIP3   OH251010   2.028   0.806   5.523  0.6246 -0.2361 -0.1311
 9840TIP3    H151011   2.100   0.745   5.535  0.5403 -0.2475  0.3601
 9840TIP3    H251012   1.949   0.755   5.544  0.6096  0.2254  1.0066
 9841TIP3   OH251013   6.405   3.801   5.578 -0.2566  0.6730  0.0852
 9841TIP3    H151014   6.323   3.831   5.539 -1.8852 -2.7534  0.4917
 9841TIP3    H251015   6.390   3.805   5.673  0.8036  1.7310  0.2417
 9842TIP3   OH251016   2.766   4.882   4.461  0.7032 -0.5686 -0.2262
 9842TIP3    H151017   2.695   4.875   4.398 -1.1331 -0.1408  1.6770
 9842TIP3    H251018   2.820   4.954   4.429 -1.2925  0.9707 -0.3017
 9843TIP3   OH251019   3.677   3.496  14.942 -0.2468  0.0276  0.7236
 9843TIP3    H151020   3.623   3.575  14.947 -0.3809  0.1004 -1.1269
 9843TIP3    H251021   3.616   3.424  14.961 -1.0893  0.1136 -1.2977
 9844TIP3   OH251022   1.620   0.642  12.297  0.2239  0.4923  0.5401
 9844TIP3    H151023   1.639   0.698  12.372  1.7351  0.8210 -0.0603
 9844TIP3    H251024   1.705   0.628  12.255 -0.4373 -0.5536 -0.5094
 9845TIP3   OH251025   6.059   5.172   1.384 -0.5146  0.3288  0.2354
 9845TIP3    H151026   5.989   5.109   1.401 -0.8811  0.7820  0.4545
 9845TIP3    H251027   6.140   5.122   1.390 -0.5939  0.3805  3.2234
 9846TIP3   OH251028   5.399   1.102  11.139 -0.3311 -0.1592 -0.6247
 9846TIP3    H151029   5.347   1.118  11.060 -2.1223 -0.8415  0.3562
 9846TIP3    H251030   5.466   1.040  11.111 -2.6237 -2.6312 -1.1231
 9847TIP3   OH251031   1.583   3.248  13.266 -0.0610 -0.0872 -0.1057
 9847TIP3    H151032   1.593   3.324  13.323  1.0063 -0.2412 -0.0741
 9847TIP3    H251033   1.510   3.199  13.304  0.6612 -0.2220  1.1734
 9848TIP3   OH251034   4.266   2.514  10.468  0.3370 -0.2861  0.0423
 9848TIP3    H151035   4.217   2.570  10.408  0.0484  0.6056  1.0738
 9848TIP3    H251036   4.294   2.573  10.538 -0.1017 -1.4590  1.2481
 9849TIP3   OH251037   2.402   0.362  11.440 -0.3895  0.3412 -0.2392
 9849TIP3    H151038   2.456   0.434  11.473  1.1879 -1.2410  0.7836
 9849TIP3    H251039   2.393   0.302  11.514 -0.7147 -1.0550 -1.3622
 9850TIP3   OH251040   4.564   3.607  15.685  0.0509  0.2904  0.1141
 9850TIP3    H151041   4.566   3.677  15.620 -0.5859  0.5259  0.3379
 9850TIP3    H251042   4.654   3.602  15.717  0.0031  1.3871  0.4890
 9851TIP3   OH251043   1.901   1.744  15.070  0.3176  0.0997  0.1301
 9851TIP3    H151044   1.812   1.735  15.036  1.1526 -0.8164 -1.9924
 9851TIP3    H251045   1.890   1.761  15.163 -2.0550 -0.8105  0.0706
 9852TIP3   OH251046   4.666   4.559  14.093 -0.0072  0.2811 -0.2857
 9852TIP3    H151047   4.633   4.600  14.014 -1.6506 -0.0897  0.1778
 9852TIP3    H251048   4.597   4.498  14.120  0.3161  0.7077  1.6519
 9853TIP3   OH251049   5.068   5.403  16.915 -0.3141  0.2620  0.1579
 9853TIP3    H151050   5.140   5.378  16.856 -0.7511 -0.6355 -0.0127
 9853TIP3    H251051   5.005   5.447  16.858  0.8896  2.7718  0.6208
 9854TIP3   OH251052   5.895   5.932  12.487  0.0630 -0.6377 -0.2410
 9854TIP3    H151053   5.963   5.973  12.541 -0.9101 -1.1518  1.4750
 9854TIP3    H251054   5.873   5.999  12.422 -2.1363  2.1857  2.9944
 9855TIP3   OH251055   5.395   6.003   2.912  0.2904 -0.0825 -0.3976
 9855TIP3    H151056   5.432   5.937   2.853  0.8321 -0.1690  0.0232
 9855TIP3    H251057   5.322   5.959   2.955  0.1628 -0.1568 -0.6872
 9856TIP3   OH251058   6.699   4.627   0.706  0.4533 -0.2808 -0.2675
 9856TIP3    H151059   6.707   4.536   0.679  0.6430 -0.3921  0.1483
 9856TIP3    H251060   6.788   4.662   0.698  0.4639 -0.2501 -0.0297
 9857TIP3   OH251061   4.427   6.703   5.621 -0.0208  0.5627  0.1284
 9857TIP3    H151062   4.470   6.624   5.586  1.3749  2.2507 -2.2742
 9857TIP3    H251063   4.484   6.731   5.693 -0.3968 -0.4594  0.8422
 9858TIP3   OH251064   6.078   1.430  11.491 -0.0261  0.1766 -0.0214
 9858TIP3    H151065   6.114   1.505  11.539  0.6220  0.3911 -0.8150
 9858TIP3    H251066   6.006   1.466  11.440 -1.0942 -0.1629  1.2070
 9859TIP3   OH251067   0.373   5.187   1.149  0.0003  0.2505  0.2476
 9859TIP3    H151068   0.402   5.275   1.175 -0.9861  0.4884  0.6014
 9859TIP3    H251069   0.306   5.165   1.213  0.2621 -0.7900  0.1820
 9860TIP3   OH251070   4.817   4.809  16.500 -0.1222 -0.0961 -0.0737
 9860TIP3    H151071   4.725   4.784  16.504  0.1087 -1.6865 -2.3720
 9860TIP3    H251072   4.850   4.766  16.421  2.6882  0.1116  0.8507
 9861TIP3   OH251073   3.170   3.411  13.731  0.2435 -0.3536  0.1369
 9861TIP3    H151074   3.107   3.476  13.698 -0.4340 -0.5558  0.9952
 9861TIP3    H251075   3.174   3.345  13.661 -1.2652 -0.8342  0.4457
 9862TIP3   OH251076   2.547   2.501   0.689  0.3907  0.1021  0.2241
 9862TIP3    H151077   2.614   2.499   0.757 -0.3672  0.3802  0.9999
 9862TIP3    H251078   2.484   2.434   0.716  0.2728 -0.0464 -0.4095
 9863TIP3   OH251079   6.029   5.282  16.383  0.4377 -0.6493  0.0335
 9863TIP3    H151080   6.069   5.197  16.367  2.1992  0.2982 -0.8744
 9863TIP3    H251081   6.091   5.345  16.345  0.1047  1.1642  2.3144
 9864TIP3   OH251082   1.135   3.318   1.741 -0.0536  0.0422  0.0854
 9864TIP3    H151083   1.078   3.246   1.715 -0.3161  0.0021  0.7447
 9864TIP3    H251084   1.190   3.334   1.665 -0.8044 -0.0547 -0.4833
 9865TIP3   OH251085   0.637   5.502  11.175  0.2157 -1.1002  0.4770
 9865TIP3    H151086   0.690   5.422  11.170 -2.1310 -2.7029 -0.2106
 9865TIP3    H251087   0.561   5.484  11.121 -0.2404  1.7935  0.0129
 9866TIP3   OH251088   4.486   3.353  12.251 -0.1319  0.1789 -0.4890
 9866TIP3    H151089   4.475   3.316  12.164 -0.7783  1.1612 -0.8374
 9866TIP3    H251090   4.579   3.378  12.255 -0.1707  0.4201 -1.0150
 9867TIP3   OH251091   1.285   1.385  12.008  0.0059 -0.2214  0.0890
 9867TIP3    H151092   1.216   1.436  12.052 -0.3656 -1.1798  0.6439
 9867TIP3    H251093   1.309   1.318  12.072  1.2264 -0.1079 -0.2340
 9868TIP3   OH251094   1.168   5.526  12.100  0.9375  0.1171  0.4375
 9868TIP3    H151095   1.118   5.527  12.018  1.6929  0.7566 -0.0347
 9868TIP3    H251096   1.104   5.548  12.167 -0.1372 -2.3261  0.3261
 9869TIP3   OH251097   4.229   2.464  14.753  0.3217  0.3148  0.1278
 9869TIP3    H151098   4.146   2.511  14.759  0.9295  1.3414  0.6362
 9869TIP3    H251099   4.280   2.494  14.828  1.2303 -0.1523 -0.2824
 9870TIP3   OH251100   1.782   2.532  11.353  0.2972  0.1654  0.3005
 9870TIP3    H151101   1.750   2.513  11.265  0.7610  1.3227 -0.1422
 9870TIP3    H251102   1.707   2.520  11.410  0.4626 -2.5866  0.0490
 9871TIP3   OH251103   5.271   6.545   1.209  0.3725 -0.2516  0.0774
 9871TIP3    H151104   5.297   6.523   1.298 -1.4604 -0.3984  0.6187
 9871TIP3    H251105   5.254   6.460   1.167 -0.5204 -0.1414  0.1835
 9872TIP3   OH251106   4.050   3.861   4.733  0.6749 -0.4769 -0.0973
 9872TIP3    H151107   3.979   3.922   4.716  0.9389  0.3902  1.6697
 9872TIP3    H251108   4.008   3.775   4.737  0.0137 -0.1976 -0.7231
 9873TIP3   OH251109   6.346   3.554  16.714  0.2690 -0.0467  0.4555
 9873TIP3    H151110   6.409   3.624  16.729  0.4190  0.0335 -0.5029
 9873TIP3    H251111   6.394   3.490  16.661 -0.3790 -0.1048 -0.0674
 9874TIP3   OH251112   5.009   5.151   1.051  0.2092 -0.0861 -0.6010
 9874TIP3    H151113   5.092   5.123   1.090  0.8227  1.0565 -1.0399
 9874TIP3    H251114   5.010   5.114   0.963  1.0302  1.2433 -1.1881
 9875TIP3   OH251115   2.436   6.756  11.886 -0.6629  0.3837  0.0075
 9875TIP3    H151116   2.434   6.787  11.795 -3.2661 -2.9745 -1.3221
 9875TIP3    H251117   2.348   6.775  11.920 -0.4425 -0.3281  1.0383
 9876TIP3   OH251118   5.990   6.313  11.028  0.4936 -0.0098 -0.2878
 9876TIP3    H151119   6.003   6.279  10.939 -0.4515 -1.3827  0.0700
 9876TIP3    H251120   5.896   6.327  11.035  0.6529  0.9171  0.2281
 9877TIP3   OH251121   4.969   4.542   0.602  0.1229 -0.0366  0.1839
 9877TIP3    H151122   4.878   4.522   0.627  0.5019 -0.7363  1.0654
 9877TIP3    H251123   5.005   4.587   0.678  1.2230 -1.9605  0.8636
 9878TIP3   OH251124   3.270   1.733  13.688  0.8254 -0.3417  0.0891
 9878TIP3    H151125   3.251   1.777  13.771 -0.0948 -1.0868  0.2928
 9878TIP3    H251126   3.281   1.641  13.712 -2.1877 -1.0877 -0.8924
 9879TIP3   OH251127   1.575   0.653  16.595  0.3438 -0.3991  0.5291
 9879TIP3    H151128   1.498   0.607  16.560  1.4549 -1.4553 -0.6312
 9879TIP3    H251129   1.628   0.584  16.635  0.9534  0.2360  0.8442
 9880TIP3   OH251130   2.215   2.889  14.779 -0.1405 -0.3950  0.5644
 9880TIP3    H151131   2.192   2.811  14.729 -0.4591  1.1118 -1.8083
 9880TIP3    H251132   2.309   2.901  14.764  0.2137 -1.0398  2.0701
 9881TIP3   OH251133   3.721   3.852   4.861  0.3029 -0.0137 -0.4762
 9881TIP3    H151134   3.664   3.810   4.925  1.5761 -2.0010 -0.5388
 9881TIP3    H251135   3.797   3.793   4.855  1.4138  1.4761 -1.8733
 9882TIP3   OH251136   5.925   0.911   0.029 -0.2087  0.3188 -0.4444
 9882TIP3    H151137   5.859   0.882  -0.033 -1.2364 -0.0644  0.7992
 9882TIP3    H251138   5.995   0.946  -0.026 -0.4773 -1.2457 -1.8597
 9883TIP3   OH251139   1.776   2.123  15.728  0.4364  0.2933  0.4181
 9883TIP3    H151140   1.788   2.150  15.819 -0.7859 -2.3974  1.4824
 9883TIP3    H251141   1.861   2.087  15.702  0.9625  1.5993  0.2462
 9884TIP3   OH251142   3.277   5.599   1.395  0.0242 -0.5493  0.1319
 9884TIP3    H151143   3.218   5.545   1.342 -1.0809  0.9642 -0.2433
 9884TIP3    H251144   3.218   5.649   1.452  1.0122  0.1790  0.5383
 9885TIP3   OH251145   1.627   6.125   3.105  0.3043  0.3324  0.0773
 9885TIP3    H151146   1.692   6.068   3.144 -0.5066 -1.4291 -1.0053
 9885TIP3    H251147   1.614   6.090   3.017 -2.6859  0.0615  0.5203
 9886TIP3   OH251148   3.562   6.575   3.694  0.3716  0.4928  0.5587
 9886TIP3    H151149   3.601   6.568   3.607  0.1216 -0.1191  0.4945
 9886TIP3    H251150   3.539   6.668   3.702  0.4105  0.5569 -0.0183
 9887TIP3   OH251151   6.718   0.950   6.597 -0.2370  0.7587  0.3791
 9887TIP3    H151152   6.753   0.907   6.519 -2.3333 -0.9548  0.2791
 9887TIP3    H251153   6.682   1.032   6.565 -0.5476  0.3464 -0.3601
 9888TIP3   OH251154   1.030   0.891  14.246  0.0554  0.2206 -0.2308
 9888TIP3    H151155   1.025   0.806  14.288 -0.7118 -0.3574 -1.4360
 9888TIP3    H251156   1.013   0.954  14.316 -1.8448 -0.7379  0.2210
 9889TIP3   OH251157   3.252   3.155   4.295 -0.4417 -0.3101 -0.1853
 9889TIP3    H151158   3.254   3.242   4.334  1.7040  0.0523 -0.9434
 9889TIP3    H251159   3.250   3.094   4.369 -2.0885  0.3508  0.3476
 9890TIP3   OH251160   4.091   6.780   2.536 -0.1820 -0.2210 -0.3446
 9890TIP3    H151161   4.155   6.716   2.568  0.3928  1.7193  2.7977
 9890TIP3    H251162   4.141   6.859   2.519 -1.4089  0.6384 -0.1203
 9891TIP3   OH251163   4.307   0.859   1.695 -0.2673 -0.0414 -0.6402
 9891TIP3    H151164   4.350   0.944   1.682 -2.1425  1.2844  1.1936
 9891TIP3    H251165   4.239   0.856   1.628 -0.0967 -0.1672 -0.8077
 9892TIP3   OH251166   4.332   5.858  14.842 -0.6526  0.2463  0.1667
 9892TIP3    H151167   4.412   5.906  14.864 -0.6153  0.4619 -0.4056
 9892TIP3    H251168   4.335   5.849  14.746 -0.4447 -1.2977  0.2935
 9893TIP3   OH251169   2.677   1.967  15.579 -0.0639  0.2125 -0.0476
 9893TIP3    H151170   2.716   2.051  15.552 -0.0215  0.4619  0.7508
 9893TIP3    H251171   2.753   1.912  15.598 -0.0899  0.3337  0.4220
 9894TIP3   OH251172   3.081   4.812  13.379 -0.0547 -0.3505 -0.3569
 9894TIP3    H151173   3.093   4.807  13.474 -2.1277  0.3483 -0.0049
 9894TIP3    H251174   3.154   4.762  13.343  0.6618 -0.8100  1.6087
 9895TIP3   OH251175   5.163   2.552  16.792 -0.1804 -0.5272 -0.2757
 9895TIP3    H151176   5.128   2.629  16.747  1.7672  1.2506  1.0238
 9895TIP3    H251177   5.195   2.587  16.876  0.5226 -2.8349  0.4735
 9896TIP3   OH251178   5.479   1.985  14.200  0.5060 -0.3399 -0.0126
 9896TIP3    H151179   5.534   2.042  14.254 -0.7836  1.8146 -0.8664
 9896TIP3    H251180   5.516   1.993  14.112 -1.3059  1.4725 -0.6835
 9897TIP3   OH251181   6.580   1.727  14.111 -0.4037  0.2935 -0.0664
 9897TIP3    H151182   6.613   1.800  14.163 -2.9074  0.0169  2.0812
 9897TIP3    H251183   6.579   1.653  14.171 -2.7403 -0.2139 -0.6407
 9898TIP3   OH251184   0.172   2.556   5.047 -0.0313  0.1714  0.3484
 9898TIP3    H151185   0.103   2.587   5.106 -0.4124  1.2669 -0.6299
 9898TIP3    H251186   0.125   2.515   4.974  0.4053 -0.2351  0.2842
 9899TIP3   OH251187   0.647   0.706  10.916 -0.2238  0.3959 -0.8402
 9899TIP3    H151188   0.698   0.781  10.944 -0.5911  0.5931 -0.6904
 9899TIP3    H251189   0.709   0.651  10.868  0.9386 -0.9390  1.9652
 9900TIP3   OH251190   5.020   5.930  14.990  0.1327  0.0783 -0.2688
 9900TIP3    H151191   4.972   5.895  14.915  1.0226  0.6778 -1.1401
 9900TIP3    H251192   4.955   5.978  15.041 -0.5693 -0.7034 -0.4098
 9901TIP3   OH251193   2.372   0.566   1.431  0.1438 -0.2015 -0.0227
 9901TIP3    H151194   2.413   0.524   1.506 -0.3804  0.0969  0.4380
 9901TIP3    H251195   2.445   0.610   1.387  0.2415  0.9170  1.1833
 9902TIP3   OH251196   5.569   6.028  16.344  0.1061  0.0784 -0.6338
 9902TIP3    H151197   5.659   6.009  16.319  0.4839 -0.0072  0.7242
 9902TIP3    H251198   5.575   6.092  16.415 -0.8707 -0.1898 -0.2764
 9903TIP3   OH251199   6.587   0.030  13.902 -0.4094 -0.1221  0.2807
 9903TIP3    H151200   6.658   0.062  13.958  1.5032 -0.1406 -1.9514
 9903TIP3    H251201   6.573  -0.060  13.930 -0.1550  0.1576  1.3260
 9904TIP3   OH251202   3.689   5.788  17.055  0.5095  0.3414 -0.3025
 9904TIP3    H151203   3.692   5.792  17.150  0.0736 -0.6872 -0.2339
 9904TIP3    H251204   3.663   5.698  17.035  0.5861  0.5415 -1.3926
 9905TIP3   OH251205   1.376   4.894  14.122  0.3651 -1.0395  0.0719
 9905TIP3    H151206   1.459   4.905  14.168  0.7254  0.8062 -0.9028
 9905TIP3    H251207   1.370   4.971  14.065 -1.8073 -1.3527 -0.2134
 9906TIP3   OH251208   5.449   2.454   3.686  0.3630 -0.2779  0.3825
 9906TIP3    H151209   5.492   2.452   3.601 -1.9202  1.4953 -0.8976
 9906TIP3    H251210   5.466   2.367   3.723  1.0100 -1.2799 -2.0873
 9907TIP3   OH251211   2.895   0.598  12.430 -0.5315  0.2214  0.1563
 9907TIP3    H151212   2.882   0.622  12.339 -1.2498  1.4690  0.5543
 9907TIP3    H251213   2.851   0.667  12.480 -1.1946 -1.0502  1.4356
 9908TIP3   OH251214   2.240   6.428   5.943  0.2773  0.5664 -0.0147
 9908TIP3    H151215   2.194   6.500   5.987 -0.5191 -0.7821  1.5119
 9908TIP3    H251216   2.219   6.351   5.997 -1.9229 -1.5359 -3.5185
 9909TIP3   OH251217   3.101   1.912  14.691  0.1403  0.2388  0.0131
 9909TIP3    H151218   3.142   1.921  14.777  0.6221 -0.2099 -0.1617
 9909TIP3    H251219   3.023   1.967  14.695  0.6686  0.9713  0.4191
 9910TIP3   OH251220   2.476   1.663   4.593 -0.5942 -1.2294 -0.1603
 9910TIP3    H151221   2.461   1.678   4.686  1.1082 -0.5036  0.0241
 9910TIP3    H251222   2.394   1.688   4.551 -0.6409  0.6467  0.9376
 9911TIP3   OH251223   0.059   6.718   4.236  0.2021  0.0577  0.1144
 9911TIP3    H151224   0.070   6.812   4.246 -2.1380  0.2728  1.3840
 9911TIP3    H251225   0.131   6.680   4.286  0.3673  1.1755  0.7593
 9912TIP3   OH251226   5.316   0.465   5.528  0.1265  0.0959  0.2722
 9912TIP3    H151227   5.266   0.491   5.450  1.2253 -0.8337 -0.7697
 9912TIP3    H251228   5.403   0.443   5.495  0.0840 -2.1572  1.4705
 9913TIP3   OH251229   1.633   3.889   1.122  0.5842  0.2919  0.2723
 9913TIP3    H151230   1.549   3.925   1.150  0.7280  0.2821  0.7197
 9913TIP3    H251231   1.650   3.931   1.037 -1.0559 -1.5402 -1.0527
 9914TIP3   OH251232   6.328   3.412  16.079 -0.1674 -0.4703  0.7925
 9914TIP3    H151233   6.246   3.363  16.082  1.1261 -2.9026 -0.4553
 9914TIP3    H251234   6.303   3.498  16.044 -1.8499 -2.0386 -2.2541
 9915TIP3   OH251235   3.599   5.549  14.142 -0.0723 -0.1060  0.1418
 9915TIP3    H151236   3.602   5.550  14.047  1.6746  0.1069  0.1705
 9915TIP3    H251237   3.614   5.458  14.166 -3.0461 -0.6966  0.2397
 9916TIP3   OH251238   6.752   1.782  13.377 -0.2924 -0.2334  0.4598
 9916TIP3    H151239   6.658   1.770  13.385 -0.2364 -0.6348  0.5090
 9916TIP3    H251240   6.789   1.735  13.451  0.0284 -1.2787 -0.3451
 9917TIP3   OH251241   4.914   2.901  16.407  0.9031 -0.1086 -0.0874
 9917TIP3    H151242   4.848   2.877  16.342 -0.4605 -1.8825  1.8076
 9917TIP3    H251243   4.894   2.992  16.430 -0.2827 -0.3124 -0.2696
 9918TIP3   OH251244   4.628   3.430  14.923  0.1625  0.1897 -0.1868
 9918TIP3    H151245   4.569   3.363  14.888 -0.4211  0.5431  0.1047
 9918TIP3    H251246   4.697   3.380  14.967  0.5153 -0.2420 -1.2047
 9919TIP3   OH251247   0.956   5.729  12.758  0.0919 -0.4068 -0.3073
 9919TIP3    H151248   0.965   5.633  12.759 -0.9527 -0.5126 -0.3903
 9919TIP3    H251249   0.865   5.745  12.781  0.3892  0.6004  0.2325
 9920TIP3   OH251250   5.189   0.621   1.329 -0.1868 -0.0875 -0.5102
 9920TIP3    H151251   5.255   0.590   1.267  1.0630 -2.0509  1.6280
 9920TIP3    H251252   5.222   0.706   1.358 -0.1602  0.2928 -1.6133
 9921TIP3   OH251253   2.617   5.544  12.845  0.6075 -0.1249  0.2238
 9921TIP3    H151254   2.695   5.599  12.845  0.1659  0.5472 -1.0683
 9921TIP3    H251255   2.569   5.570  12.924  0.8507  0.7000  0.1110
 9922TIP3   OH251256   3.173   5.553  16.233  0.4426  0.3377  0.0745
 9922TIP3    H151257   3.256   5.512  16.259  0.6632  1.3745  1.1015
 9922TIP3    H251258   3.162   5.626  16.294 -1.5207 -0.1006  0.3236
 9923TIP3   OH251259   3.578   0.460  15.317  0.0061  0.0440 -0.0810
 9923TIP3    H151260   3.521   0.403  15.369 -2.9325  0.6815 -2.2984
 9923TIP3    H251261   3.587   0.415  15.233 -0.4522  1.6844 -1.0728
 9924TIP3   OH251262   6.137   4.474   3.808  0.3470  0.0430  0.9330
 9924TIP3    H151263   6.212   4.436   3.760  0.5719  1.4765  0.0959
 9924TIP3    H251264   6.063   4.420   3.781  0.2439  1.4652 -2.0374
 9925TIP3   OH251265   1.300   0.709   3.838 -0.3823 -0.5872 -0.3138
 9925TIP3    H151266   1.354   0.750   3.905  1.2901 -0.7589 -1.5030
 9925TIP3    H251267   1.307   0.615   3.855 -2.3589 -0.5566  1.0112
 9926TIP3   OH251268   2.518   6.285  16.709  0.1951  0.4188  0.3036
 9926TIP3    H151269   2.501   6.338  16.786  1.0394  0.7326  0.2854
 9926TIP3    H251270   2.612   6.298  16.691 -0.1160  0.8848 -1.1552
 9927TIP3   OH251271   1.350   0.237  14.525  0.1896 -0.1658  0.8778
 9927TIP3    H151272   1.438   0.219  14.491 -0.1506  0.2537 -0.2678
 9927TIP3    H251273   1.324   0.318  14.482 -1.7781 -1.6064 -0.8635
 9928TIP3   OH251274   4.815   6.158  11.542  0.0945  0.6965 -0.1308
 9928TIP3    H151275   4.822   6.208  11.460 -0.0901  2.5809  0.9326
 9928TIP3    H251276   4.728   6.180  11.575  0.0079 -0.3733  0.3869
 9929TIP3   OH251277   6.561   3.042   0.954  0.2902  0.0042 -0.0872
 9929TIP3    H151278   6.569   2.949   0.977  0.7679 -0.0144 -0.3111
 9929TIP3    H251279   6.648   3.067   0.924 -0.1760  0.1460 -1.3917
 9930TIP3   OH251280   5.343   3.136   0.661  0.0503 -1.1291  0.3623
 9930TIP3    H151281   5.370   3.118   0.751  2.3037 -0.6642 -0.1575
 9930TIP3    H251282   5.408   3.090   0.607  0.0596  0.4178 -1.0001
 9931TIP3   OH251283   1.137   3.939  12.398  0.1949 -0.4180  0.1421
 9931TIP3    H151284   1.047   3.972  12.388 -0.0078 -1.5683 -2.9576
 9931TIP3    H251285   1.128   3.862  12.454 -0.5282  0.1924  0.8926
 9932TIP3   OH251286   5.469   2.038  13.585 -0.0803  0.0970  0.3069
 9932TIP3    H151287   5.484   2.113  13.527  1.8949 -0.1081  0.4753
 9932TIP3    H251288   5.505   1.964  13.537  0.1247 -0.3391  1.1286
 9933TIP3   OH251289   1.730   1.025   1.131  0.8495  0.0204  0.3305
 9933TIP3    H151290   1.723   0.932   1.153 -0.7407 -0.0984 -0.5139
 9933TIP3    H251291   1.824   1.045   1.140  1.1685 -1.5722  0.8421
 9934TIP3   OH251292   1.573   6.043  11.266 -0.6523  0.9280  0.6462
 9934TIP3    H151293   1.589   6.135  11.246  1.5926  0.6876  1.0744
 9934TIP3    H251294   1.519   6.012  11.193  0.3788  2.0696 -0.6580
 9935TIP3   OH251295   3.033   0.650   5.086  0.1115 -0.3783  0.2156
 9935TIP3    H151296   3.046   0.609   5.171 -1.3129 -0.1554  0.5717
 9935TIP3    H251297   3.020   0.743   5.106 -0.2486 -0.3250 -0.2332
 9936TIP3   OH251298   2.581   6.684  13.696  0.8854 -0.5310  0.0882
 9936TIP3    H151299   2.655   6.745  13.696  0.3382  0.1602 -0.3601
 9936TIP3    H251300   2.602   6.620  13.627  1.1196 -0.4056  0.0421
 9937TIP3   OH251301   2.673   2.985   6.077 -0.1933 -0.2341 -0.2129
 9937TIP3    H151302   2.579   2.973   6.088 -0.3200  1.1958  0.5451
 9937TIP3    H251303   2.710   2.963   6.163 -0.0181  0.7143 -0.0348
 9938TIP3   OH251304   3.838   1.779   3.964  0.1558  0.1703 -0.6036
 9938TIP3    H151305   3.841   1.703   3.906 -0.1778  0.6497 -1.2586
 9938TIP3    H251306   3.818   1.852   3.907  2.3840  1.0967 -0.2746
 9939TIP3   OH251307   5.207   3.136  11.691  0.1490  0.2658  0.3448
 9939TIP3    H151308   5.292   3.100  11.667  0.5080  0.7668  0.8453
 9939TIP3    H251309   5.227   3.219  11.733 -0.5700  0.2478  0.7413
 9940TIP3   OH251310   2.093   0.674  14.826 -0.1619  0.2699  0.2134
 9940TIP3    H151311   2.170   0.709  14.872  0.7527 -1.2203 -0.1038
 9940TIP3    H251312   2.110   0.692  14.734  0.5725 -1.3761 -0.0077
 9941TIP3   OH251313   6.249   4.622  14.194 -0.2726  0.5325  0.0892
 9941TIP3    H151314   6.328   4.570  14.212 -1.9897 -2.0955  0.5815
 9941TIP3    H251315   6.217   4.647  14.281 -0.9874 -0.0513 -0.0014
 9942TIP3   OH251316   6.138   0.991   3.011  0.1354 -0.1371  0.6361
 9942TIP3    H151317   6.184   1.068   2.980  1.4222 -0.8252  0.7402
 9942TIP3    H251318   6.049   1.021   3.030  0.1283  0.9250 -0.9154
 9943TIP3   OH251319   4.140   5.362  13.817 -0.5369 -0.2250 -0.2537
 9943TIP3    H151320   4.224   5.400  13.842 -1.1449  0.3909  0.9287
 9943TIP3    H251321   4.111   5.413  13.742 -0.3136  0.1965 -0.0517
 9944TIP3   OH251322   4.261   4.205   1.953 -0.5768 -0.2598  0.4526
 9944TIP3    H151323   4.188   4.235   2.008 -1.5067  0.7013 -1.2195
 9944TIP3    H251324   4.299   4.285   1.918  0.8208 -0.7998  0.6869
 9945TIP3   OH251325   6.237   1.571  15.743  0.1453 -0.1360 -0.2487
 9945TIP3    H151326   6.149   1.543  15.768 -0.4970  0.1271 -2.0778
 9945TIP3    H251327   6.289   1.491  15.743 -0.3584 -0.4637 -0.2007
 9946TIP3   OH251328   3.548   3.181   1.079  0.3848  0.0076 -0.3115
 9946TIP3    H151329   3.547   3.186   0.984 -1.1924  1.2729 -0.2829
 9946TIP3    H251330   3.483   3.246   1.107  0.5768 -0.5603  1.6129
 9947TIP3   OH251331   0.064   2.258   2.544  0.5135  0.2792 -0.5211
 9947TIP3    H151332   0.148   2.276   2.587 -0.9696  3.6961  1.3856
 9947TIP3    H251333   0.045   2.337   2.494 -1.5369 -0.4443 -0.9748
 9948TIP3   OH251334   5.838   1.303  16.314 -0.6987 -0.0295  0.4906
 9948TIP3    H151335   5.878   1.305  16.401 -1.0793  1.2397  0.6555
 9948TIP3    H251336   5.876   1.378  16.268 -1.2083 -0.1313 -0.1134
 9949TIP3   OH251337   4.941   0.332  11.039 -0.2899 -0.0327  0.1358
 9949TIP3    H151338   5.022   0.381  11.023 -0.9737  1.4793  1.1763
 9949TIP3    H251339   4.966   0.241  11.021  1.0619  0.6114 -1.6587
 9950TIP3   OH251340   0.121   5.710  16.963  0.2911  0.3802  0.5004
 9950TIP3    H151341   0.104   5.698  17.056  0.2644  1.3021  0.6202
 9950TIP3    H251342   0.215   5.727  16.958  0.2393  0.6299  0.3852
 9951TIP3   OH251343   5.113   6.370   5.421  0.0902  1.0473 -0.0329
 9951TIP3    H151344   5.066   6.452   5.429 -1.6538  0.4010 -2.3274
 9951TIP3    H251345   5.057   6.306   5.465  2.6485  1.3202  4.0218
 9952TIP3   OH251346   4.276   3.348  14.324  0.2650 -0.2132 -0.1898
 9952TIP3    H151347   4.284   3.375  14.233 -2.1939  1.8858  0.1074
 9952TIP3    H251348   4.211   3.278  14.323 -1.0183  0.9244  0.0420
 9953TIP3   OH251349   2.323   3.700   4.460 -0.2205 -0.6467 -0.0001
 9953TIP3    H151350   2.233   3.725   4.478 -0.2161  0.6602 -1.5620
 9953TIP3    H251351   2.319   3.653   4.377  0.8269  2.0833 -1.7069
 9954TIP3   OH251352   1.696   6.352   5.271  0.3441 -0.0347  0.8677
 9954TIP3    H151353   1.726   6.427   5.219 -0.5089  1.0604  1.8975
 9954TIP3    H251354   1.667   6.288   5.206  0.9641  0.5621 -0.0348
 9955TIP3   OH251355   2.230   6.330   5.421 -0.1463 -1.0107 -0.0766
 9955TIP3    H151356   2.173   6.371   5.485 -0.5494  0.0823 -1.0968
 9955TIP3    H251357   2.267   6.254   5.466 -0.1570 -0.0953  1.5465
 9956TIP3   OH251358   2.799   6.126  12.694 -0.7895 -0.7264 -0.7262
 9956TIP3    H151359   2.840   6.210  12.671 -0.6790 -0.8080 -0.8283
 9956TIP3    H251360   2.807   6.120  12.789  0.2326 -1.1576 -0.8318
 9957TIP3   OH251361   5.710   4.234  15.345  0.2532 -0.6398  0.4208
 9957TIP3    H151362   5.770   4.237  15.271 -0.2216  1.7582  0.0583
 9957TIP3    H251363   5.648   4.164  15.322  1.0009 -0.9621 -0.7171
 9958TIP3   OH251364   6.483   1.595  15.023  0.2826 -0.7849  0.4264
 9958TIP3    H151365   6.448   1.586  14.934  1.2773 -1.8280  0.1169
 9958TIP3    H251366   6.575   1.621  15.010  0.1482  0.0918  1.1734
 9959TIP3   OH251367   1.393   0.767  10.865  0.0049  0.1386  0.1656
 9959TIP3    H151368   1.480   0.774  10.826  0.9633 -0.0255  2.1577
 9959TIP3    H251369   1.394   0.829  10.938 -1.2061 -0.5559  0.8131
 9960TIP3   OH251370   6.502   0.993  17.206 -0.1646 -0.8023  1.0527
 9960TIP3    H151371   6.504   1.001  17.111  1.3201  1.2480  1.1955
 9960TIP3    H251372   6.418   1.031  17.231 -0.2609 -0.7232  0.6113
 9961TIP3   OH251373   4.363   0.470   5.871  0.2289 -0.1923  0.2429
 9961TIP3    H151374   4.408   0.415   5.935  1.4351 -1.6683 -1.7224
 9961TIP3    H251375   4.428   0.537   5.847 -0.1295  0.2131  0.4047
 9962TIP3   OH251376   2.352   1.818  11.656  0.4347 -0.3018 -0.4517
 9962TIP3    H151377   2.328   1.910  11.667  0.6568 -0.1418 -1.2826
 9962TIP3    H251378   2.383   1.811  11.566  0.3190 -1.2168 -0.4309
 9963TIP3   OH251379   5.876   3.815   6.390 -0.0121 -0.2180  1.1997
 9963TIP3    H151380   5.866   3.727   6.424  1.1189 -1.2839 -1.0258
 9963TIP3    H251381   5.970   3.826   6.379 -0.2147  0.7961  0.3062
 9964TIP3   OH251382   5.990   6.794   5.738  0.2161  0.0660  0.5331
 9964TIP3    H151383   5.943   6.875   5.717  0.0928 -0.0675  0.2964
 9964TIP3    H251384   5.928   6.724   5.719  0.8388 -0.1687 -0.7775
 9965TIP3   OH251385   1.726   0.884  16.646 -0.3397  0.5979  0.0262
 9965TIP3    H151386   1.684   0.798  16.645 -0.8043  0.8246 -0.5155
 9965TIP3    H251387   1.820   0.865  16.650 -0.4021  0.0407 -0.8897
 9966TIP3   OH251388   2.179   4.311  12.754  0.2521 -0.3818  0.6758
 9966TIP3    H151389   2.225   4.312  12.670 -0.2942  0.0934  0.3752
 9966TIP3    H251390   2.160   4.403  12.771  0.2245 -0.4900  1.2524
 9967TIP3   OH251391   5.079   4.666   2.568  0.2017  0.4826 -0.4026
 9967TIP3    H151392   5.006   4.629   2.519  0.8913 -0.5627 -0.6721
 9967TIP3    H251393   5.042   4.689   2.653 -0.2230 -1.0290 -0.1502
 9968TIP3   OH251394   3.682   3.905  12.384 -0.6964  0.1758  0.5212
 9968TIP3    H151395   3.775   3.917  12.364 -0.4766  0.4370  1.6046
 9968TIP3    H251396   3.641   3.988  12.360 -0.5407  0.2819  0.6222
 9969TIP3   OH251397   1.143   5.828  13.848  0.3366 -0.1582  0.0996
 9969TIP3    H151398   1.095   5.760  13.896  0.1411  0.6779  1.1133
 9969TIP3    H251399   1.185   5.780  13.776 -1.1290 -1.0903 -0.1894
 9970TIP3   OH251400   3.687   5.861   0.093 -0.0517  0.3980 -0.3168
 9970TIP3    H151401   3.758   5.910   0.137  1.4376 -0.2667 -1.8661
 9970TIP3    H251402   3.632   5.929   0.055  1.4713  0.9861 -1.6321
 9971TIP3   OH251403   5.859   4.813   0.978 -0.5374 -0.2095 -0.4156
 9971TIP3    H151404   5.827   4.870   1.049  2.0483  1.2340 -0.2950
 9971TIP3    H251405   5.934   4.860   0.942  2.5797 -3.9961  0.4723
 9972TIP3   OH251406   4.664   5.812  14.416  0.0884 -0.1782 -0.6809
 9972TIP3    H151407   4.704   5.850  14.338  0.7620  1.6300  0.4829
 9972TIP3    H251408   4.735   5.766  14.460 -0.2378 -0.9973 -0.9910
 9973TIP3   OH251409   6.717   6.083  16.092  0.0334 -0.7049 -0.9954
 9973TIP3    H151410   6.756   6.012  16.142  1.0044 -0.0550 -0.7937
 9973TIP3    H251411   6.645   6.114  16.146  0.3643 -0.7477 -0.5253
 9974TIP3   OH251412   0.864   0.393  12.170  0.3627 -0.0745  0.9120
 9974TIP3    H151413   0.804   0.464  12.190  0.8439  0.6835 -0.2067
 9974TIP3    H251414   0.809   0.323  12.134 -0.0129  0.0720  1.2128
 9975TIP3   OH251415   2.271   5.343   5.718 -0.2203 -0.0261  0.1726
 9975TIP3    H151416   2.193   5.347   5.662  0.1321  0.6529 -0.2823
 9975TIP3    H251417   2.290   5.250   5.726 -0.7489 -0.1691 -0.1765
 9976TIP3   OH251418   3.095   6.475   3.400 -0.6724  0.3150 -0.0715
 9976TIP3    H151419   3.042   6.553   3.382 -0.9734  0.3554  0.9161
 9976TIP3    H251420   3.109   6.435   3.314 -1.8477  0.6009 -0.4178
 9977TIP3   OH251421   1.546   1.911   0.509 -0.1742 -0.4019  0.0672
 9977TIP3    H151422   1.486   1.971   0.464 -0.7962 -0.6186  0.5941
 9977TIP3    H251423   1.494   1.832   0.524  0.2512 -0.6013  0.5153
 9978TIP3   OH251424   2.992   3.409   2.023 -0.4902  0.4845  0.4842
 9978TIP3    H151425   3.009   3.345   1.953 -2.0365 -0.1214  0.6114
 9978TIP3    H251426   2.945   3.480   1.979 -2.7866 -0.5594  1.0789
 9979TIP3   OH251427   5.398   4.834  16.224 -0.4876 -0.1144  0.1791
 9979TIP3    H151428   5.411   4.914  16.173  1.5161 -0.4181  0.1187
 9979TIP3    H251429   5.306   4.837  16.252 -0.7574  1.6170 -0.7802
 9980TIP3   OH251430   0.437   1.044   1.757 -0.4023 -0.4532 -0.3315
 9980TIP3    H151431   0.346   1.038   1.728  0.0027 -3.8396 -1.4162
 9980TIP3    H251432   0.441   0.989   1.835  0.4595  0.7594  0.5011
 9981TIP3   OH251433   2.930   6.487  14.240  0.7143 -0.7234 -0.0136
 9981TIP3    H151434   2.904   6.549  14.308 -0.0431 -1.1922  0.1352
 9981TIP3    H251435   2.884   6.519  14.161 -0.0342 -1.3380  0.1638
 9982TIP3   OH251436   4.863   5.882   3.079 -0.1244 -0.2014  0.4015
 9982TIP3    H151437   4.843   5.811   3.141  0.0522  1.9293  3.0761
 9982TIP3    H251438   4.777   5.915   3.053 -0.2015 -1.1598 -0.6590
 9983TIP3   OH251439   5.283   5.775  16.979 -0.4200 -0.2336  0.1183
 9983TIP3    H151440   5.318   5.789  17.067 -0.1598 -0.1059 -0.0061
 9983TIP3    H251441   5.354   5.800  16.920 -0.7195  0.0423 -0.1340
 9984TIP3   OH251442   0.490   4.756  15.510 -0.2963 -0.2350 -0.1954
 9984TIP3    H151443   0.444   4.688  15.560 -0.2877 -0.6002 -0.6847
 9984TIP3    H251444   0.442   4.837  15.531 -0.5308 -0.4468  0.1021
 9985TIP3   OH251445   1.428   6.796   4.089  0.0806 -0.1261 -0.1992
 9985TIP3    H151446   1.422   6.887   4.117  2.8986  0.0474  0.1014
 9985TIP3    H251447   1.514   6.788   4.048 -0.2397 -2.5681 -0.5813
 9986TIP3   OH251448   3.817   2.563   2.537 -0.1255 -0.4301 -0.2797
 9986TIP3    H151449   3.908   2.588   2.555 -0.1575 -1.3738  1.4157
 9986TIP3    H251450   3.821   2.469   2.520 -0.8324 -0.5483  0.1918
 9987TIP3   OH251451   5.223   4.465   0.239 -0.3388  0.2555 -0.1866
 9987TIP3    H151452   5.153   4.531   0.243 -1.2061 -0.4962 -1.9205
 9987TIP3    H251453   5.286   4.500   0.177  0.4294  0.5204  0.7087
 9988TIP3   OH251454   5.608   4.732  13.876 -0.4474  0.2361  0.2081
 9988TIP3    H151455   5.640   4.665  13.936 -0.1297 -0.8187 -1.0700
 9988TIP3    H251456   5.556   4.683  13.812 -0.8716  1.3311 -0.3120
 9989TIP3   OH251457   5.409   2.563  11.667  0.2189 -0.0546  0.4776
 9989TIP3    H151458   5.365   2.622  11.728  2.2971  1.5398  0.5125
 9989TIP3    H251459   5.429   2.617  11.591  0.6092 -1.1695 -0.2349
 9990TIP3   OH251460   3.953   2.626   0.371  0.3222  0.1849  0.0540
 9990TIP3    H151461   4.026   2.646   0.430 -1.1342  0.9154  1.6726
 9990TIP3    H251462   3.967   2.683   0.296  1.5279  0.1517  0.2342
 9991TIP3   OH251463   2.357   4.863  13.818  0.6291 -0.3925  0.0082
 9991TIP3    H151464   2.441   4.828  13.846  1.7871  1.5087 -0.8498
 9991TIP3    H251465   2.293   4.826  13.879  2.2362 -0.9422  1.4286
 9992TIP3   OH251466   3.640   0.663   2.995 -0.2255 -0.5354  0.3856
 9992TIP3    H151467   3.561   0.650   2.942  0.0005  0.2232 -0.1618
 9992TIP3    H251468   3.670   0.575   3.014 -0.8786 -0.8327  0.0994
 9993TIP3   OH251469   2.448   1.701   4.886  0.0041 -0.0339  0.2029
 9993TIP3    H151470   2.539   1.695   4.914 -0.1218 -1.3421  0.3955
 9993TIP3    H251471   2.408   1.760   4.950  0.9064  1.3340 -0.4492
 9994TIP3   OH251472   3.827   0.903   6.533  0.1727  0.0150  0.4882
 9994TIP3    H151473   3.868   0.817   6.541 -0.5603 -0.4936 -0.7897
 9994TIP3    H251474   3.836   0.925   6.440  1.2091  1.7895  0.9616
 9995TIP3   OH251475   4.119   4.835   5.230  0.1148 -0.2122  0.0201
 9995TIP3    H151476   4.109   4.835   5.325  0.9798  1.1366  0.1324
 9995TIP3    H251477   4.030   4.848   5.197  0.0745  1.5592  0.7267
 9996TIP3   OH251478   3.037   1.159   1.643  0.0216  0.1953  0.0421
 9996TIP3    H151479   3.024   1.156   1.548  1.6480 -0.8620 -0.1905
 9996TIP3    H251480   3.081   1.243   1.659  1.2207 -0.3257 -0.3875
 9997TIP3   OH251481   1.573   5.928   4.823  0.3172  0.0055 -0.6177
 9997TIP3    H151482   1.624   5.881   4.757  2.6138  0.4729  0.6985
 9997TIP3    H251483   1.506   5.975   4.773  0.9194 -0.9604 -2.4177
 9998TIP3   OH251484   0.674   6.674  12.253 -0.1798 -0.2877  0.2574
 9998TIP3    H151485   0.616   6.607  12.218  0.4117 -0.3653 -0.6088
 9998TIP3    H251486   0.743   6.683  12.187  1.1391 -0.6377  1.5271
 9999TIP3   OH251487   0.737   4.598  12.390  0.4392 -0.1139  0.0203
 9999TIP3    H151488   0.672   4.574  12.456  0.0788 -0.6734 -0.5284
 9999TIP3    H251489   0.820   4.564  12.426  0.2541 -0.3735  0.2110
10000TIP3   OH251490   2.345   0.993  15.641 -0.0209 -0.5286 -0.0432
10000TIP3    H151491   2.307   1.076  15.612  0.1883 -0.5190 -0.2938
10000TIP3    H251492   2.298   0.972  15.722  2.0245  1.4206  1.8012
10001TIP3   OH251493   2.442   1.135   1.080  0.4200  0.0354 -0.1820
10001TIP3    H151494   2.465   1.044   1.059 -1.3262 -0.6562  0.7162
10001TIP3    H251495   2.347   1.138   1.073  0.2709  1.2921  1.6895
10002TIP3   OH251496   1.785   2.506   4.537  0.0210 -0.1022 -0.2369
10002TIP3    H151497   1.709   2.553   4.501  0.0462 -1.4955 -2.2009
10002TIP3    H251498   1.746   2.442   4.597 -0.4116 -0.9404 -1.3780
10003TIP3   OH251499   4.252   2.645  11.952  0.0313  0.5844  0.4101
10003TIP3    H151500   4.219   2.583  12.017  0.6918 -0.3122 -0.0949
10003TIP3    H251501   4.303   2.708  12.002 -0.0860  0.3369  0.8451
10004TIP3   OH251502   0.203   1.933   6.411  0.4239 -0.0974 -0.3246
10004TIP3    H151503   0.188   1.960   6.501 -0.0732  1.3909 -0.8216
10004TIP3    H251504   0.265   1.861   6.417  0.6167  0.1684  1.1784
10005TIP3   OH251505   3.202   5.480   1.034  0.5557 -0.0673 -0.5036
10005TIP3    H151506   3.203   5.563   0.986  0.0668  0.1458 -0.1543
10005TIP3    H251507   3.198   5.413   0.966  1.7686  0.1548 -0.8184
10006TIP3   OH251508   2.841   2.853  11.293 -0.0377 -0.0190 -0.5469
10006TIP3    H151509   2.760   2.882  11.251 -1.5939 -0.2879  2.0860
10006TIP3    H251510   2.822   2.764  11.323  0.2909  0.7792  2.2865
10007TIP3   OH251511   0.053   3.583  14.284  0.6067 -0.5142  0.3605
10007TIP3    H151512  -0.010   3.635  14.235  1.6485 -0.1383 -0.6300
10007TIP3    H251513   0.138   3.608  14.248  1.4692  0.0370  2.6295
10008TIP3   OH251514   4.080   0.209   4.467  0.0581 -0.2545 -0.5714
10008TIP3    H151515   4.098   0.182   4.377  0.8713  1.2229 -0.8817
10008TIP3    H251516   4.046   0.298   4.459 -1.0601 -0.5619  0.5158
10009TIP3   OH251517   2.543   5.846   4.673 -0.6986 -0.2392  0.4191
10009TIP3    H151518   2.583   5.885   4.751 -2.2378 -0.5878  1.4193
10009TIP3    H251519   2.581   5.758   4.668 -1.2155 -0.5318  1.3067
10010TIP3   OH251520   0.803   4.447  13.326  0.5469  0.5107 -0.0581
10010TIP3    H151521   0.830   4.377  13.385 -0.7616  0.4141  0.4703
10010TIP3    H251522   0.758   4.510  13.383 -0.7674  0.3957 -0.9315
10011TIP3   OH251523   0.798   3.535  13.227 -0.3949 -0.3068 -0.7489
10011TIP3    H151524   0.874   3.490  13.263 -1.8362 -1.7291  0.6904
10011TIP3    H251525   0.797   3.512  13.134 -0.5439 -2.5667 -0.2514
10012TIP3   OH251526   1.284   2.019  11.901  0.3725 -0.5535 -0.3231
10012TIP3    H151527   1.378   2.001  11.896  0.4867  0.1069 -0.7465
10012TIP3    H251528   1.265   2.069  11.822 -0.0094  0.7234  0.5390
10013TIP3   OH251529   4.261   3.147  13.702  0.2749 -0.6081  0.3800
10013TIP3    H151530   4.261   3.135  13.607  0.7614 -1.1957  0.4521
10013TIP3    H251531   4.250   3.242  13.713  2.0510 -0.2824 -0.3022
10014TIP3   OH251532   6.523   2.331  13.965  0.5744  0.0618  0.1287
10014TIP3    H151533   6.566   2.408  13.929  2.0334 -0.5895  0.3978
10014TIP3    H251534   6.592   2.286  14.015 -0.3885 -1.0981  0.4624
10015TIP3   OH251535   6.406   6.791   2.074 -0.0153  0.2988  0.0554
10015TIP3    H151536   6.394   6.720   2.136 -0.3395  0.3000 -0.0055
10015TIP3    H251537   6.317   6.815   2.046  0.0771  0.8574  0.2248
10016TIP3   OH251538   3.206   6.298  11.578 -0.0094  0.1062  0.2263
10016TIP3    H151539   3.150   6.270  11.506  2.6185  1.5470 -2.5818
10016TIP3    H251540   3.180   6.388  11.596  0.9705  0.5907 -0.7015
10017TIP3   OH251541   6.098   4.118  13.638 -0.2015 -0.6203  0.1634
10017TIP3    H151542   6.112   4.209  13.614  0.3726 -0.6538  0.3432
10017TIP3    H251543   6.152   4.106  13.717 -0.4541 -1.0505  0.2734
10018TIP3   OH251544   6.521   2.431  16.871 -0.1862 -0.3157  0.0707
10018TIP3    H151545   6.432   2.437  16.908 -0.2056  0.8809 -0.1423
10018TIP3    H251546   6.516   2.479  16.789  0.0273 -2.4069 -1.2515
10019TIP3   OH251547   1.627   3.427  14.457 -0.2811 -0.8319  0.1460
10019TIP3    H151548   1.607   3.356  14.518  0.1561 -1.8440 -0.8624
10019TIP3    H251549   1.721   3.441  14.466  0.2886 -2.7108 -2.0305
10020TIP3   OH251550   5.215   5.462   0.125 -0.1605  0.0446  0.2506
10020TIP3    H151551   5.297   5.493   0.162 -0.5279  0.8854  0.3662
10020TIP3    H251552   5.148   5.486   0.189 -0.5257 -0.4824  0.0792
10021TIP3   OH251553   1.282   5.238   0.958 -0.2023  0.3325 -0.0795
10021TIP3    H151554   1.222   5.289   0.904  0.9339  0.5954 -1.1181
10021TIP3    H251555   1.338   5.303   1.001  1.7210  0.0056 -1.9540
10022TIP3   OH251556   3.529   1.282   0.641  0.0853 -0.1422 -0.6707
10022TIP3    H151557   3.484   1.198   0.629 -0.7944  0.2632 -0.2869
10022TIP3    H251558   3.606   1.276   0.584 -0.1775 -1.0502 -0.9521
10023TIP3   OH251559   4.640   6.488   3.543 -0.1328 -0.0377  0.6392
10023TIP3    H151560   4.660   6.476   3.636 -0.1736 -0.5932  0.5808
10023TIP3    H251561   4.572   6.555   3.541  1.5707  1.8115  0.8664
10024TIP3   OH251562   2.337   5.921  13.401  0.1028 -0.5659 -0.1558
10024TIP3    H151563   2.414   5.925  13.345  0.9376 -0.8492  0.9496
10024TIP3    H251564   2.367   5.951  13.487 -1.6910  2.2610 -0.3765
10025TIP3   OH251565   2.015   4.831   0.962 -0.1540  0.2501  0.3419
10025TIP3    H151566   1.938   4.884   0.941 -0.1170  0.2409  0.1800
10025TIP3    H251567   2.089   4.882   0.930 -0.0791  0.3409  0.6588
10026TIP3   OH251568   2.061   5.962   3.914  0.4369 -0.1432  0.4336
10026TIP3    H151569   1.977   5.917   3.923  0.1331  0.3217 -0.0505
10026TIP3    H251570   2.121   5.894   3.883  0.1347 -0.3744  0.3487
10027TIP3   OH251571   4.673   0.695  13.148  0.2382 -0.3157  0.4742
10027TIP3    H151572   4.710   0.734  13.227 -0.4071 -0.0566  0.6577
10027TIP3    H251573   4.616   0.764  13.113  0.6495 -0.3698 -0.3071
10028TIP3   OH251574   1.082   2.955   5.494 -0.3098  0.0622  0.2106
10028TIP3    H151575   1.047   2.877   5.452 -1.6580  0.3009  0.8265
10028TIP3    H251576   1.177   2.947   5.484 -0.3901 -1.7633  0.4370
10029TIP3   OH251577   5.086   6.236   2.182 -0.0824  0.2867 -0.1498
10029TIP3    H151578   5.135   6.276   2.254 -1.5086  0.5872  0.7047
10029TIP3    H251579   4.994   6.248   2.207 -0.5820 -1.1876 -1.1743
10030TIP3   OH251580   1.590   6.766   5.952 -0.7059 -0.1546  0.0086
10030TIP3    H151581   1.671   6.786   5.999 -1.6760  2.0507  0.8953
10030TIP3    H251582   1.606   6.680   5.913  1.3817 -0.6081  1.6344
10031TIP3   OH251583   5.834   3.576  12.809 -0.2705  0.2630 -0.1763
10031TIP3    H151584   5.831   3.579  12.713 -0.9798  1.5557 -0.1346
10031TIP3    H251585   5.757   3.525  12.833 -1.2685  1.6822 -0.2558
10032TIP3   OH251586   0.376   0.012   2.646  0.5106 -0.1708 -0.3904
10032TIP3    H151587   0.362  -0.077   2.680  2.8439 -0.0692  1.0862
10032TIP3    H251588   0.325   0.068   2.705  2.1422 -0.2600  1.1923
10033TIP3   OH251589   0.296   6.186   3.178 -0.0023  0.5838 -0.6478
10033TIP3    H151590   0.202   6.203   3.167  0.1141  1.2779 -0.5899
10033TIP3    H251591   0.334   6.272   3.194  0.5681  0.2311 -0.0744
10034TIP3   OH251592   6.179   3.971  12.234  1.0925  0.3509 -0.0800
10034TIP3    H151593   6.176   4.060  12.271  0.5037  0.7877 -1.1400
10034TIP3    H251594   6.140   3.916  12.302  0.5156  1.0586  0.1806
10035TIP3   OH251595   2.619   6.039   0.478  0.3739 -0.0336  0.0059
10035TIP3    H151596   2.690   6.092   0.443 -1.0890  0.8177 -1.8777
10035TIP3    H251597   2.574   6.097   0.540  1.3736 -0.6292  1.3273
10036TIP3   OH251598   4.800   5.694  13.400  0.4130  0.5550 -0.4056
10036TIP3    H151599   4.794   5.664  13.491  0.6407  0.2964 -0.4744
10036TIP3    H251600   4.788   5.614  13.347 -0.0348  0.7519 -0.6108
10037TIP3   OH251601   4.527   4.678   0.197 -0.0811 -0.4957 -0.0215
10037TIP3    H151602   4.546   4.728   0.276 -1.2533  0.6460 -0.4189
10037TIP3    H251603   4.492   4.595   0.229  0.8191 -0.6325  0.6490
10038TIP3   OH251604   6.277   4.012  15.587 -0.0379  0.1020 -0.4402
10038TIP3    H151605   6.247   3.926  15.560  0.7760 -0.5381  0.6111
10038TIP3    H251606   6.212   4.073  15.551 -0.8434 -0.9710 -0.8483
10039TIP3   OH251607   4.247   4.748  17.135  0.1722  0.2159  0.1539
10039TIP3    H151608   4.294   4.804  17.074  0.9800  0.5544  1.0718
10039TIP3    H251609   4.260   4.789  17.221  0.0889 -0.9224  0.7283
10040TIP3   OH251610   4.215   4.502   3.756  1.1320  0.3256  0.1531
10040TIP3    H151611   4.251   4.566   3.694  0.4250  0.7538  0.1786
10040TIP3    H251612   4.207   4.421   3.705 -2.2367  1.3855 -1.2456
10041TIP3   OH251613   4.373   6.176   4.397 -0.0279 -0.1787  0.3487
10041TIP3    H151614   4.302   6.138   4.448  1.6554 -1.5171  1.8507
10041TIP3    H251615   4.413   6.239   4.456  1.1194 -0.7692  0.2336
10042TIP3   OH251616   1.072   1.147  13.159 -0.5301 -0.3128  0.3009
10042TIP3    H151617   0.993   1.130  13.107 -0.1634 -1.0367 -0.0297
10042TIP3    H251618   1.144   1.138  13.097 -0.2222  1.4212  0.3518
10043TIP3   OH251619   4.090   2.904   5.615  0.3467  0.2591  0.3376
10043TIP3    H151620   4.042   2.875   5.693 -1.0428  0.4021 -0.4413
10043TIP3    H251621   4.027   2.896   5.543  1.1590  1.4372 -0.5526
10044TIP3   OH251622   5.140   2.927  11.425  0.2757  0.5479 -0.2696
10044TIP3    H151623   5.206   2.977  11.377 -0.2396  0.7378 -0.8053
10044TIP3    H251624   5.060   2.979  11.417  0.1249  0.4694  0.6207
10045TIP3   OH251625   2.916   4.205  15.798  0.2886 -0.0164 -0.3522
10045TIP3    H151626   2.863   4.284  15.788 -1.9375 -1.5398 -1.3007
10045TIP3    H251627   2.898   4.176  15.888 -3.0798 -2.1381 -1.5285
10046TIP3   OH251628   1.112   3.954   3.428 -0.5331 -0.5309  0.2267
10046TIP3    H151629   1.101   4.028   3.487 -0.4906 -0.4830  0.1747
10046TIP3    H251630   1.192   3.911   3.458 -0.7955 -0.8070  0.5264
10047TIP3   OH251631   4.819   5.953   5.469 -0.2866 -0.1301  0.3306
10047TIP3    H151632   4.826   5.871   5.421 -0.3758 -1.0451  1.8013
10047TIP3    H251633   4.856   5.933   5.556 -0.7313  1.2449  0.8647
10048TIP3   OH251634   0.398   5.309  16.548  0.0673 -0.2824  0.0423
10048TIP3    H151635   0.399   5.223  16.589  0.1259  0.1558  0.9848
10048TIP3    H251636   0.356   5.366  16.612 -0.4930  0.2822 -0.8061
10049TIP3   OH251637   1.653   0.758  14.824  0.0622 -0.1454 -0.0120
10049TIP3    H151638   1.707   0.730  14.898  1.0661 -1.3696 -1.1544
10049TIP3    H251639   1.570   0.710  14.835  1.3922 -3.0558 -1.3877
10050TIP3   OH251640   2.123   2.823  17.015 -0.1565  0.1058  0.0218
10050TIP3    H151641   2.159   2.855  16.933  0.1329 -0.1357  0.0532
10050TIP3    H251642   2.080   2.740  16.992  0.7796 -0.4581  0.2887
10051TIP3   OH251643   4.173   5.769   4.358 -0.2761 -0.4920  0.0481
10051TIP3    H151644   4.244   5.771   4.422 -0.3026  0.0752  0.0729
10051TIP3    H251645   4.093   5.765   4.411 -0.2596 -1.2794  0.0168
10052TIP3   OH251646   1.302   6.040  14.296  0.6798 -0.0354 -0.1217
10052TIP3    H151647   1.368   5.973  14.315  0.9853 -0.0500 -1.1868
10052TIP3    H251648   1.235   5.995  14.246 -0.5391 -0.1895  1.5836
10053TIP3   OH251649   3.703   3.109   3.994 -0.1193  0.4335  1.0496
10053TIP3    H151650   3.744   3.194   3.983  2.6988 -0.9491 -0.2918
10053TIP3    H251651   3.615   3.119   3.955  0.6699  2.3510 -0.3937
10054TIP3   OH251652   1.071   2.115   3.574 -0.2471  0.0560  0.2203
10054TIP3    H151653   1.123   2.076   3.644 -1.5118  1.8359  2.2709
10054TIP3    H251654   0.996   2.154   3.618 -0.6033  2.1636 -2.0154
10055TIP3   OH251655   5.527   3.287  15.728 -0.2226  0.2364  0.2739
10055TIP3    H151656   5.516   3.313  15.636  0.2115 -1.9893 -0.4833
10055TIP3    H251657   5.617   3.256  15.734  0.5136  2.4780  2.1022
10056TIP3   OH251658   1.962   2.916   0.016  0.5613 -0.3865 -0.0561
10056TIP3    H151659   2.003   2.878   0.094  0.8198 -1.0521 -0.5107
10056TIP3    H251660   2.016   2.886  -0.057 -1.9399 -3.2908 -0.9558
10057TIP3   OH251661   2.790   3.640   1.735  0.5909 -0.0872  0.1722
10057TIP3    H151662   2.853   3.670   1.670 -0.7632  2.1591 -0.2149
10057TIP3    H251663   2.731   3.582   1.687 -0.1017  1.1551 -0.5133
10058TIP3   OH251664   6.210   0.100  17.183  0.2214  0.2024 -0.3992
10058TIP3    H151665   6.172   0.023  17.142  0.1245  0.7064 -1.3004
10058TIP3    H251666   6.213   0.080  17.276  1.1533 -1.2860 -0.7188
10059TIP3   OH251667   3.324   4.782  16.361  0.0919  0.2612  0.5847
10059TIP3    H151668   3.391   4.804  16.296 -0.3244  0.0485  0.0786
10059TIP3    H251669   3.271   4.862  16.367 -1.3627 -0.4942 -1.1823
10060TIP3   OH251670   0.816   5.753  16.385 -0.3046  0.4829  0.6022
10060TIP3    H151671   0.900   5.747  16.431 -0.1707 -1.2223  0.1938
10060TIP3    H251672   0.757   5.696  16.435 -0.8902  0.6998  0.1791
10061TIP3   OH251673   0.785   6.127   3.082  0.4667 -0.0050  0.3739
10061TIP3    H151674   0.844   6.121   3.007 -0.6534 -3.0022 -0.4191
10061TIP3    H251675   0.702   6.158   3.044  0.8176  1.9504  1.0803
10062TIP3   OH251676   3.970   0.397  16.594  0.5471  0.7206  0.4760
10062TIP3    H151677   3.973   0.490  16.574 -0.1044  0.4223 -1.2061
10062TIP3    H251678   4.061   0.374  16.616  0.6412  1.8095  1.2658
10063TIP3   OH251679   3.682   3.190   3.364  0.3237 -0.1686  0.2529
10063TIP3    H151680   3.751   3.168   3.426  0.5042 -2.0830 -0.5614
10063TIP3    H251681   3.601   3.188   3.415  0.4853 -1.5856  0.4801
10064TIP3   OH251682   0.427   1.645   2.898 -0.3198 -0.0074  0.3248
10064TIP3    H151683   0.424   1.712   2.966 -1.7474 -0.6085  0.8915
10064TIP3    H251684   0.357   1.585   2.921 -1.1852  0.0455 -1.9680
10065TIP3   OH251685   6.714   3.637  15.204  0.0871 -0.5181 -0.4517
10065TIP3    H151686   6.676   3.564  15.156  0.7846 -0.0264 -1.8122
10065TIP3    H251687   6.745   3.697  15.136 -0.9881  1.3366  0.6173
10066TIP3   OH251688   5.903   4.604   3.541  0.2317 -0.2886 -0.0583
10066TIP3    H151689   5.893   4.571   3.630  1.9259 -0.0427  0.2646
10066TIP3    H251690   5.882   4.530   3.484  3.0768 -1.7544  0.6289
10067TIP3   OH251691   4.854   0.105   5.113 -0.4240  0.2575 -0.1234
10067TIP3    H151692   4.899   0.183   5.143  0.7989 -0.2099 -0.6740
10067TIP3    H251693   4.826   0.126   5.023  0.1491 -0.0239 -0.3724
10068TIP3   OH251694   2.130   0.531  15.114 -0.5276  0.1010  0.4873
10068TIP3    H151695   2.137   0.464  15.183  0.3860  0.2660  0.5704
10068TIP3    H251696   2.201   0.509  15.053  0.2614  1.4271  0.8985
10069TIP3   OH251697   4.153   4.404   0.372  0.3253  0.0116  0.0847
10069TIP3    H151698   4.094   4.480   0.368  2.7123  1.9383 -2.0117
10069TIP3    H251699   4.192   4.410   0.459 -0.5154  0.3746  0.4505
10070TIP3   OH251700   6.075   6.684   4.450 -0.0849 -0.0597  0.0560
10070TIP3    H151701   6.151   6.625   4.450  0.2077  0.2948 -1.1093
10070TIP3    H251702   6.000   6.626   4.433  0.1531 -0.1726 -0.6708
10071TIP3   OH251703   4.564   6.390  11.920 -0.0541  0.0908 -0.1451
10071TIP3    H151704   4.577   6.316  11.980  0.9234  0.7199  0.4541
10071TIP3    H251705   4.641   6.389  11.863 -0.0997  0.5532 -0.2225
10072TIP3   OH251706   5.772   5.083   4.043 -0.0539 -0.2737 -0.2603
10072TIP3    H151707   5.793   5.117   3.956  1.6699  0.0234  0.2456
10072TIP3    H251708   5.691   5.033   4.029  0.5075 -0.7679 -2.1612
10073TIP3   OH251709   1.704   2.418  11.769 -0.2037  0.8536  0.8614
10073TIP3    H151710   1.672   2.423  11.859  2.7543  0.7605  2.0372
10073TIP3    H251711   1.783   2.472  11.769  0.9436 -0.6721 -1.1733
10074TIP3   OH251712   1.648   2.425   1.044  0.2102 -0.2836 -0.0613
10074TIP3    H151713   1.615   2.447   1.131 -0.3075  3.2902 -1.0286
10074TIP3    H251714   1.685   2.337   1.055 -4.6826 -2.4551  2.4089
10075TIP3   OH251715   6.123   2.726   2.153  0.2215  0.1232 -0.1492
10075TIP3    H151716   6.102   2.806   2.104 -0.5930  1.1123  1.7267
10075TIP3    H251717   6.095   2.655   2.095 -2.5956  1.2683 -0.3758
10076TIP3   OH251718   5.015   4.629   0.341  0.0618 -0.2918  0.0379
10076TIP3    H151719   5.022   4.577   0.421  0.5908  1.6990  1.3383
10076TIP3    H251720   4.944   4.690   0.357  1.2009  1.1846 -0.3637
10077TIP3   OH251721   6.141   5.593  15.124  0.2137 -0.6247  0.8615
10077TIP3    H151722   6.228   5.585  15.087 -0.1954 -1.8705  0.1181
10077TIP3    H251723   6.123   5.507  15.162 -1.2633 -0.8861 -0.3237
10078TIP3   OH251724   2.612   2.059  16.533 -0.7770  0.6956 -0.1333
10078TIP3    H151725   2.568   2.002  16.469  3.4079 -0.2926 -2.5094
10078TIP3    H251726   2.577   2.146  16.515 -2.4448 -0.1140 -1.1266
10079TIP3   OH251727   1.860   1.506   0.093 -0.1760  0.3760  0.3963
10079TIP3    H151728   1.823   1.593   0.109  1.6750  0.8957  2.2714
10079TIP3    H251729   1.825   1.452   0.164  0.3701  0.1278  0.4798
10080TIP3   OH251730   4.318   3.698   0.865  0.4450 -0.0404  0.2513
10080TIP3    H151731   4.400   3.744   0.884  0.1059  0.2335  1.1294
10080TIP3    H251732   4.255   3.738   0.925 -1.0734  1.7936 -2.3782
10081TIP3   OH251733   3.505   2.960  16.009 -0.2308 -0.0748  0.4507
10081TIP3    H151734   3.438   2.983  15.944 -0.2927 -1.8206 -0.1367
10081TIP3    H251735   3.504   3.034  16.070  0.3233  1.9948 -1.8683
10082TIP3   OH251736   1.959   5.311   5.064 -0.3162  0.0624 -0.0299
10082TIP3    H151737   1.978   5.371   4.991 -0.6411  0.7030  0.3990
10082TIP3    H251738   1.873   5.340   5.096  0.4233  0.6525  1.4603
10083TIP3   OH251739   3.729   1.158  11.045  0.1091  0.0663  0.2606
10083TIP3    H151740   3.822   1.181  11.047  0.2174 -0.1265 -1.3578
10083TIP3    H251741   3.718   1.109  10.964 -1.3563 -0.1587  0.5710
10084TIP3   OH251742   1.538   1.960   6.207  0.0776  0.0240  0.3551
10084TIP3    H151743   1.480   1.920   6.271  0.8273 -0.2865  0.8467
10084TIP3    H251744   1.491   2.039   6.178 -1.3819 -1.1398 -0.5897
10085TIP3   OH251745   6.145   4.946  15.869 -0.0827  0.3708 -0.0898
10085TIP3    H151746   6.098   4.862  15.866  0.4167  0.0947 -0.1967
10085TIP3    H251747   6.234   4.925  15.842  0.5236  0.6033  1.5984
10086TIP3   OH251748   6.780   1.225  13.856 -0.2181 -0.4054 -0.2478
10086TIP3    H151749   6.707   1.279  13.826  0.0567 -0.4851 -1.0795
10086TIP3    H251750   6.755   1.136  13.833  0.2856 -0.3970 -0.8422
10087TIP3   OH251751   1.921   6.546   5.329  0.3778  0.8069 -0.1880
10087TIP3    H151752   1.846   6.504   5.370  1.0017 -0.4158 -0.2643
10087TIP3    H251753   1.913   6.524   5.236  1.2202  0.0303 -0.0894
10088TIP3   OH251754   3.938   4.266  16.347 -0.1481  0.3349 -0.2975
10088TIP3    H151755   3.959   4.353  16.381  0.6958 -0.2778  0.8307
10088TIP3    H251756   3.843   4.261  16.354 -0.0787  0.5725  1.2008
10089TIP3   OH251757   3.648   0.614  12.727  0.7995 -0.2693  0.6296
10089TIP3    H151758   3.697   0.664  12.662 -3.3770  1.5944 -1.4814
10089TIP3    H251759   3.679   0.647  12.811  2.5841  1.3178 -0.5760
10090TIP3   OH251760   4.083   1.148   1.436  0.5020 -0.2162  0.1014
10090TIP3    H151761   4.045   1.228   1.398  1.4558  0.4204  0.4470
10090TIP3    H251762   4.164   1.135   1.388  1.4985  0.3439  1.5561
10091TIP3   OH251763   0.044   3.826  15.939  0.6049 -0.2910 -0.3961
10091TIP3    H151764   0.050   3.833  16.034  1.8339  0.1940 -0.4965
10091TIP3    H251765  -0.038   3.778  15.924  0.1091  0.1218  0.8756
10092TIP3   OH251766   3.984   1.668  14.692  0.2360 -0.6096  0.2904
10092TIP3    H151767   4.054   1.666  14.627 -0.8763 -3.3372 -0.9887
10092TIP3    H251768   3.996   1.588  14.743  0.2183  0.7593  2.5985
10093TIP3   OH251769   3.168   2.162   2.372 -0.0293  0.1126 -0.4161
10093TIP3    H151770   3.094   2.102   2.368  1.3026 -1.7394  0.8074
10093TIP3    H251771   3.212   2.153   2.287  0.4154 -1.0288 -0.0765
10094TIP3   OH251772   6.070   3.205  10.657  0.5413  0.1615  0.4468
10094TIP3    H151773   6.058   3.141  10.586  1.2150  0.5584 -0.0402
10094TIP3    H251774   6.032   3.162  10.734 -0.7570 -0.0375 -0.2600
10095TIP3   OH251775   2.103   6.168   1.741 -0.3678 -0.2278 -0.4330
10095TIP3    H151776   2.198   6.171   1.753 -0.3549 -1.4239 -0.0619
10095TIP3    H251777   2.084   6.075   1.725 -1.6063 -0.2308  0.8491
10096TIP3   OH251778   1.789   3.923  11.345 -0.5528  0.8287 -0.1290
10096TIP3    H151779   1.839   3.906  11.424 -0.4612  1.5662 -0.0179
10096TIP3    H251780   1.826   3.864  11.279  1.3461  2.2278 -0.4034
10097TIP3   OH251781   3.346   0.043   3.836 -0.4137 -0.1231 -0.2679
10097TIP3    H151782   3.366   0.135   3.819 -0.5737 -0.0076  0.1738
10097TIP3    H251783   3.354   0.033   3.931 -0.3011 -0.5861 -0.3239
10098TIP3   OH251784   6.517   2.514  15.990 -0.2739  0.0679  0.4562
10098TIP3    H151785   6.556   2.431  16.018 -0.8937 -0.3606  0.0401
10098TIP3    H251786   6.584   2.579  16.013  0.4952 -0.6052  0.1946
10099TIP3   OH251787   4.315   6.657  14.933  0.2934 -0.4384 -0.4379
10099TIP3    H151788   4.405   6.634  14.909 -0.0499 -2.5066  0.0178
10099TIP3    H251789   4.301   6.615  15.018 -0.4324  1.7171  0.5707
10100TIP3   OH251790   1.426   2.277  13.317 -0.1905  0.1286  0.4348
10100TIP3    H151791   1.332   2.259  13.322 -1.0034  2.7651 -2.1480
10100TIP3    H251792   1.456   2.227  13.241  0.5057 -0.5837  1.1580
10101TIP3   OH251793   6.522   2.147   1.116 -0.4309 -0.2966  0.8219
10101TIP3    H151794   6.466   2.222   1.096 -1.2508 -0.8693  0.9009
10101TIP3    H251795   6.556   2.118   1.032  1.1328  1.0764  0.9275
10102TIP3   OH251796   5.109   0.821  14.177 -0.1322  0.4449 -0.1414
10102TIP3    H151797   5.066   0.858  14.100  2.1299  0.5364 -1.4465
10102TIP3    H251798   5.131   0.731  14.151 -0.6897 -0.0334  0.9817
10103TIP3   OH251799   4.551   6.596  13.308 -0.1705 -0.0545  0.3847
10103TIP3    H151800   4.490   6.669  13.305 -0.9149 -0.5851  1.7412
10103TIP3    H251801   4.627   6.625  13.257 -0.2754  1.8130  1.2371
10104TIP3   OH251802   4.020   3.061  13.190  0.6300 -0.4003 -0.4881
10104TIP3    H151803   3.981   2.978  13.218 -1.9310  1.1792  1.0572
10104TIP3    H251804   4.056   3.099  13.270  0.2062  0.7309 -0.8133
10105TIP3   OH251805   1.946   6.810  14.756 -0.0894  0.6405 -0.2537
10105TIP3    H151806   2.015   6.873  14.734 -0.8926  1.5329 -0.2671
10105TIP3    H251807   1.884   6.859  14.809 -0.6894 -0.1710 -0.1766
10106TIP3   OH251808   3.093   4.508   0.516 -0.0546  0.2469  0.1050
10106TIP3    H151809   3.017   4.476   0.466 -0.1631  0.8540 -0.1226
10106TIP3    H251810   3.168   4.467   0.473 -0.3535 -2.1512  1.6806
10107TIP3   OH251811   0.905   2.615   5.656 -0.2090  0.3195  0.2209
10107TIP3    H151812   1.000   2.628   5.652 -0.2495  0.7716  0.6208
10107TIP3    H251813   0.887   2.604   5.750 -0.2868 -1.8396  0.0037
10108TIP3   OH251814   4.573   3.351   0.116 -0.7340  0.5049  0.3337
10108TIP3    H151815   4.653   3.318   0.076 -1.9084  0.0597 -1.8077
10108TIP3    H251816   4.520   3.273   0.133 -1.9395  0.9468 -1.1640
10109TIP3   OH251817   6.567   6.721   0.651 -0.3275 -0.6972  0.1778
10109TIP3    H151818   6.535   6.632   0.666 -1.7489 -0.1943  0.2128
10109TIP3    H251819   6.489   6.772   0.632  0.5564  0.3972 -0.6451
10110TIP3   OH251820   6.538   6.012   0.243  0.5178  0.0202  0.2828
10110TIP3    H151821   6.583   6.095   0.230 -1.4553  1.0285 -0.6299
10110TIP3    H251822   6.446   6.032   0.226 -0.0287 -2.3463  0.0818
10111TIP3   OH251823   4.462   4.929  14.949 -0.1183 -0.4605 -0.2681
10111TIP3    H151824   4.524   5.000  14.968  0.0180 -0.4575 -0.7151
10111TIP3    H251825   4.376   4.969  14.958 -0.0382 -0.1409 -0.8697
10112TIP3   OH251826   6.266   6.178  12.449  0.4968  0.2561 -0.2139
10112TIP3    H151827   6.200   6.129  12.499 -0.0783 -0.0034 -1.2035
10112TIP3    H251828   6.306   6.113  12.391  1.2170  0.5379 -0.0527
10113TIP3   OH251829   0.743   3.065   5.376 -0.1263  0.6106  0.5824
10113TIP3    H151830   0.755   3.067   5.471 -2.1701  0.1540  0.9134
10113TIP3    H251831   0.826   3.095   5.340  1.2375 -0.6521  2.4686
10114TIP3   OH251832   4.450   6.340  13.214  0.5308  0.1828  0.1058
10114TIP3    H151833   4.425   6.427  13.246  0.3531 -0.0692  0.6561
10114TIP3    H251834   4.416   6.280  13.280 -1.3095 -0.4641 -1.3466
10115TIP3   OH251835   5.595   2.500   4.992 -0.1053  0.3146  0.5574
10115TIP3    H151836   5.663   2.550   4.947 -0.0995  0.9728  1.2623
10115TIP3    H251837   5.523   2.563   5.002 -1.3231 -0.7082 -1.2583
10116TIP3   OH251838   6.619   2.049  13.385  0.3603 -0.1892  0.3597
10116TIP3    H151839   6.560   2.019  13.454 -1.0454 -2.0055 -1.5011
10116TIP3    H251840   6.661   1.969  13.353 -0.4632  0.3012 -2.1174
10117TIP3   OH251841   0.366   4.060   1.733  0.0625 -0.4683 -0.4766
10117TIP3    H151842   0.440   4.047   1.673  0.3459  3.9890 -1.4656
10117TIP3    H251843   0.290   4.027   1.685  0.9381 -2.0741 -0.8309
10118TIP3   OH251844   2.761   5.167  16.061  0.1478  0.2637 -0.1631
10118TIP3    H151845   2.716   5.247  16.088 -0.5889 -0.4804  0.8920
10118TIP3    H251846   2.712   5.138  15.984 -0.9537 -0.2946  0.7132
10119TIP3   OH251847   0.736   4.366  12.200 -0.0967  0.6033 -0.3121
10119TIP3    H151848   0.673   4.364  12.272  2.0187 -1.5548  1.6707
10119TIP3    H251849   0.775   4.453  12.204 -0.9858  0.9860  0.2482
10120TIP3   OH251850   4.553   3.286   5.336  0.4407 -0.0979  0.1969
10120TIP3    H151851   4.638   3.255   5.367  0.3156 -0.2205  0.4225
10120TIP3    H251852   4.529   3.355   5.397  1.2977  1.3496 -1.0386
10121TIP3   OH251853   0.215   0.205  10.708 -0.1910  0.2633 -0.6856
10121TIP3    H151854   0.140   0.260  10.683 -0.5728  0.3058  0.5287
10121TIP3    H251855   0.181   0.147  10.775  0.4600 -0.8508 -1.2978
10122TIP3   OH251856   5.025   2.554   4.444  0.1796  0.3935  0.8812
10122TIP3    H151857   5.115   2.587   4.450  0.9851 -0.6043 -2.9020
10122TIP3    H251858   5.036   2.459   4.441 -1.0163  0.2546  0.5885
10123TIP3   OH251859   0.336   3.203   2.166 -0.0572 -0.1818 -0.4644
10123TIP3    H151860   0.289   3.232   2.088  1.4092 -1.9981 -2.1132
10123TIP3    H251861   0.380   3.281   2.199 -1.1902  0.7405 -1.0579
10124TIP3   OH251862   0.917   6.036  15.619 -0.6002 -0.2102  0.4168
10124TIP3    H151863   0.897   5.971  15.686 -2.0254 -0.1546  0.0853
10124TIP3    H251864   0.862   6.011  15.545 -0.7808  1.0504  0.0992
10125TIP3   OH251865   1.860   2.277  11.558  0.3631 -0.0620 -0.4077
10125TIP3    H151866   1.836   2.362  11.594  0.4749 -0.3950  0.4787
10125TIP3    H251867   1.816   2.273  11.473 -0.7872  0.3006  0.1576
10126TIP3   OH251868   2.808   2.677   1.429 -0.6065  0.3685  0.6455
10126TIP3    H151869   2.804   2.728   1.349 -1.7715 -1.1825 -0.3440
10126TIP3    H251870   2.900   2.652   1.437 -0.7661 -1.0819 -1.3354
10127TIP3   OH251871   6.335   1.479  12.687  0.1444 -0.0518  0.0304
10127TIP3    H151872   6.242   1.485  12.666 -0.3121  0.8361  2.0632
10127TIP3    H251873   6.350   1.386  12.706 -0.2633 -0.2340 -0.5149
10128TIP3   OH251874   4.737   1.923  14.845 -0.5960  0.2796 -0.2582
10128TIP3    H151875   4.741   1.907  14.751  0.7170  1.2155 -0.4034
10128TIP3    H251876   4.734   2.019  14.852  1.2642  0.3171  0.6463
10129TIP3   OH251877   6.746   4.263  16.045 -0.2020  0.1027  0.0454
10129TIP3    H151878   6.674   4.294  16.100 -1.2471 -1.9702 -0.0672
10129TIP3    H251879   6.714   4.274  15.955  0.0223  0.0831 -0.0392
10130TIP3   OH251880   0.796   2.233  17.124  0.4892 -0.0303 -0.3913
10130TIP3    H151881   0.817   2.140  17.139  0.4840  0.0354  0.0434
10130TIP3    H251882   0.700   2.236  17.125  0.4549  0.3177  1.9361
10131TIP3   OH251883   4.660   4.636   4.969 -0.3959  0.2583 -0.3181
10131TIP3    H151884   4.693   4.561   5.019 -1.1124 -0.0933 -0.3556
10131TIP3    H251885   4.610   4.687   5.033  0.4698  0.9570 -0.1866
10132TIP3   OH251886   1.728   5.185   3.188 -0.5187  0.1406  0.8780
10132TIP3    H151887   1.820   5.180   3.216 -0.7775 -2.0692  1.5315
10132TIP3    H251888   1.732   5.202   3.094  0.5067  1.4963  1.1402
10133TIP3   OH251889   0.127   4.983   0.260  0.4708  0.0146  1.0180
10133TIP3    H151890   0.169   4.999   0.176  0.4418 -1.0437  0.7939
10133TIP3    H251891   0.041   5.024   0.253 -0.6484 -2.4008 -0.5122
10134TIP3   OH251892   4.247   6.086   4.008  0.1726 -0.5100  0.5209
10134TIP3    H151893   4.196   6.068   3.928  1.6437 -1.6984 -0.1977
10134TIP3    H251894   4.293   6.167   3.988 -1.1129  0.3811  1.0390
10135TIP3   OH251895   0.774   5.149  16.088  0.4020 -0.1089 -0.0782
10135TIP3    H151896   0.865   5.160  16.060  0.3074  0.3725 -0.2040
10135TIP3    H251897   0.777   5.161  16.183  0.3942  0.4504 -0.1413
10136TIP3   OH251898   0.853   4.504  15.539  0.4390 -0.4299 -0.6804
10136TIP3    H151899   0.823   4.594  15.554  2.2377  0.6714 -2.9830
10136TIP3    H251900   0.776   4.450  15.555  0.1179  1.0275  4.1897
10137TIP3   OH251901   1.201   3.781   2.736 -0.5241 -0.5393  0.0870
10137TIP3    H151902   1.161   3.705   2.778  2.0907 -1.5507  0.9338
10137TIP3    H251903   1.150   3.794   2.656 -4.7539  0.5348  2.6297
10138TIP3   OH251904   5.663   2.253   2.698 -0.0714 -0.2503 -0.3513
10138TIP3    H151905   5.740   2.209   2.734 -0.1245  0.4731  0.6653
10138TIP3    H251906   5.693   2.342   2.681 -1.0243  0.4181  1.2981
10139TIP3   OH251907   6.469   2.808   1.414  0.0530  0.3698  0.4169
10139TIP3    H151908   6.482   2.891   1.459  0.5879 -0.2677  1.4781
10139TIP3    H251909   6.548   2.758   1.433 -0.3542 -0.4569 -0.0274
10140TIP3   OH251910   5.845   3.916  11.414  0.0227 -0.4798 -1.1354
10140TIP3    H151911   5.901   3.967  11.472  0.2591 -0.0474 -1.7297
10140TIP3    H251912   5.772   3.888  11.469  0.7339 -0.9129 -0.4009
10141TIP3   OH251913   1.333   0.055   3.859 -0.0465  0.6853 -0.4277
10141TIP3    H151914   1.336  -0.005   3.933 -2.5669 -1.3175 -1.7775
10141TIP3    H251915   1.251   0.103   3.870 -0.5145  0.2906 -1.8921
10142TIP3   OH251916   1.174   6.207  13.899  0.0557 -0.4527 -0.1811
10142TIP3    H151917   1.117   6.153  13.845  0.7176 -0.5188 -0.8184
10142TIP3    H251918   1.138   6.295  13.892 -0.3358 -0.6009 -0.0707
10143TIP3   OH251919   6.374   1.409   3.150  0.4194 -0.0829 -0.1946
10143TIP3    H151920   6.385   1.488   3.203  0.8204  0.0832 -0.5191
10143TIP3    H251921   6.347   1.342   3.212 -0.1361  0.3595  0.0500
10144TIP3   OH251922   3.664   2.304   4.172  0.1216  0.0789 -0.8511
10144TIP3    H151923   3.718   2.304   4.251  0.4315  1.3916 -1.0336
10144TIP3    H251924   3.676   2.217   4.134  2.0491  0.2955 -0.8236
10145TIP3   OH251925   2.958   5.553  12.510 -0.4698  0.4179 -0.2391
10145TIP3    H151926   2.974   5.496  12.584 -0.5624  1.2646  0.4474
10145TIP3    H251927   2.887   5.610  12.538  1.5534  2.8599  0.2804
10146TIP3   OH251928   5.129   2.031  11.963  0.1302  0.0125 -0.1706
10146TIP3    H151929   5.081   1.951  11.945 -0.2949 -0.0707  1.1684
10146TIP3    H251930   5.069   2.101  11.938  0.5786 -0.0603 -1.5286
10147TIP3   OH251931   5.218   5.598  16.602  0.0341  0.2255  0.2540
10147TIP3    H151932   5.308   5.570  16.621  0.1942  0.9398  0.5775
10147TIP3    H251933   5.166   5.560  16.673 -0.2522 -1.8426 -0.9781
10148TIP3   OH251934   4.976   2.937  12.136 -0.4634 -0.1853  0.5021
10148TIP3    H151935   4.923   2.987  12.074 -1.4910 -1.1019  0.6095
10148TIP3    H251936   5.066   2.962  12.116 -0.7144 -0.8401 -1.7530
10149TIP3   OH251937   1.133   2.925   0.360 -0.3931 -0.0436 -0.2554
10149TIP3    H151938   1.040   2.940   0.376 -0.3361 -2.0146  2.7377
10149TIP3    H251939   1.177   3.002   0.397 -0.7302 -0.6091  1.3789
10150TIP3   OH251940   3.024   5.314   3.261  0.2152 -0.0327 -0.6211
10150TIP3    H151941   3.079   5.388   3.286 -0.3460 -0.0464  0.7784
10150TIP3    H251942   3.081   5.237   3.271 -0.0120 -0.0470  0.8141
10151TIP3   OH251943   6.612   5.616   3.663  0.0355 -0.0119  0.3447
10151TIP3    H151944   6.632   5.531   3.623 -1.1493  0.0262 -0.4119
10151TIP3    H251945   6.617   5.601   3.757  3.8547  0.1170  0.3081
10152TIP3   OH251946   4.956   1.227  11.355 -0.2755 -0.2690 -0.2733
10152TIP3    H151947   4.921   1.155  11.303 -3.4588  0.7179  0.2997
10152TIP3    H251948   4.879   1.277  11.381  1.6886  2.5922  0.4855
10153TIP3   OH251949   2.233   0.133   4.961 -0.5411 -0.1012 -0.2215
10153TIP3    H151950   2.317   0.153   4.921 -0.6419 -1.8950 -1.4500
10153TIP3    H251951   2.185   0.083   4.894 -0.9003 -2.8444  1.8678
10154TIP3   OH251952   6.646   1.123  15.279 -0.7589 -0.4872  0.6090
10154TIP3    H151953   6.552   1.127  15.295 -0.6887 -0.1282  0.9596
10154TIP3    H251954   6.657   1.053  15.215 -1.1027 -1.5943  1.7221
10155TIP3   OH251955   2.782   1.828   2.604 -0.1731 -0.4179 -0.1487
10155TIP3    H151956   2.806   1.741   2.636 -1.5461 -0.9191 -0.3927
10155TIP3    H251957   2.839   1.843   2.529  0.5314 -0.8116  0.2973
10156TIP3   OH251958   2.537   0.489  14.481  0.1550 -0.1563 -0.2987
10156TIP3    H151959   2.445   0.474  14.459  0.0261 -1.5259  0.9771
10156TIP3    H251960   2.576   0.526  14.401 -0.9954 -1.6920 -1.6323
10157TIP3   OH251961   5.903   6.437  11.651  0.0231 -0.1094  0.0099
10157TIP3    H151962   5.937   6.360  11.606  2.1654  0.5897  0.3329
10157TIP3    H251963   5.889   6.501  11.582  0.5833  0.0241  0.0225
10158TIP3   OH251964   1.714   0.531  15.906 -0.1660 -0.4958  0.0897
10158TIP3    H151965   1.751   0.570  15.826  1.2811 -1.7016  0.1173
10158TIP3    H251966   1.653   0.597  15.939 -0.6298  0.1410 -1.8748
10159TIP3   OH251967   3.715   6.739   6.396  0.4634 -0.0501 -0.2762
10159TIP3    H151968   3.800   6.761   6.357  0.6411 -0.5342 -0.1750
10159TIP3    H251969   3.671   6.689   6.327  0.1766  0.3720 -0.4027
10160TIP3   OH251970   0.611   0.973   3.902 -1.0157 -0.7220  0.7057
10160TIP3    H151971   0.650   0.951   3.987  2.9720  0.1722 -0.6938
10160TIP3    H251972   0.615   1.068   3.898 -0.4761 -0.7858 -0.7166
10161TIP3   OH251973   1.475   0.052  10.438  0.0731  1.0507  0.0647
10161TIP3    H151974   1.506   0.142  10.444  2.5577  0.2929  0.0261
10161TIP3    H251975   1.460   0.025  10.528 -0.4364  1.4343  0.0927
10162TIP3   OH251976   6.039   2.287   1.174 -0.1431  0.0330 -0.5952
10162TIP3    H151977   6.072   2.369   1.137 -0.1163  0.2336 -0.1301
10162TIP3    H251978   6.091   2.274   1.254 -0.4355 -0.2156 -0.4441
10163TIP3   OH251979   5.139   4.823   1.023  0.2343  0.3727 -0.0617
10163TIP3    H151980   5.106   4.774   1.098  0.9225  0.0704  0.0533
10163TIP3    H251981   5.173   4.904   1.060  4.5348 -1.4741  0.6950
10164TIP3   OH251982   6.062   4.874  13.957  0.2993 -0.1566  0.0581
10164TIP3    H151983   5.985   4.905  13.909  0.3158  0.3319  0.3312
10164TIP3    H251984   6.037   4.788  13.990 -1.1001  0.9713  2.2307
10165TIP3   OH251985   0.598   0.152   4.577  0.6436 -0.2532 -0.2073
10165TIP3    H151986   0.523   0.204   4.605  1.0475 -0.8087  2.1825
10165TIP3    H251987   0.660   0.216   4.542 -1.0480  0.1667 -2.6521
10166TIP3   OH251988   3.533   5.638  11.931  0.0746 -0.2333  0.0303
10166TIP3    H151989   3.445   5.648  11.895 -0.4537 -1.1376  1.0243
10166TIP3    H251990   3.520   5.635  12.026  1.1587 -0.5609  0.1795
10167TIP3   OH251991   0.100   6.673   5.404  0.2051 -0.4312 -0.4095
10167TIP3    H151992   0.029   6.732   5.378  1.4444  2.4288  2.1062
10167TIP3    H251993   0.068   6.631   5.483  0.7441 -0.2865 -0.1123
10168TIP3   OH251994   0.946   6.637  16.692  0.1940 -0.1468  0.4741
10168TIP3    H151995   0.923   6.659  16.602  1.8021  0.6065  0.2132
10168TIP3    H251996   0.888   6.691  16.746 -0.7079 -0.5337 -0.0988
10169TIP3   OH251997   0.963   5.441  13.506 -0.1432 -0.1193 -0.2697
10169TIP3    H151998   0.994   5.352  13.523 -1.1413 -0.5517 -0.6741
10169TIP3    H251999   0.888   5.453  13.563 -1.9067 -0.6615 -2.3634
10170TIP3   OH252000   0.071   6.447  16.477 -0.2724  1.0557  0.1541
10170TIP3    H152001   0.057   6.391  16.401  0.0409  0.1082  0.7719
10170TIP3    H252002   0.023   6.527  16.458 -1.3292  0.2950 -0.4515
10171TIP3   OH252003   6.737   4.122   0.727  0.2915 -0.1031  0.2587
10171TIP3    H152004   6.693   4.063   0.788  0.7398 -0.7852 -0.0674
10171TIP3    H252005   6.677   4.196   0.718  0.0509 -0.1711  1.2281
10172TIP3   OH252006   0.177   1.481  11.502 -0.6109  0.6145  0.1675
10172TIP3    H152007   0.227   1.440  11.573  1.0718  2.8690  0.3525
10172TIP3    H252008   0.109   1.532  11.547  0.0946  1.5789  0.1607
10173TIP3   OH252009   0.663   1.699   2.753  0.3247 -0.2846 -0.0197
10173TIP3    H152010   0.693   1.790   2.748  0.6806 -0.4670 -2.5406
10173TIP3    H252011   0.574   1.705   2.788  0.8034  0.8866  1.0710
10174TIP3   OH252012   2.955   6.508  16.902 -0.5588  0.0084 -0.4067
10174TIP3    H152013   2.959   6.604  16.897  1.2995 -0.0170 -0.0575
10174TIP3    H252014   3.046   6.481  16.910 -1.0543 -1.8135 -0.5881
10175TIP3   OH252015   4.176   6.141   5.095 -0.6077  0.0931  0.0144
10175TIP3    H152016   4.184   6.079   5.168 -0.3538 -0.1685 -0.2313
10175TIP3    H252017   4.089   6.125   5.060  0.1655 -1.5355 -1.2905
10176TIP3   OH252018   4.873   0.074   1.210 -0.3079  0.3647  0.2875
10176TIP3    H152019   4.964   0.091   1.232 -0.9082  0.6287  2.9629
10176TIP3    H252020   4.848   0.147   1.153  0.8033  1.0049  0.5889
10177TIP3   OH252021   5.347   2.837   5.163 -0.0734  0.2512 -0.4484
10177TIP3    H152022   5.377   2.782   5.090  0.9927 -0.5289  0.5587
10177TIP3    H252023   5.413   2.906   5.170 -0.0816  0.2239 -0.1103
10178TIP3   OH252024   0.701   4.606  16.105  1.0447 -0.3672  0.7850
10178TIP3    H152025   0.652   4.686  16.125  2.0640  0.1956  1.0704
10178TIP3    H252026   0.690   4.552  16.183 -3.1216 -2.3789 -0.8733
10179TIP3   OH252027   3.594   0.612  13.683  0.4999  0.3739 -0.1256
10179TIP3    H152028   3.542   0.691  13.670  1.4156  1.0892  0.4573
10179TIP3    H252029   3.676   0.630  13.638  0.2489 -0.7696 -1.0943
10180TIP3   OH252030   4.172   0.878   1.950  0.5824 -0.5890 -0.0901
10180TIP3    H152031   4.222   0.852   1.873 -0.4446 -0.0750 -0.9593
10180TIP3    H252032   4.226   0.851   2.024  2.7797  1.0830 -0.9438
10181TIP3   OH252033   6.559   0.477  12.298  0.1546  0.1523 -0.0687
10181TIP3    H152034   6.615   0.408  12.261  1.3545  0.9648  0.1905
10181TIP3    H252035   6.470   0.452  12.271  0.7518 -0.5107 -1.5551
10182TIP3   OH252036   1.853   2.052   3.532  0.7011  0.4307  0.6234
10182TIP3    H152037   1.873   1.969   3.487  1.3240  0.7107  0.3706
10182TIP3    H252038   1.912   2.052   3.607  0.7514  0.6805  0.5822
10183TIP3   OH252039   1.954   2.931  16.630  0.3198 -0.0147  0.1079
10183TIP3    H152040   2.002   3.013  16.641 -0.1139  0.2503  0.0828
10183TIP3    H252041   2.021   2.865  16.618  0.6643  0.4596 -0.6548
10184TIP3   OH252042   5.420   0.067  15.096 -0.3528  0.3231  0.0792
10184TIP3    H152043   5.329   0.086  15.118 -0.1885 -0.0231  1.0998
10184TIP3    H252044   5.423  -0.029  15.091  0.1548  0.2816  1.0013
10185TIP3   OH252045   5.438   3.268  11.878 -0.1114 -0.1751  0.5253
10185TIP3    H152046   5.522   3.223  11.869 -0.2588 -0.6134  1.2496
10185TIP3    H252047   5.436   3.295  11.970 -0.7933 -0.2355  0.5277
10186TIP3   OH252048   3.322   1.221  10.724  0.0981  0.3861 -0.8071
10186TIP3    H152049   3.365   1.301  10.754 -0.6614  0.7370 -0.6171
10186TIP3    H252050   3.262   1.198  10.795  0.5324 -0.5353 -0.7234
10187TIP3   OH252051   4.916   3.056  12.438  0.0357 -0.3877  0.2168
10187TIP3    H152052   4.842   3.075  12.380  1.0280  0.2891 -0.8860
10187TIP3    H252053   4.919   2.961  12.443 -1.1721 -0.4150  0.6505
10188TIP3   OH252054   6.491   4.304   5.580 -0.5706 -0.2379  0.1091
10188TIP3    H152055   6.435   4.353   5.520 -0.7242  0.2766  0.6704
10188TIP3    H252056   6.551   4.369   5.616  0.3126 -0.7670 -0.3989
10189TIP3   OH252057   1.695   4.513   3.083  0.3870  0.0140  0.3412
10189TIP3    H152058   1.678   4.546   2.995  0.9108 -0.0373  0.2177
10189TIP3    H252059   1.610   4.483   3.114  0.4626 -1.4900 -0.7860
10190TIP3   OH252060   2.933   3.214  16.736 -0.3982 -0.1717 -0.6447
10190TIP3    H152061   3.003   3.180  16.681  0.2037  0.2664 -0.1657
10190TIP3    H252062   2.856   3.216  16.679 -0.5303 -2.5087 -0.6495
10191TIP3   OH252063   0.943   4.014   5.411  0.0927 -0.0663 -0.0696
10191TIP3    H152064   1.016   3.994   5.468  0.9267  0.6203 -0.8669
10191TIP3    H252065   0.865   4.002   5.465  0.8984  2.9803  1.9978
10192TIP3   OH252066   4.050   6.426   3.672  0.3814  0.3511 -0.1765
10192TIP3    H152067   3.981   6.390   3.727  0.5948 -1.8380 -1.2403
10192TIP3    H252068   4.070   6.356   3.609  3.4243  0.9737 -0.0438
10193TIP3   OH252069   6.282   4.981  12.398 -0.0635  0.0838 -0.1345
10193TIP3    H152070   6.212   4.985  12.333  0.3536 -0.6428 -0.6364
10193TIP3    H252071   6.241   4.939  12.474 -0.4593  0.6298 -0.0440
10194TIP3   OH252072   0.479   4.848   6.174 -0.0779 -0.4430 -0.3735
10194TIP3    H152073   0.471   4.838   6.269  0.0427 -0.0030 -0.3179
10194TIP3    H252074   0.460   4.760   6.139 -0.9682 -0.4109  0.0064
10195TIP3   OH252075   4.837   2.068   3.626  0.1915  0.1072  0.7106
10195TIP3    H152076   4.876   2.152   3.603  1.9526 -0.9429 -0.3737
10195TIP3    H252077   4.848   2.061   3.721  0.0228  1.0902  0.8096
10196TIP3   OH252078   3.368   1.992   4.810 -0.0784 -0.4946  0.3436
10196TIP3    H152079   3.295   1.933   4.792  1.9155 -3.2513  0.5972
10196TIP3    H252080   3.432   1.972   4.742  0.7636  1.3310  0.5386
10197TIP3   OH252081   5.010   4.124   1.538  0.1086  0.6439 -0.1223
10197TIP3    H152082   4.914   4.129   1.535  0.0280  0.0085  0.8436
10197TIP3    H252083   5.035   4.097   1.450 -0.7611 -1.1938  0.1491
10198TIP3   OH252084   0.457   1.825  10.907 -0.1164 -0.5008  0.1210
10198TIP3    H152085   0.371   1.814  10.866 -0.7848  2.5349  0.4687
10198TIP3    H252086   0.458   1.916  10.936  2.6833 -0.8553  1.4551
10199TIP3   OH252087   0.949   2.265   5.863 -0.4718  1.0642  0.4644
10199TIP3    H152088   1.037   2.262   5.826 -0.3314  0.3415  0.8282
10199TIP3    H252089   0.898   2.207   5.807 -1.2910  3.2023 -1.1221
10200TIP3   OH252090   1.420   2.707   5.581 -0.3484  0.2533  0.5317
10200TIP3    H152091   1.427   2.799   5.556  1.0017  0.3710  1.2644
10200TIP3    H252092   1.492   2.664   5.536 -0.4238 -0.2907  0.9222
10201TIP3   OH252093   2.732   1.795  14.472 -0.3615 -0.7090 -0.4270
10201TIP3    H152094   2.680   1.726  14.431 -0.2107 -1.3770  0.4940
10201TIP3    H252095   2.760   1.850  14.399 -1.2507 -1.0918 -1.0731
10202TIP3   OH252096   5.841   2.357   4.756  0.0968 -0.2322 -0.0075
10202TIP3    H152097   5.835   2.438   4.806  0.5129  0.5721 -1.2119
10202TIP3    H252098   5.859   2.289   4.821  3.3268  1.1412  0.7043
10203TIP3   OH252099   1.706   0.058  10.765  0.1749 -0.4960 -0.1563
10203TIP3    H152100   1.726   0.083  10.674  2.2099 -0.8580  0.1480
10203TIP3    H252101   1.611   0.043  10.765 -0.1304  1.0577 -1.8328
10204TIP3   OH252102   0.507   5.020   0.254  0.4370 -0.0209 -0.2200
10204TIP3    H152103   0.588   4.973   0.236  0.7816  0.1947  0.7465
10204TIP3    H252104   0.486   4.999   0.345  0.2871  1.2109  0.0497
10205TIP3   OH252105   5.336   5.587  13.331 -0.0493 -0.3353  0.0541
10205TIP3    H152106   5.253   5.572  13.377 -0.2459 -0.8833 -0.4722
10205TIP3    H252107   5.318   5.663  13.275  0.8685  1.8640  2.5203
10206TIP3   OH252108   2.119   0.594  11.910  0.2548 -0.5913 -0.5347
10206TIP3    H152109   2.156   0.561  11.828  0.8119 -0.2715 -0.4200
10206TIP3    H252110   2.077   0.519  11.950 -0.6609 -0.6069 -1.4517
10207TIP3   OH252111   5.482   0.741  11.347  0.1030 -0.1048 -0.7430
10207TIP3    H152112   5.428   0.745  11.268 -2.6375 -0.3092  0.9862
10207TIP3    H252113   5.537   0.663  11.334  0.5688  0.4940 -2.8578
10208TIP3   OH252114   3.533   5.603  13.872  0.4798 -0.3473 -0.3616
10208TIP3    H152115   3.518   5.508  13.875  1.8729 -0.5555  1.7616
10208TIP3    H252116   3.452   5.641  13.905  0.6240 -0.9285  0.7116
10209TIP3   OH252117   4.922   2.991  15.022 -1.0323 -0.2740 -0.8480
10209TIP3    H152118   4.962   3.063  14.974 -0.5631  0.6869  0.9005
10209TIP3    H252119   4.987   2.921  15.019 -1.6314 -0.8012 -2.8505
10210TIP3   OH252120   1.384   1.621   6.090  0.3423  0.0405  0.6582
10210TIP3    H152121   1.328   1.557   6.134  1.9504 -1.6053  0.4035
10210TIP3    H252122   1.473   1.600   6.119  0.9738  1.8776  0.1939
10211TIP3   OH252123   5.697   2.568  12.583  0.6416  0.0792  0.1874
10211TIP3    H152124   5.759   2.572  12.511  1.2110  1.2195  0.7129
10211TIP3    H252125   5.729   2.633  12.646  1.2774 -2.1787  2.3719
10212TIP3   OH252126   4.258   1.575   0.731 -0.4133  0.4393 -0.0809
10212TIP3    H152127   4.202   1.626   0.673 -0.2755  0.2540 -0.3837
10212TIP3    H252128   4.340   1.625   0.735  0.1707 -0.3425 -1.3609
10213TIP3   OH252129   3.502   3.025  12.647 -0.2325 -0.0307 -0.6520
10213TIP3    H152130   3.477   3.036  12.556  1.2091 -1.8196 -1.3051
10213TIP3    H252131   3.596   3.043  12.649 -0.3720  0.6925  0.6316
10214TIP3   OH252132   0.695   5.781   1.818 -0.6769  0.1503 -0.2022
10214TIP3    H152133   0.682   5.733   1.900 -0.7887 -3.1928 -1.9992
10214TIP3    H252134   0.789   5.776   1.802 -0.6264  0.9746 -0.2149
10215TIP3   OH252135   4.417   1.010  14.643 -0.1202  0.7270  0.2047
10215TIP3    H152136   4.511   1.031  14.644  0.1210 -0.2757 -0.0408
10215TIP3    H252137   4.402   0.970  14.558 -0.3954 -0.6699  0.8667
10216TIP3   OH252138   6.276   2.695  16.263  0.0185 -0.4130  0.6586
10216TIP3    H152139   6.237   2.608  16.275 -1.3151 -0.2683 -1.9462
10216TIP3    H252140   6.302   2.697  16.171  2.0225  1.2332  1.1730
10217TIP3   OH252141   3.242   4.078  14.662 -0.0983  0.1454  0.6192
10217TIP3    H152142   3.174   4.140  14.635 -0.8177 -0.6416  0.6013
10217TIP3    H252143   3.325   4.122  14.639 -0.6042 -0.5351 -3.1466
10218TIP3   OH252144   5.910   0.628  15.649 -0.6408  0.1719  0.3308
10218TIP3    H152145   5.949   0.712  15.674  0.2900 -0.1025 -0.1367
10218TIP3    H252146   5.832   0.652  15.598 -1.2081  0.7327  1.4405
10219TIP3   OH252147   5.607   4.911   3.852  0.2957  0.4115 -0.0510
10219TIP3    H152148   5.535   4.935   3.794  0.7595  0.0163 -0.8146
10219TIP3    H252149   5.571   4.844   3.910 -0.1033  0.6219 -0.0560
10220TIP3   OH252150   2.980   2.098   3.260 -0.3168 -0.0340  0.4031
10220TIP3    H152151   3.043   2.074   3.328  2.4354  1.0077 -1.5983
10220TIP3    H252152   2.981   2.194   3.259 -3.0339  0.0894  1.1650
10221TIP3   OH252153   5.447   2.689  11.415 -0.0063  0.3948  0.9058
10221TIP3    H152154   5.360   2.689  11.377  0.3356 -2.0464 -0.0479
10221TIP3    H252155   5.486   2.771  11.386 -1.0381  0.2657 -0.9803
10222TIP3   OH252156   0.140   5.461   1.892 -0.1682  0.1474 -0.0898
10222TIP3    H152157   0.232   5.454   1.866 -0.6222 -1.7638 -1.4442
10222TIP3    H252158   0.131   5.398   1.964 -0.8268 -1.3040 -1.3868
10223TIP3   OH252159   4.738   5.313  14.069 -0.5560 -0.0837 -0.3500
10223TIP3    H152160   4.747   5.238  14.010 -0.4320 -0.2402 -0.1315
10223TIP3    H252161   4.649   5.306  14.104  0.3690 -1.7626  1.8794
10224TIP3   OH252162   5.538   5.534  12.611  0.1498 -0.3060  0.0539
10224TIP3    H152163   5.505   5.481  12.683 -1.9180  0.1053 -0.5117
10224TIP3    H252164   5.549   5.473  12.538 -0.1015 -0.3165  0.0261
10225TIP3   OH252165   2.297   2.102   3.645 -0.3586  0.6779 -0.5563
10225TIP3    H152166   2.228   2.114   3.710 -0.4806 -1.0218 -0.3095
10225TIP3    H252167   2.259   2.042   3.580  0.9660 -0.5782 -0.2230
10226TIP3   OH252168   4.804   1.060   0.459 -0.5064  0.4309 -0.1589
10226TIP3    H152169   4.747   1.081   0.385  0.4611  0.1029 -1.0297
10226TIP3    H252170   4.792   0.966   0.473 -0.1233  0.3442 -0.4015
10227TIP3   OH252171   0.041   0.369   3.634 -0.5500 -0.0350 -0.0378
10227TIP3    H152172  -0.038   0.421   3.650  0.3970  1.4506 -0.0573
10227TIP3    H252173   0.013   0.278   3.650 -1.9322  0.5626  1.2096
10228TIP3   OH252174   3.000   3.401   4.650 -0.1745 -0.8068  0.3104
10228TIP3    H152175   3.026   3.381   4.560 -0.7909 -2.5471  0.4952
10228TIP3    H252176   3.059   3.472   4.676  0.1529 -0.4038 -1.3791
10229TIP3   OH252177   2.839   2.865   0.603  0.3848  0.0375 -0.0712
10229TIP3    H152178   2.896   2.807   0.653  1.2124  0.0884 -0.9371
10229TIP3    H252179   2.896   2.935   0.573  0.1060 -0.4372 -1.8153
10230TIP3   OH252180   4.555   6.599  17.104  0.6665 -0.6843  0.1846
10230TIP3    H152181   4.511   6.627  17.023  2.4342 -1.6757 -1.1809
10230TIP3    H252182   4.603   6.676  17.133 -0.5951 -0.0868  0.7821
10231TIP3   OH252183   5.264   2.578  13.692 -0.0057  0.4519 -0.0387
10231TIP3    H152184   5.341   2.526  13.713 -0.2788  0.2300  0.4128
10231TIP3    H252185   5.237   2.617  13.775 -0.0259  1.0178 -0.3021
10232TIP3   OH252186   5.308   3.339   4.898  0.1955  0.1758  0.5439
10232TIP3    H152187   5.280   3.327   4.989  1.1754  1.0664  0.9934
10232TIP3    H252188   5.396   3.302   4.895  0.2680  0.3774  0.0267
10233TIP3   OH252189   6.196   1.688  11.653 -0.6717 -0.1275 -0.2671
10233TIP3    H152190   6.204   1.688  11.748  1.1398  0.3151 -0.3758
10233TIP3    H252191   6.134   1.759  11.634  0.7490  1.3861  0.5152
10234TIP3   OH252192   6.518   6.454  13.577  0.4166 -0.3943  0.0202
10234TIP3    H152193   6.507   6.399  13.654 -0.0804 -2.7365 -1.6309
10234TIP3    H252194   6.439   6.509  13.576  0.3352 -0.4835  1.0623
10235TIP3   OH252195   1.065   6.481  13.918 -0.6491  0.0185  0.2062
10235TIP3    H152196   1.003   6.462  13.989  0.2649 -0.2409  0.9576
10235TIP3    H252197   1.058   6.575  13.905 -1.1662 -0.0011  0.3144
10236TIP3   OH252198   4.538   0.864  17.204  0.6611 -0.1402 -0.0109
10236TIP3    H152199   4.560   0.900  17.291  2.3388  0.5858 -0.6818
10236TIP3    H252200   4.554   0.770  17.212 -0.6874 -0.3268  0.8708
10237TIP3   OH252201   1.382   0.076  11.689 -0.2451  0.3320  0.4210
10237TIP3    H152202   1.300   0.102  11.647  0.4514  0.9068 -0.6214
10237TIP3    H252203   1.445   0.069  11.617  0.9772  1.2677  1.3589
10238TIP3   OH252204   3.047   3.170  16.484 -0.0257  0.4971 -0.1082
10238TIP3    H152205   3.128   3.219  16.479 -1.7499  3.5946  0.0498
10238TIP3    H252206   3.057   3.100  16.420  1.6163  2.6237 -2.3292
10239TIP3   OH252207   4.486   3.899   2.468 -0.1321  0.4291 -0.1900
10239TIP3    H152208   4.493   3.967   2.401 -0.2906  1.0100  0.3721
10239TIP3    H252209   4.459   3.821   2.420 -1.2787  1.0907 -0.6746
10240TIP3   OH252210   2.649   5.775   4.428  0.1240 -0.0249  0.3349
10240TIP3    H152211   2.589   5.803   4.498  1.1313  1.6596  0.5750
10240TIP3    H252212   2.662   5.853   4.375  1.6676 -0.4965 -0.0264
10241TIP3   OH252213   2.668   3.852  12.935  0.0733  0.0659  0.7898
10241TIP3    H152214   2.676   3.765  12.896 -1.0242 -0.2396  1.1990
10241TIP3    H252215   2.712   3.845  13.020  0.3858  0.0538  0.6306
10242TIP3   OH252216   0.179   2.085  12.070  0.1437  0.0178 -0.3236
10242TIP3    H152217   0.257   2.073  12.016 -0.1131  0.2596 -0.7646
10242TIP3    H252218   0.208   2.069  12.159  0.0610 -2.7601 -0.7308
10243TIP3   OH252219   0.714   0.498   4.048 -0.1641  0.4871 -0.2166
10243TIP3    H152220   0.757   0.546   3.977 -1.5511 -0.3252 -1.6719
10243TIP3    H252221   0.768   0.420   4.060  1.3782  1.7196  1.2774
10244TIP3   OH252222   3.636   4.260  16.877 -0.6482 -0.0105 -0.5831
10244TIP3    H152223   3.632   4.173  16.917 -2.1936  0.7056  0.9586
10244TIP3    H252224   3.556   4.304  16.907  0.5831  2.3020 -0.4497
10245TIP3   OH252225   3.263   3.962  13.264 -0.0022  0.0335  0.2033
10245TIP3    H152226   3.267   4.009  13.347 -1.2205 -0.2666  0.4515
10245TIP3    H252227   3.333   3.898  13.269  0.3100  0.4148  0.7550
10246TIP3   OH252228   4.765   0.829   3.819 -0.1623 -0.3040 -0.1048
10246TIP3    H152229   4.755   0.921   3.792 -1.2334 -0.6413 -0.9217
10246TIP3    H252230   4.852   0.825   3.858  0.2519  0.8668 -0.8625
10247TIP3   OH252231   2.166   1.865  15.788 -0.2750  0.1497  0.2388
10247TIP3    H152232   2.239   1.865  15.849  0.7769  0.7944 -0.9783
10247TIP3    H252233   2.125   1.780  15.799 -1.3656  0.9291  3.2477
10248TIP3   OH252234   1.939   2.378   0.383 -0.0729  0.2027  0.2756
10248TIP3    H152235   1.990   2.308   0.422 -1.7009 -0.3591  1.5254
10248TIP3    H252236   1.892   2.338   0.310 -0.5702  0.1061  0.6403
10249TIP3   OH252237   4.512   4.701   1.938 -0.1451  0.1868  0.1194
10249TIP3    H152238   4.485   4.702   1.846  0.2615  0.5058 -0.0019
10249TIP3    H252239   4.591   4.755   1.940 -0.0778  0.0750  0.6353
10250TIP3   OH252240   2.449   2.064  15.455  0.4028  0.0499  0.3811
10250TIP3    H152241   2.406   1.981  15.435 -0.2679  0.3439  0.5940
10250TIP3    H252242   2.519   2.039  15.516  0.0296 -0.3271  0.6693
10251TIP3   OH252243   2.724   4.226   6.234 -0.5710  0.2055  0.1056
10251TIP3    H152244   2.809   4.237   6.276  0.5930  0.2992 -2.1195
10251TIP3    H252245   2.674   4.304   6.258 -0.5924 -0.4815  2.5427
10252TIP3   OH252246   2.939   3.792   1.561  0.2940 -0.0004  0.0103
10252TIP3    H152247   2.932   3.798   1.466 -2.2107 -0.4524  0.0900
10252TIP3    H252248   2.962   3.881   1.589  1.2823  0.0810 -0.9975
10253TIP3   OH252249   6.274   4.715   2.976  0.2129 -0.8437  0.0389
10253TIP3    H152250   6.359   4.750   2.950 -0.5315  1.4143  0.4012
10253TIP3    H252251   6.229   4.697   2.893 -0.4708  2.0175 -0.3098
10254TIP3   OH252252   3.571   2.909  14.355 -0.0436  0.4361  0.2769
10254TIP3    H152253   3.522   2.871  14.428  0.3609  1.2496  0.9972
10254TIP3    H252254   3.610   2.834  14.310 -0.1825 -0.0741  0.9919
10255TIP3   OH252255   6.591   0.311   5.098  0.3393  0.3293 -0.1035
10255TIP3    H152256   6.601   0.311   5.193 -1.8214  0.2824  0.1759
10255TIP3    H252257   6.601   0.220   5.072  1.2902  0.3917  0.0133
10256TIP3   OH252258   6.651   4.794   2.503  0.3190 -0.1629 -0.1887
10256TIP3    H152259   6.743   4.809   2.479  1.3471 -1.0543  2.7473
10256TIP3    H252260   6.652   4.712   2.551 -2.0245 -0.1150  0.0420
10257TIP3   OH252261   1.840   3.648  12.817  0.4638 -0.0108  0.5906
10257TIP3    H152262   1.839   3.583  12.888 -0.0127 -0.1636  0.4436
10257TIP3    H252263   1.932   3.653  12.791  0.6047 -0.1370  1.0500
10258TIP3   OH252264   5.555   3.605  12.675  0.2189 -0.6930 -0.0072
10258TIP3    H152265   5.460   3.593  12.669  0.1931 -0.0664 -1.1034
10258TIP3    H252266   5.571   3.624  12.767 -0.5313 -2.2664  0.4973
10259TIP3   OH252267   4.354   2.069  17.218 -0.1238  0.6131 -0.1867
10259TIP3    H152268   4.365   2.129  17.144 -0.9340  0.2196 -0.6388
10259TIP3    H252269   4.402   1.991  17.192  1.1346  1.1304  0.5057
10260TIP3   OH252270   5.592   3.871   1.630  0.1234  0.2957 -0.3474
10260TIP3    H152271   5.602   3.845   1.539 -2.0351  2.5038 -1.3467
10260TIP3    H252272   5.544   3.799   1.671 -1.1337  0.3502 -1.6475
10261TIP3   OH252273   2.082   6.733   1.675  0.7623  0.2032  0.2157
10261TIP3    H152274   2.177   6.725   1.671  0.9337  1.0633  1.7170
10261TIP3    H252275   2.064   6.822   1.646  0.4968  0.3290  0.7523
10262TIP3   OH252276   5.090   0.625   4.375  0.1076  0.6269 -0.2415
10262TIP3    H152277   5.036   0.627   4.295  0.6494  0.3414 -0.6212
10262TIP3    H252278   5.027   0.615   4.446 -0.2461 -1.2821 -0.7827
10263TIP3   OH252279   5.929   6.015   0.620  0.1270 -0.4584 -0.0173
10263TIP3    H152280   5.971   6.100   0.610 -0.4842 -0.4215 -3.4955
10263TIP3    H252281   5.843   6.035   0.659 -0.8558  0.8911 -2.6637
10264TIP3   OH252282   2.781   1.905   1.971  0.0621 -0.3611 -0.6605
10264TIP3    H152283   2.701   1.943   1.933  0.6439  0.0070 -1.5609
10264TIP3    H252284   2.827   1.868   1.896 -0.1028 -2.1781  0.1046
10265TIP3   OH252285   2.104   4.343   5.772  0.1301 -0.3158 -0.6462
10265TIP3    H152286   2.046   4.416   5.791 -1.9896 -1.6587 -1.5394
10265TIP3    H252287   2.105   4.290   5.852 -0.8371 -0.8772 -0.9920
10266TIP3   OH252288   2.613   3.382  10.846 -0.5535  0.5441  0.6388
10266TIP3    H152289   2.660   3.298  10.841 -1.2387  0.0701  1.7134
10266TIP3    H252290   2.567   3.378  10.930  0.6331  2.6701  1.4379
10267TIP3   OH252291   1.090   5.717   4.547 -0.2238 -0.1795 -0.3265
10267TIP3    H152292   0.996   5.702   4.561 -0.5021  1.9979  0.5412
10267TIP3    H252293   1.093   5.777   4.472  0.4183  0.4448  0.1929
10268TIP3   OH252294   3.547   2.019   6.686  0.5621 -0.0777 -0.4440
10268TIP3    H152295   3.515   1.931   6.707  0.2648 -0.2154 -1.4555
10268TIP3    H252296   3.489   2.078   6.735  0.5010 -0.4233 -0.0941
10269TIP3   OH252297   4.830   0.996   5.523 -0.2315 -0.3658 -0.1018
10269TIP3    H152298   4.812   0.994   5.617  1.5134 -0.2380  0.2725
10269TIP3    H252299   4.914   1.042   5.516 -0.2527 -0.5296 -1.7045
10270TIP3   OH252300   4.344   0.792  16.999  0.4608 -0.0525 -0.1772
10270TIP3    H152301   4.293   0.822  16.923 -0.2649 -3.1400 -1.0883
10270TIP3    H252302   4.378   0.707  16.971 -0.6869 -1.8176  3.2727
10271TIP3   OH252303   4.833   0.911  16.615 -0.0321  0.4235 -0.3219
10271TIP3    H152304   4.885   0.931  16.693  1.1306 -1.2327 -0.6072
10271TIP3    H252305   4.761   0.857  16.648  1.6128 -2.0817 -0.5532
10272TIP3   OH252306   0.914   1.534   3.616 -0.2019  0.2259 -0.0107
10272TIP3    H152307   0.870   1.452   3.636  0.4779  0.6206  3.7723
10272TIP3    H252308   0.934   1.528   3.522 -3.0728 -2.4054 -0.6260
10273TIP3   OH252309   2.281   6.197  12.724  0.5119  0.3923 -0.2343
10273TIP3    H152310   2.248   6.131  12.785  0.5920  0.8470  0.3105
10273TIP3    H252311   2.202   6.240  12.691  0.4715  0.1894 -0.4039
10274TIP3   OH252312   0.787   3.908  16.765 -0.1931  0.4954 -0.4698
10274TIP3    H152313   0.872   3.904  16.808  0.3706 -0.4566 -1.6365
10274TIP3    H252314   0.725   3.922  16.837  0.8261  0.0645  0.5196
10275TIP3   OH252315   2.358   5.749   0.210 -0.2240  0.2492  0.7637
10275TIP3    H152316   2.441   5.710   0.182  0.4517  1.3532  1.1790
10275TIP3    H252317   2.322   5.686   0.273  0.1377 -0.3891  0.3453
10276TIP3   OH252318   1.127   0.368   0.200 -0.5847 -0.0222  0.4438
10276TIP3    H152319   1.139   0.283   0.158 -0.3031 -0.2764  1.0300
10276TIP3    H252320   1.032   0.375   0.213 -0.8670  0.7565 -1.6451
10277TIP3   OH252321   5.537   0.931  16.288  0.2780  0.4689 -0.7694
10277TIP3    H152322   5.509   1.022  16.285  0.8695  0.6702 -0.3377
10277TIP3    H252323   5.630   0.935  16.309  0.4302 -0.2183 -1.2681
10278TIP3   OH252324   2.395   6.438   5.042 -0.1259  0.2594  0.0266
10278TIP3    H152325   2.451   6.372   5.084  1.6082  2.3954  1.2768
10278TIP3    H252326   2.333   6.463   5.110  0.5127  1.3247  0.2269
10279TIP3   OH252327   4.874   4.708  11.159 -0.3042 -0.4802  0.1137
10279TIP3    H152328   4.844   4.629  11.113  0.9203 -0.1749 -1.2839
10279TIP3    H252329   4.835   4.780  11.111 -1.1617 -0.1873  1.2021
10280TIP3   OH252330   5.130   4.908   1.461  0.5173 -0.5581 -0.3819
10280TIP3    H152331   5.120   4.967   1.536 -1.1431  1.1975 -1.8648
10280TIP3    H252332   5.049   4.856   1.460  0.5645 -0.6264 -0.8924
10281TIP3   OH252333   5.772   4.821   4.180  0.3955  0.0915  0.4932
10281TIP3    H152334   5.816   4.893   4.135  0.2874  0.0531  0.3240
10281TIP3    H252335   5.698   4.800   4.124  0.8468 -0.6428  0.1680
10282TIP3   OH252336   2.884   3.321   5.111 -0.1266 -0.2206  0.3121
10282TIP3    H152337   2.836   3.332   5.193 -1.4447 -0.0457 -0.4495
10282TIP3    H252338   2.943   3.248   5.126  0.7160  0.7393  1.8843
10283TIP3   OH252339   1.881   5.438   2.185 -0.3524 -0.3717 -0.4712
10283TIP3    H152340   1.960   5.465   2.233  0.3279 -0.8282 -1.2982
10283TIP3    H252341   1.899   5.348   2.158 -1.8102 -1.0374  0.6480
10284TIP3   OH252342   6.566   4.673  13.721 -0.8131 -0.2470 -0.1258
10284TIP3    H152343   6.613   4.755  13.702  0.3353 -0.5579  1.2068
10284TIP3    H252344   6.606   4.641  13.801 -0.6328 -2.6015 -1.0953
10285TIP3   OH252345   5.054   3.499  13.232 -0.7897  0.1965  0.4465
10285TIP3    H152346   5.056   3.510  13.137 -1.5548 -2.6163  0.0263
10285TIP3    H252347   5.019   3.582  13.265  0.3735  1.5933 -1.5980
10286TIP3   OH252348   1.377   5.329  11.876  0.1540 -0.4901 -0.0757
10286TIP3    H152349   1.318   5.404  11.891 -0.0120 -0.4902 -0.6892
10286TIP3    H252350   1.320   5.253  11.886 -0.2237 -0.4643 -1.7375
10287TIP3   OH252351   2.604   6.398  12.267 -0.5664 -0.1601 -0.2542
10287TIP3    H152352   2.578   6.486  12.293  1.7041  0.2185  1.0067
10287TIP3    H252353   2.692   6.409  12.230  0.5516 -2.0420  1.5865
10288TIP3   OH252354   2.683   0.076   3.303  0.7660  0.5418  0.2417
10288TIP3    H152355   2.619   0.005   3.295  0.8711  0.1555  2.1952
10288TIP3    H252356   2.730   0.076   3.220 -0.3811 -0.5344 -0.4458
10289TIP3   OH252357   1.975   4.171   6.163 -0.4623 -0.0773  0.7274
10289TIP3    H152358   1.894   4.189   6.115 -0.1729  1.3872  0.7434
10289TIP3    H252359   1.946   4.134   6.246 -1.1618  1.1145  1.0318
10290TIP3   OH252360   1.827   1.292   0.283  0.0390  0.7112  0.5345
10290TIP3    H152361   1.739   1.260   0.262  0.5045 -0.0648 -0.2860
10290TIP3    H252362   1.830   1.290   0.379 -0.2586 -0.8738  0.5315
10291TIP3   OH252363   0.475   0.847  13.484  0.1761  0.1797 -0.2087
10291TIP3    H152364   0.529   0.926  13.475  1.5338 -0.6402  0.4410
10291TIP3    H252365   0.429   0.859  13.566  1.5797 -0.3682  0.6904
10292TIP3   OH252366   1.844   6.015  15.470  0.0973  0.1406  1.0092
10292TIP3    H152367   1.840   6.021  15.566 -0.1527  0.4228  0.9839
10292TIP3    H252368   1.868   6.104  15.442 -0.5280  0.2489  0.7782
10293TIP3   OH252369   1.400   4.638  15.287 -0.2382  0.1369 -0.3174
10293TIP3    H152370   1.329   4.668  15.342 -0.2774  0.5275 -0.5812
10293TIP3    H252371   1.357   4.592  15.215 -0.2223  0.3021 -0.4334
10294TIP3   OH252372   3.212   2.640   0.922  0.1402 -0.3549 -0.0249
10294TIP3    H152373   3.287   2.667   0.870  0.6863 -1.4556  0.1625
10294TIP3    H252374   3.147   2.709   0.908 -0.1458 -1.0730 -2.9830
10295TIP3   OH252375   4.827   5.322   4.816  0.0502  0.4465  0.1469
10295TIP3    H152376   4.817   5.243   4.868  1.5964  0.0688 -0.1032
10295TIP3    H252377   4.877   5.294   4.739  1.3521  1.8079  0.4514
10296TIP3   OH252378   2.584   1.470   2.793  0.5024 -0.1632  0.2805
10296TIP3    H152379   2.639   1.392   2.800 -1.6258 -1.7147  0.7918
10296TIP3    H252380   2.590   1.496   2.701  1.1695 -0.9594  0.0866
10297TIP3   OH252381   6.453   2.274  13.006  0.0127 -0.1850 -0.2960
10297TIP3    H152382   6.507   2.349  12.982  1.0655 -1.4813 -2.1683
10297TIP3    H252383   6.374   2.284  12.953 -1.5105  1.4327  2.0679
10298TIP3   OH252384   1.407   0.373   4.467  0.5903  0.4254  0.6584
10298TIP3    H152385   1.356   0.439   4.514 -0.1796  0.2081  0.1272
10298TIP3    H252386   1.455   0.422   4.400 -0.3497  0.3906 -0.0482
10299TIP3   OH252387   0.811   0.916   2.178 -0.5028  0.5728  0.2067
10299TIP3    H152388   0.735   0.870   2.144 -0.7613  0.3923  1.0149
10299TIP3    H252389   0.789   0.936   2.269  0.5780  0.1362  0.5854
10300TIP3   OH252390   1.529   2.420  13.508  0.4116 -0.0905  0.4121
10300TIP3    H152391   1.449   2.474  13.508  0.7200  0.3765  0.1730
10300TIP3    H252392   1.510   2.349  13.448  0.2467  0.1407  0.1865
10301TIP3   OH252393   1.879   0.597   0.682  0.2820 -0.1168  0.5686
10301TIP3    H152394   1.812   0.650   0.725  0.7444 -1.9288  3.8024
10301TIP3    H252395   1.830   0.526   0.640 -0.1139  1.2892 -1.5100
10302TIP3   OH252396   4.717   1.526   3.035 -0.2730 -0.8190  0.3114
10302TIP3    H152397   4.653   1.551   3.101 -0.2176  0.1756  0.0145
10302TIP3    H252398   4.747   1.439   3.061  0.3411 -0.1251  2.0394
10303TIP3   OH252399   5.713   2.656   0.625  0.5829 -0.1102 -0.1116
10303TIP3    H152400   5.747   2.713   0.694  1.4781 -1.1732  0.3537
10303TIP3    H252401   5.639   2.611   0.665  1.9207 -1.7387  0.6657
10304TIP3   OH252402   1.943   2.692  16.149  0.3571 -0.2917 -0.6331
10304TIP3    H152403   1.897   2.756  16.095 -1.8934 -1.5793 -0.3372
10304TIP3    H252404   1.957   2.617  16.092  1.1242 -0.3528 -0.3804
10305TIP3   OH252405   4.321   3.410  13.838  0.4589 -0.1387  0.4461
10305TIP3    H152406   4.302   3.434  13.747  2.3340 -0.4139 -0.0652
10305TIP3    H252407   4.414   3.430  13.848  0.6223 -1.4714  1.8625
10306TIP3   OH252408   4.701   1.268   1.813  0.0630 -0.4851  0.7143
10306TIP3    H152409   4.741   1.293   1.896  1.5666  0.0020 -0.1189
10306TIP3    H252410   4.680   1.351   1.770  1.1621 -0.6800 -0.2444
10307TIP3   OH252411   6.480   5.686  13.918 -0.0784  0.2884 -0.0975
10307TIP3    H152412   6.573   5.705  13.928 -0.3108  1.2656  0.2869
10307TIP3    H252413   6.438   5.772  13.917 -0.8989 -0.1102 -1.1540
10308TIP3   OH252414   3.904   2.291  12.897  0.6360  1.0744  0.4397
10308TIP3    H152415   3.990   2.304  12.858  0.5745  0.8201  0.2159
10308TIP3    H252416   3.852   2.366  12.866  0.0120 -0.1124 -1.6127
10309TIP3   OH252417   6.465   3.058   2.841 -0.0715 -0.6900  0.3858
10309TIP3    H152418   6.384   3.096   2.875 -0.3197 -0.9132  0.0478
10309TIP3    H252419   6.529   3.129   2.847 -0.4966 -0.2544 -0.1087
10310TIP3   OH252420   6.427   4.499   5.402  0.2056 -0.9357 -0.1296
10310TIP3    H152421   6.338   4.497   5.366  0.1301 -0.0515 -0.0005
10310TIP3    H252422   6.482   4.529   5.330  0.1546  0.1369  0.2570
10311TIP3   OH252423   6.153   0.492  15.702 -0.1674  0.6491  0.1553
10311TIP3    H152424   6.085   0.559  15.691 -1.5766 -0.7145  0.2160
10311TIP3    H252425   6.105   0.409  15.706  1.6013 -0.5523 -1.3835
10312TIP3   OH252426   5.552   4.460   1.145 -0.4526 -0.7953 -0.3894
10312TIP3    H152427   5.578   4.522   1.213 -0.4469 -1.0726 -0.1377
10312TIP3    H252428   5.629   4.454   1.088 -0.6385 -0.1634 -0.7225
10313TIP3   OH252429   1.860   4.288  15.708  0.2532 -0.0796 -0.0664
10313TIP3    H152430   1.813   4.371  15.699  0.4913  0.1411  0.6279
10313TIP3    H252431   1.812   4.227  15.652 -0.6524  0.2319  0.3450
10314TIP3   OH252432   5.719   2.335  16.478  0.0652  0.2505  0.2244
10314TIP3    H152433   5.711   2.340  16.383  0.2014 -1.0417  0.1205
10314TIP3    H252434   5.635   2.300  16.507 -0.0165  0.7475  0.5917
10315TIP3   OH252435   2.915   0.959  15.711 -0.5766 -0.3736  0.8038
10315TIP3    H152436   2.945   0.916  15.630  2.3646  3.3288 -0.3291
10315TIP3    H252437   2.830   0.997  15.688  1.1826  2.5688 -1.5706
10316TIP3   OH252438   2.630   4.497   5.684 -0.0478  0.0321 -0.3461
10316TIP3    H152439   2.573   4.426   5.712  0.2346 -0.7388 -1.6165
10316TIP3    H252440   2.630   4.559   5.757  0.8867 -1.9680  1.4608
10317TIP3   OH252441   6.350   5.972  13.929  0.3695 -0.3947  0.4089
10317TIP3    H152442   6.264   5.955  13.966  0.1099  1.4421  0.7571
10317TIP3    H252443   6.334   5.992  13.837  0.5356 -0.8989  0.2666
10318TIP3   OH252444   1.108   6.076  11.260 -0.7038  0.4027 -0.5329
10318TIP3    H152445   1.105   6.142  11.329 -0.3776 -0.2712  0.1486
10318TIP3    H252446   1.019   6.042  11.256 -0.4354 -0.4982  0.5268
10319TIP3   OH252447   0.816   0.557  15.964  0.2977 -0.0644 -0.0581
10319TIP3    H152448   0.861   0.615  15.902 -1.8384 -1.3982 -3.1351
10319TIP3    H252449   0.742   0.609  15.995  0.5182  0.0981  0.2029
10320TIP3   OH252450   0.203   6.242  17.135 -0.2220  0.3833 -0.6342
10320TIP3    H152451   0.192   6.193  17.217 -0.7156  1.4266 -0.0599
10320TIP3    H252452   0.114   6.254  17.103  0.0432 -1.6088 -2.3267
10321TIP3   OH252453   0.061   4.158  12.332  0.3721 -0.1919  0.0882
10321TIP3    H152454   0.037   4.066  12.342  1.7464 -0.5356  0.4808
10321TIP3    H252455   0.100   4.183  12.416 -1.0598  1.1214  0.4174
10322TIP3   OH252456   4.723   5.156  13.237 -0.0360  0.2046 -0.2995
10322TIP3    H152457   4.817   5.144  13.221 -0.1678 -1.0414 -0.2264
10322TIP3    H252458   4.682   5.078  13.199 -0.9333  0.2247  0.5885
10323TIP3   OH252459   6.182   0.104   0.869 -0.1571 -1.0253 -0.0742
10323TIP3    H152460   6.121   0.123   0.798 -0.3060  1.0170  0.5430
10323TIP3    H252461   6.139   0.036   0.921 -1.1003 -0.8542 -0.6229
10324TIP3   OH252462   5.584   2.139   0.811 -0.1954 -0.0015  0.6023
10324TIP3    H152463   5.671   2.102   0.828  0.0738  0.3736  0.0410
10324TIP3    H252464   5.592   2.231   0.835 -0.4347  0.0375  0.5319
10325TIP3   OH252465   1.300   0.634   1.474  0.1284  0.3979 -0.3934
10325TIP3    H152466   1.247   0.714   1.468 -1.2765 -0.5130 -0.5328
10325TIP3    H252467   1.291   0.592   1.389 -0.6747 -0.8285  0.2773
10326TIP3   OH252468   6.716   3.333  13.600  0.3192  0.6370  0.8085
10326TIP3    H152469   6.792   3.300  13.552 -0.6340 -0.3444 -0.0789
10326TIP3    H252470   6.649   3.265  13.589 -1.2000  2.1437  0.2421
10327TIP3   OH252471   0.941   3.650   5.417 -0.1565  0.0167  1.0258
10327TIP3    H152472   0.849   3.669   5.400 -0.2602  1.6343  2.9748
10327TIP3    H252473   0.941   3.609   5.503  0.9569 -0.0599  0.9975
10328TIP3   OH252474   6.208   4.080  12.636  0.0296 -0.2948  0.4612
10328TIP3    H152475   6.290   4.036  12.614 -0.7523 -1.9358  0.6362
10328TIP3    H252476   6.233   4.153  12.692  1.4298 -0.2331 -0.2046
10329TIP3   OH252477   0.959   1.399   1.645  0.2596 -0.3807  0.0944
10329TIP3    H152478   1.036   1.385   1.590  1.7014  0.8004  1.6912
10329TIP3    H252479   0.990   1.385   1.734 -1.5869 -0.6368  0.7484
10330TIP3   OH252480   3.852   3.159   6.802  0.0888  0.4498  0.0610
10330TIP3    H152481   3.805   3.140   6.721 -1.3984 -0.1472  1.0162
10330TIP3    H252482   3.941   3.128   6.787 -0.7195 -1.7046 -0.5792
10331TIP3   OH252483   4.803   6.726  12.950  0.6240 -0.3265  0.4812
10331TIP3    H152484   4.842   6.766  12.872  1.1709  0.2405  1.0281
10331TIP3    H252485   4.756   6.650  12.918 -0.8005  0.9752 -0.6730
10332TIP3   OH252486   5.992   4.665  14.819  0.0110 -0.6059 -0.7268
10332TIP3    H152487   6.013   4.596  14.882 -1.7826 -2.1193 -1.6934
10332TIP3    H252488   6.073   4.680  14.771  0.3666 -2.2512 -0.6824
10333TIP3   OH252489   3.594   0.326  14.422 -0.0428  0.6763  0.0799
10333TIP3    H152490   3.505   0.343  14.393 -0.1978 -1.2794 -0.7199
10333TIP3    H252491   3.606   0.383  14.498 -2.0646  0.7678  0.3828
10334TIP3   OH252492   4.598   0.301  15.655 -0.2065 -0.0046  0.2560
10334TIP3    H152493   4.622   0.295  15.563 -1.5085 -1.8381 -0.0392
10334TIP3    H252494   4.636   0.223  15.695 -1.1054 -0.1573  0.8637
10335TIP3   OH252495   5.343   4.323   1.801  0.6356 -1.1249  0.4541
10335TIP3    H152496   5.277   4.324   1.732  2.4795  0.4954 -1.4165
10335TIP3    H252497   5.369   4.232   1.810  0.0989 -1.4052 -0.7517
10336TIP3   OH252498   2.448   0.895  16.923  0.2763 -0.2361  0.2589
10336TIP3    H152499   2.424   0.841  16.848  1.1575 -2.0286  1.1810
10336TIP3    H252500   2.414   0.847  16.999  1.8571  0.0086  1.1858
10337TIP3   OH252501   4.200   2.439  14.058 -0.1134 -0.0516 -0.0952
10337TIP3    H152502   4.226   2.504  13.993  1.9115 -1.2318 -0.5607
10337TIP3    H252503   4.246   2.359  14.032 -0.9172 -1.1277  1.5968
10338TIP3   OH252504   2.073   6.540   4.878  0.1465 -0.4822  0.3795
10338TIP3    H152505   2.010   6.611   4.865  4.2138  3.8158  1.1831
10338TIP3    H252506   2.055   6.479   4.807 -2.8162  2.1398 -1.3893
10339TIP3   OH252507   2.465   2.682   4.298 -0.2012 -0.1228 -0.2107
10339TIP3    H152508   2.514   2.648   4.373  0.2271  1.1376  0.0991
10339TIP3    H252509   2.430   2.604   4.255  1.3972 -1.0219  0.0300
10340TIP3   OH252510   6.600   1.930  15.891 -0.1394 -0.3651 -0.0811
10340TIP3    H152511   6.607   2.019  15.857 -1.2676 -0.1617  0.1843
10340TIP3    H252512   6.688   1.910  15.923  0.4953  0.0957 -1.4721
10341TIP3   OH252513   0.011   1.327   2.273 -0.0175  0.1701 -0.4705
10341TIP3    H152514   0.102   1.352   2.260  0.8179 -1.5886  1.5686
10341TIP3    H252515  -0.001   1.326   2.368 -2.0445 -0.1113 -0.6801
10342TIP3   OH252516   2.397   2.173  13.685 -0.2530 -0.4511 -0.0656
10342TIP3    H152517   2.454   2.097  13.674 -1.4640 -1.4386  0.2026
10342TIP3    H252518   2.372   2.172  13.777  0.6049  0.9610  0.2086
10343TIP3   OH252519   6.006   2.573  10.658  1.0471  0.1902  0.0246
10343TIP3    H152520   6.092   2.559  10.617  0.4153  0.8890 -1.6321
10343TIP3    H252521   6.027   2.601  10.747  2.6297  1.7045 -0.7402
10344TIP3   OH252522   4.542   6.134  14.032  0.1595 -0.3091  0.0178
10344TIP3    H152523   4.617   6.186  14.060  1.5531 -2.5225  0.6342
10344TIP3    H252524   4.501   6.105  14.113  0.5651 -1.7096 -0.2454
10345TIP3   OH252525   2.919   0.453  16.766  0.3255 -0.2592 -0.6596
10345TIP3    H152526   2.886   0.506  16.838 -0.1427 -2.2144  0.6290
10345TIP3    H252527   2.855   0.465  16.696 -0.9991 -0.8417  0.4101
10346TIP3   OH252528   3.776   3.535  10.505 -0.5840  0.0535 -0.1029
10346TIP3    H152529   3.735   3.593  10.441 -0.4070  0.4855  0.1734
10346TIP3    H252530   3.867   3.526  10.475 -1.3006 -2.4688 -1.8354
10347TIP3   OH252531   1.646   5.890  12.534  0.0821 -0.1993 -0.6857
10347TIP3    H152532   1.635   5.846  12.618  3.0059  0.6774  0.2590
10347TIP3    H252533   1.574   5.954  12.532 -0.1176 -0.3188  1.0769
10348TIP3   OH252534   6.770   1.418   4.483  0.0408 -0.1222 -0.2465
10348TIP3    H152535   6.719   1.462   4.415  1.4870  2.1173  0.0173
10348TIP3    H252536   6.794   1.487   4.545 -0.1701 -1.8671  1.9200
10349TIP3   OH252537   4.581   5.446   0.106  0.3813  0.4233 -0.5341
10349TIP3    H152538   4.631   5.528   0.100 -0.6483  1.1239  0.1563
10349TIP3    H252539   4.502   5.462   0.054  0.6712 -0.5327 -1.2966
10350TIP3   OH252540   3.997   1.924  12.774 -0.1097 -0.3491  0.4523
10350TIP3    H152541   4.030   1.949  12.688  1.0792 -1.9492  0.4022
10350TIP3    H252542   3.903   1.910  12.760 -0.1228  0.4275 -0.3268
10351TIP3   OH252543   0.099   4.694  14.285 -0.5531  0.3188 -0.1452
10351TIP3    H152544   0.172   4.752  14.308  1.5365 -2.4805  0.9424
10351TIP3    H252545   0.120   4.662  14.197 -0.0110 -1.0452  0.4512
10352TIP3   OH252546   3.908   4.081  12.336  0.0030  0.1607  0.4492
10352TIP3    H152547   3.977   4.057  12.275 -0.5316 -0.5280  0.0975
10352TIP3    H252548   3.931   4.169  12.365 -0.1224  0.8262 -1.3396
10353TIP3   OH252549   6.751   1.688  15.007  0.1258  0.0904  0.3425
10353TIP3    H152550   6.762   1.709  15.099  3.2835  0.2292  0.0385
10353TIP3    H252551   6.785   1.600  14.997 -0.0440  0.1220 -0.7186
10354TIP3   OH252552   4.047   3.689   5.487  0.0288 -0.0276 -0.2801
10354TIP3    H152553   4.009   3.742   5.417 -0.2429  1.3438  0.8668
10354TIP3    H252554   4.079   3.610   5.443 -1.1519  0.2874 -1.7615
10355TIP3   OH252555   5.753   1.965  15.158  0.1012  0.4778  0.0556
10355TIP3    H152556   5.823   1.912  15.118 -0.4429 -0.6990  0.6156
10355TIP3    H252557   5.697   1.901  15.202 -1.9447  1.2761 -1.2688
10356TIP3   OH252558   1.166   5.131   0.637 -0.4472 -0.5524  0.2420
10356TIP3    H152559   1.112   5.186   0.580  0.2798 -0.8925 -0.8128
10356TIP3    H252560   1.112   5.116   0.714 -1.8571 -0.8339 -0.7440
10357TIP3   OH252561   5.821   5.354  16.230 -0.2156  0.3406 -0.2297
10357TIP3    H152562   5.890   5.333  16.294 -0.9008  1.8488  1.0768
10357TIP3    H252563   5.809   5.273  16.181  1.2764 -0.4776  0.6615
10358TIP3   OH252564   1.532   2.426  13.897 -0.4600 -0.2060 -0.3392
10358TIP3    H152565   1.497   2.460  13.980 -0.5927 -2.1772  0.4813
10358TIP3    H252566   1.608   2.481  13.879 -0.5179  0.3708  1.0326
10359TIP3   OH252567   4.367   0.901  12.663 -0.5513  0.3504  0.0289
10359TIP3    H152568   4.427   0.972  12.640 -1.4488  1.0808 -0.1362
10359TIP3    H252569   4.421   0.837  12.709  0.7499  0.1171 -1.7232
10360TIP3   OH252570   2.252   2.528  14.271  0.5704  0.1089  0.0611
10360TIP3    H152571   2.189   2.455  14.275  1.9062 -1.0771  0.0722
10360TIP3    H252572   2.231   2.572  14.189 -1.5961  1.0120  1.0154
10361TIP3   OH252573   5.366   1.854   5.973 -0.6367  0.2124 -0.1323
10361TIP3    H152574   5.340   1.898   6.054  0.7355 -0.5099  0.7344
10361TIP3    H252575   5.400   1.924   5.917 -3.3810  1.0493 -0.9469
10362TIP3   OH252576   0.531   0.881  13.191  0.8734 -0.1048 -0.1173
10362TIP3    H152577   0.456   0.918  13.144  0.5633 -0.1054  0.3613
10362TIP3    H252578   0.503   0.880  13.283  0.8689 -1.5055 -0.1032
10363TIP3   OH252579   2.070   6.089   2.476  0.3698 -0.1288 -0.7636
10363TIP3    H152580   2.061   6.021   2.409 -1.1991 -0.0428 -0.6801
10363TIP3    H252581   1.980   6.107   2.504  0.6505  2.4661 -1.2739
10364TIP3   OH252582   3.685   3.826   2.490 -0.2745 -0.3811  0.1320
10364TIP3    H152583   3.767   3.876   2.487  0.9521 -2.1433  1.6398
10364TIP3    H252584   3.620   3.889   2.521  0.9068  0.6386  0.6216
10365TIP3   OH252585   1.309   3.797   0.686  0.2025 -0.7919 -0.2757
10365TIP3    H152586   1.217   3.799   0.660 -0.4389  2.5888  1.5838
10365TIP3    H252587   1.353   3.856   0.624  0.4559 -0.0056  0.6201
10366TIP3   OH252588   5.771   6.151   3.280 -0.0942  0.0778 -0.5769
10366TIP3    H152589   5.732   6.217   3.337  0.8915  0.5018 -0.3722
10366TIP3    H252590   5.697   6.113   3.233 -0.8204  0.3482  0.3252
10367TIP3   OH252591   4.937   3.876  15.946  0.1686  0.4522  0.3015
10367TIP3    H152592   4.854   3.907  15.981  1.2832  1.7221  2.0240
10367TIP3    H252593   4.929   3.780  15.946 -1.4760  0.5637 -0.1323
10368TIP3   OH252594   3.436   2.047  12.135  0.3910  0.7606 -0.9837
10368TIP3    H152595   3.357   1.998  12.157  1.6292 -0.4930  0.8779
10368TIP3    H252596   3.431   2.059  12.040 -1.4190 -0.3578 -1.0604
10369TIP3   OH252597   4.441   0.960  14.358 -0.0915  0.4110 -0.5442
10369TIP3    H152598   4.532   0.950  14.386 -0.3538  0.5267  0.3948
10369TIP3    H252599   4.437   0.917  14.272 -0.2838 -4.1697  1.4745
10370TIP3   OH252600   5.767   6.443  16.785 -0.6508  0.2139  0.1887
10370TIP3    H152601   5.760   6.349  16.801 -3.7502  0.5509  1.5024
10370TIP3    H252602   5.732   6.484  16.864 -1.0508  2.4299 -1.0569
10371TIP3   OH252603   0.201   4.330  11.712  0.2684  0.3755 -0.7712
10371TIP3    H152604   0.263   4.263  11.739 -0.4967 -0.2329 -0.4913
10371TIP3    H252605   0.196   4.320  11.616 -0.4309 -0.5202 -0.6623
10372TIP3   OH252606   6.487   3.433   4.657 -0.6445  0.4275  0.1084
10372TIP3    H152607   6.462   3.469   4.572  1.5917  1.9224  0.0171
10372TIP3    H252608   6.522   3.346   4.637 -0.6696  0.5372 -0.4310
10373TIP3   OH252609   4.508   2.680  11.097  0.2915  0.2344  0.3578
10373TIP3    H152610   4.461   2.758  11.125 -0.6311  0.5444 -1.8799
10373TIP3    H252611   4.582   2.712  11.046 -0.5493 -0.2989 -1.2725
10374TIP3   OH252612   3.720   1.061  16.254  0.3054  0.3428  0.3848
10374TIP3    H152613   3.776   1.096  16.323  0.7590 -3.6547  2.3206
10374TIP3    H252614   3.631   1.068  16.289  0.3050  0.3937  0.3733
10375TIP3   OH252615   2.702   3.824  15.736 -0.4841  0.1789  0.1145
10375TIP3    H152616   2.700   3.728  15.728 -0.6179  0.0685  1.2457
10375TIP3    H252617   2.761   3.853  15.667  0.7580 -0.8472  0.7097
10376TIP3   OH252618   0.707   5.631   5.457  0.5127 -0.6231 -0.4352
10376TIP3    H152619   0.773   5.656   5.522  0.7992  0.2659 -1.0558
10376TIP3    H252620   0.624   5.657   5.496  0.6823 -0.0909 -0.4179
10377TIP3   OH252621   6.546   1.263   5.080  0.6910  0.4182 -0.2668
10377TIP3    H152622   6.638   1.251   5.060  0.7400  0.0542  0.1696
10377TIP3    H252623   6.511   1.174   5.090  0.5936  0.5616  0.8800
10378TIP3   OH252624   3.785   4.153   1.885  0.7616 -0.4044 -0.0703
10378TIP3    H152625   3.737   4.203   1.952  1.6632  0.8132 -0.2864
10378TIP3    H252626   3.847   4.100   1.934 -1.2107 -2.5561  0.2624
10379TIP3   OH252627   0.324   2.593  14.566  0.0891  0.2696  0.6726
10379TIP3    H152628   0.279   2.655  14.510  0.1036 -0.3924 -0.0799
10379TIP3    H252629   0.416   2.620  14.562  0.1436  0.0076  0.0880
10380TIP3   OH252630   0.561   1.459  13.294  0.4170  0.1376  0.0175
10380TIP3    H152631   0.471   1.452  13.326 -0.2991  0.4993 -1.8029
10380TIP3    H252632   0.552   1.485  13.202  2.4165  2.1786  0.3105
10381TIP3   OH252633   3.297   1.764  15.816 -0.3629 -0.0260  0.3035
10381TIP3    H152634   3.231   1.704  15.781 -0.5846  0.3512  0.0667
10381TIP3    H252635   3.271   1.778  15.908 -0.8611  0.4435  0.1013
10382TIP3   OH252636   0.108   4.822   4.143  0.0838  0.4625 -0.0435
10382TIP3    H152637   0.197   4.854   4.130  0.7561 -1.1680  0.2377
10382TIP3    H252638   0.079   4.794   4.056  0.4222 -0.3493  0.0934
10383TIP3   OH252639   1.177   1.403   1.453  0.0243 -0.3372  0.2917
10383TIP3    H152640   1.245   1.359   1.402 -2.2619 -3.3101 -0.4742
10383TIP3    H252641   1.220   1.425   1.536  2.1253 -1.3436 -0.4610
10384TIP3   OH252642   2.558   0.309  15.462 -0.0393 -0.2080 -0.3562
10384TIP3    H152643   2.597   0.222  15.470 -0.1856 -0.2674 -0.2943
10384TIP3    H252644   2.633   0.368  15.451  0.0537 -0.3526 -0.4971
10385TIP3   OH252645   1.404   4.050  12.451  0.5797  0.1859 -0.7931
10385TIP3    H152646   1.316   4.015  12.439  0.6641 -0.2733 -0.1585
10385TIP3    H252647   1.449   4.032  12.369  0.1470  0.2179 -1.0390
10386TIP3   OH252648   3.504   0.838   3.580 -0.0911 -0.1844 -0.7141
10386TIP3    H152649   3.561   0.762   3.582  1.1289  0.7091  1.0223
10386TIP3    H252650   3.508   0.868   3.489 -0.3767 -1.9710 -1.3595
10387TIP3   OH252651   2.972   5.894   4.208 -0.1062 -0.3849 -0.4809
10387TIP3    H152652   3.019   5.958   4.155 -0.6291 -0.5898 -1.2001
10387TIP3    H252653   3.003   5.809   4.176  0.6640 -0.5201  0.5369
10388TIP3   OH252654   3.045   2.039  15.182  0.2262 -0.0458  0.7103
10388TIP3    H152655   2.986   2.022  15.255  0.1076  1.8422  1.1059
10388TIP3    H252656   3.131   2.048  15.222  0.3170  0.0412  0.4992
10389TIP3   OH252657   5.478   1.008   2.199  0.3421 -0.0051 -0.1183
10389TIP3    H152658   5.488   1.016   2.104 -1.3691  2.7207 -0.1589
10389TIP3    H252659   5.387   0.981   2.211  0.5434 -0.3077  0.7709
10390TIP3   OH252660   4.078   2.022   4.872  0.0574 -0.4178  0.2142
10390TIP3    H152661   4.142   2.081   4.910  0.0098 -0.7490  0.8104
10390TIP3    H252662   4.035   1.980   4.946  0.0531 -1.1646 -0.1909
10391TIP3   OH252663   4.883   3.250  12.920  0.3689 -0.1187 -0.0414
10391TIP3    H152664   4.918   3.339  12.928  0.0712  0.0866 -0.8785
10391TIP3    H252665   4.923   3.217  12.839 -0.0027 -0.5153 -0.0645
10392TIP3   OH252666   5.741   6.334   2.947 -0.2286 -0.6919  0.1396
10392TIP3    H152667   5.813   6.349   3.008 -0.5741  1.3908  0.1079
10392TIP3    H252668   5.664   6.325   3.003 -0.3967  0.2421  0.0745
10393TIP3   OH252669   3.049   5.737   1.069 -0.0291 -0.1166 -0.0633
10393TIP3    H152670   3.103   5.713   0.994 -0.3132 -3.5638  0.6531
10393TIP3    H252671   3.109   5.780   1.130  1.4280 -1.8099 -0.2401
10394TIP3   OH252672   3.654   3.289  11.960  0.6635 -0.1651 -0.2062
10394TIP3    H152673   3.694   3.206  11.933  1.6562  0.1757  0.1624
10394TIP3    H252674   3.708   3.356  11.918 -0.4565  0.3008 -0.9482
10395TIP3   OH252675   3.460   6.006   0.922  0.0526  0.0108 -0.1504
10395TIP3    H152676   3.470   5.976   1.012  0.5949  0.4034 -0.0781
10395TIP3    H252677   3.366   6.022   0.913 -0.2668 -1.6826 -0.1983
10396TIP3   OH252678   2.492   5.847  15.670 -0.0524  0.4277 -0.2177
10396TIP3    H152679   2.421   5.906  15.695 -0.5053 -0.9335  1.9571
10396TIP3    H252680   2.463   5.761  15.699  2.8216 -0.0634  1.5697
10397TIP3   OH252681   5.993   4.400  14.226  0.1778  0.7580  0.7529
10397TIP3    H152682   6.071   4.379  14.276 -0.5776  2.0839  2.6170
10397TIP3    H252683   5.928   4.425  14.292 -1.5619  0.4978 -0.7809
10398TIP3   OH252684   1.165   3.120  16.649  0.2387  0.1089  0.1088
10398TIP3    H152685   1.078   3.086  16.632  0.5595 -0.7448  0.1473
10398TIP3    H252686   1.164   3.209  16.613 -0.5385 -0.0127 -0.1732
10399TIP3   OH252687   4.419   5.415  11.640 -0.1757  0.1588  0.2280
10399TIP3    H152688   4.498   5.392  11.592 -0.9856  1.0429 -1.5990
10399TIP3    H252689   4.434   5.506  11.668 -0.0178 -0.1082  1.0479
10400TIP3   OH252690   1.947   1.321  16.450 -0.0056  0.0882  0.3612
10400TIP3    H152691   1.903   1.245  16.490  0.4150  0.5664  1.7878
10400TIP3    H252692   1.958   1.296  16.358 -1.2475 -0.9487  0.4564
10401TIP3   OH252693   5.096   4.052   0.888 -0.1134 -0.6782 -0.1185
10401TIP3    H152694   5.099   4.040   0.983 -0.4798  1.1795  0.1656
10401TIP3    H252695   5.006   4.029   0.864 -1.2215  2.3158  0.6132
10402TIP3   OH252696   2.935   3.241   4.285 -0.0349 -0.2294 -0.6964
10402TIP3    H152697   2.894   3.227   4.371 -0.1244 -0.5425 -0.7871
10402TIP3    H252698   2.993   3.315   4.298  0.4090 -0.6553 -0.2007
10403TIP3   OH252699   2.352   0.737   5.163 -0.2392  0.4814  0.6147
10403TIP3    H152700   2.428   0.678   5.160 -0.2606  0.4188 -2.5796
10403TIP3    H252701   2.279   0.680   5.189  0.3744 -0.0320  1.2526
10404TIP3   OH252702   5.600   5.339  17.006 -0.4790  0.0376  0.2356
10404TIP3    H152703   5.524   5.356  17.061 -1.7623  1.3294 -1.8069
10404TIP3    H252704   5.659   5.413  17.024 -0.5697  0.0748  0.3806
10405TIP3   OH252705   2.513   3.423  12.177 -0.4088  0.1920  0.1597
10405TIP3    H152706   2.476   3.457  12.095  0.2207 -1.4970 -0.8802
10405TIP3    H252707   2.607   3.420  12.160 -0.4173 -1.7781  0.2799
10406TIP3   OH252708   0.498   5.895   4.182  0.1748 -0.1642  0.7713
10406TIP3    H152709   0.593   5.886   4.194  0.2051 -1.2750 -0.1306
10406TIP3    H252710   0.477   5.980   4.220  1.4181 -0.2225  1.6410
10407TIP3   OH252711   4.478   0.521  13.837 -0.2203  0.2570  0.1391
10407TIP3    H152712   4.425   0.477  13.904  0.9354  0.0041  0.9258
10407TIP3    H252713   4.417   0.541  13.767 -1.3456 -0.0239  1.0170
10408TIP3   OH252714   6.219   6.186   1.298  0.4606 -0.0356 -0.4852
10408TIP3    H152715   6.184   6.259   1.246 -1.2522  0.8137  1.7008
10408TIP3    H252716   6.267   6.228   1.369  2.1173 -1.1625 -0.8709
10409TIP3   OH252717   6.282   1.264   3.901  0.8096 -0.6663 -0.1817
10409TIP3    H152718   6.218   1.198   3.928  1.1922 -1.7652 -1.7658
10409TIP3    H252719   6.332   1.284   3.980 -1.6941  0.5079  1.1833
10410TIP3   OH252720   5.703   0.633   5.434  0.7390  0.2434  0.3154
10410TIP3    H152721   5.767   0.624   5.364  0.4582  1.7724 -0.1718
10410TIP3    H252722   5.707   0.550   5.481  1.3026 -0.6216 -1.1889
10411TIP3   OH252723   3.717   2.021  16.409 -0.4096 -0.4763 -0.1826
10411TIP3    H152724   3.675   2.036  16.324  0.1338  1.4159 -0.1519
10411TIP3    H252725   3.655   2.054  16.473 -1.2469 -2.7806  0.2980
10412TIP3   OH252726   0.999   0.432   2.395  0.0809  0.7693  0.1836
10412TIP3    H152727   1.061   0.429   2.468  0.3649  1.2810 -0.0332
10412TIP3    H252728   0.963   0.520   2.397  0.5791  1.0066 -0.6813
10413TIP3   OH252729   3.526   4.210  15.863 -0.1872 -0.1191 -0.5496
10413TIP3    H152730   3.607   4.209  15.812 -1.1248 -0.8337 -2.1015
10413TIP3    H252731   3.478   4.133  15.834 -0.1971 -1.3817  2.4560
10414TIP3   OH252732   5.191   1.187  13.119  0.2269 -0.5212 -0.7010
10414TIP3    H152733   5.194   1.234  13.036  0.8852  1.2681  0.2890
10414TIP3    H252734   5.281   1.160  13.135  0.4674  0.7870  0.3022
10415TIP3   OH252735   2.143   5.461  15.292 -0.1734 -0.4730 -0.3174
10415TIP3    H152736   2.069   5.523  15.290  0.1406 -0.0810  0.0178
10415TIP3    H252737   2.208   5.504  15.348 -0.1415 -1.3179  0.3203
10416TIP3   OH252738   5.996   0.797   0.444  0.2937  0.0364  0.3572
10416TIP3    H152739   5.968   0.857   0.513 -0.5246  0.8325 -0.6205
10416TIP3    H252740   6.072   0.840   0.404  0.7179 -0.3847  0.7002
10417TIP3   OH252741   3.203   0.219   6.035  0.2898 -0.0416 -0.2109
10417TIP3    H152742   3.224   0.200   6.126  0.1268  0.4769 -0.0646
10417TIP3    H252743   3.184   0.133   5.996  1.9626 -0.4428 -0.1800
10418TIP3   OH252744   2.693   2.818   3.897 -0.0940  0.3479  0.0799
10418TIP3    H152745   2.680   2.911   3.916 -1.2453  0.2261 -0.0561
10418TIP3    H252746   2.608   2.778   3.913  0.1405 -0.5355 -0.7695
10419TIP3   OH252747   4.840   5.164   6.039  0.3465 -0.2195 -0.9393
10419TIP3    H152748   4.752   5.198   6.054  0.4296 -0.7044  0.9179
10419TIP3    H252749   4.851   5.167   5.944 -1.5159  0.2030 -1.1843
10420TIP3   OH252750   5.169   4.822  11.136  0.1778  0.3355 -0.2658
10420TIP3    H152751   5.079   4.837  11.107  0.0745  0.3040  0.0347
10420TIP3    H252752   5.190   4.900  11.187  0.7972  0.9807 -1.4640
10421TIP3   OH252753   0.951   4.756  16.349 -0.4481 -0.2575 -0.4633
10421TIP3    H152754   0.868   4.763  16.397 -0.1109  1.3424 -0.0571
10421TIP3    H252755   0.973   4.663  16.352 -1.0097 -0.3629  1.5072
10422TIP3   OH252756   5.826   5.403  14.045  0.3361  0.5147  0.2520
10422TIP3    H152757   5.830   5.308  14.044 -0.5303  0.4288  1.8082
10422TIP3    H252758   5.866   5.430  13.962  0.8649 -1.1768 -0.0750
10423TIP3   OH252759   5.650   6.572   1.423  0.1276 -0.0646 -0.2181
10423TIP3    H152760   5.699   6.546   1.501 -1.1337 -0.5100  0.4664
10423TIP3    H252761   5.586   6.502   1.411  0.4119 -0.0971 -1.7805
10424TIP3   OH252762   0.056   4.344   5.878 -0.1476 -0.5723  1.0444
10424TIP3    H152763   0.136   4.314   5.835 -0.9245 -0.5120 -0.4931
10424TIP3    H252764   0.079   4.430   5.915  0.8439 -1.1176  1.7544
10425TIP3   OH252765   6.512   4.749  12.317 -0.3399 -0.2094 -0.1824
10425TIP3    H152766   6.594   4.701  12.325  0.6868  1.6489  1.1830
10425TIP3    H252767   6.498   4.787  12.404 -2.9168 -0.8299 -0.2274
10426TIP3   OH252768   6.147   3.836   1.616  0.3387 -0.4484  0.8370
10426TIP3    H152769   6.120   3.895   1.546 -1.0500 -2.1388 -0.1152
10426TIP3    H252770   6.083   3.853   1.686 -0.3586 -1.1154  0.3812
10427TIP3   OH252771   2.925   6.385  10.651 -0.0850 -0.0293 -0.4733
10427TIP3    H152772   3.000   6.344  10.607 -0.2302 -1.8912  0.8486
10427TIP3    H252773   2.898   6.319  10.716 -1.1978  1.6997  0.8958
10428TIP3   OH252774   2.847   1.092   3.864 -0.6974 -0.0552  0.4883
10428TIP3    H152775   2.867   1.167   3.920 -1.6740 -0.4941  1.4536
10428TIP3    H252776   2.889   1.018   3.907  2.7752  0.2416 -1.9468
10429TIP3   OH252777   3.787   2.776   4.426 -0.8028 -0.3229 -0.6512
10429TIP3    H152778   3.778   2.820   4.342 -0.5533  1.3202  0.1393
10429TIP3    H252779   3.879   2.750   4.430 -0.7040  0.0079 -0.7112
10430TIP3   OH252780   2.276   0.939  12.743  0.1995 -0.1520 -0.1176
10430TIP3    H152781   2.277   1.028  12.708  1.6685 -0.5018 -1.0551
10430TIP3    H252782   2.348   0.938  12.806  1.0675 -1.0246 -1.0945
10431TIP3   OH252783   0.278   5.063  10.875  0.2070  0.0765 -0.0603
10431TIP3    H152784   0.367   5.095  10.894  0.7903 -1.2658 -0.4090
10431TIP3    H252785   0.278   5.048  10.781  0.1150 -1.3439  0.1460
10432TIP3   OH252786   3.795   5.808  12.215  0.2816 -0.7320 -0.0777
10432TIP3    H152787   3.846   5.764  12.147  0.6494 -1.1019  0.4267
10432TIP3    H252788   3.760   5.737  12.268 -0.5780 -0.4686 -0.2866
10433TIP3   OH252789   6.630   6.001   6.338 -0.0052  0.0324 -0.6206
10433TIP3    H152790   6.680   6.013   6.419  0.2429 -2.0007 -0.4192
10433TIP3    H252791   6.681   6.048   6.272 -0.9563  2.9593  0.5801
10434TIP3   OH252792   5.424   3.895  15.002  0.6114 -0.0807  0.4173
10434TIP3    H152793   5.337   3.911  14.965  1.3382  0.1786 -1.2856
10434TIP3    H252794   5.412   3.904  15.096 -0.7887  2.0420  0.0996
10435TIP3   OH252795   0.253   3.914   2.909  0.3624 -0.0899 -0.3336
10435TIP3    H152796   0.323   3.940   2.848  0.0069  1.1083 -0.2539
10435TIP3    H252797   0.298   3.897   2.991  0.4264  2.6104  0.2923
10436TIP3   OH252798   3.543   3.774  15.187  0.1155 -0.4214  0.7573
10436TIP3    H152799   3.562   3.834  15.259  1.8344  0.8336 -0.6557
10436TIP3    H252800   3.537   3.688  15.228 -0.8006  0.4749  2.6176
10437TIP3   OH252801   2.213   3.731  16.427  0.0891 -0.1723 -0.6354
10437TIP3    H152802   2.207   3.651  16.374 -0.8298  0.8297 -2.1174
10437TIP3    H252803   2.249   3.797  16.368  1.5588  0.3685  0.7881
10438TIP3   OH252804   2.168   2.189  13.261  0.0886  0.0442  0.3468
10438TIP3    H152805   2.094   2.246  13.285 -0.9642 -0.9744 -0.3498
10438TIP3    H252806   2.244   2.229  13.303 -0.4908  2.2790 -0.5697
10439TIP3   OH252807   1.715   1.577   5.907  0.5099 -0.4135 -0.1099
10439TIP3    H152808   1.659   1.539   5.974 -0.5579 -1.2767 -1.4373
10439TIP3    H252809   1.789   1.517   5.901  1.4260  0.4953  1.3358
10440TIP3   OH252810   0.548   5.259  13.306  0.7459  0.3461  0.4373
10440TIP3    H152811   0.620   5.208  13.269  0.0591  0.7443 -1.6032
10440TIP3    H252812   0.517   5.314  13.233 -2.3546 -0.6282  0.8498
10441TIP3   OH252813   3.183   4.244   3.991 -0.2136 -0.7514 -0.0573
10441TIP3    H152814   3.111   4.199   3.944  1.1165 -2.6978 -0.3717
10441TIP3    H252815   3.258   4.185   3.980  0.7440 -0.1508  2.6215
10442TIP3   OH252816   3.875   3.234   0.572 -0.0128  0.8543  0.1967
10442TIP3    H152817   3.921   3.283   0.640  0.5714 -0.2051  0.5771
10442TIP3    H252818   3.933   3.162   0.550 -0.0895  1.2832 -1.6093
10443TIP3   OH252819   4.956   0.690   1.555 -1.1079 -0.5753  0.0280
10443TIP3    H152820   4.933   0.666   1.466 -0.8936  0.6222 -0.3708
10443TIP3    H252821   4.872   0.705   1.598 -1.2635  2.9204 -1.1803
10444TIP3   OH252822   4.606   3.631  11.352  0.1947  0.8988  0.1011
10444TIP3    H152823   4.524   3.582  11.361 -0.0817  1.2572 -0.3988
10444TIP3    H252824   4.625   3.627  11.258  1.0565  0.3371  0.2889
10445TIP3   OH252825   0.332   4.753   0.187 -0.0941 -0.5776 -0.6143
10445TIP3    H152826   0.363   4.719   0.271 -0.7638  0.6751  0.1612
10445TIP3    H252827   0.381   4.834   0.173  0.8553 -1.3403 -2.0230
10446TIP3   OH252828   3.500   2.712   5.502 -0.4423  0.4052  0.3707
10446TIP3    H152829   3.430   2.685   5.562  0.5915  0.6610  1.7509
10446TIP3    H252830   3.556   2.635   5.494  0.0491  0.7176  0.6860
10447TIP3   OH252831   4.027   0.449   5.454  0.3353 -0.4379  0.5775
10447TIP3    H152832   4.070   0.459   5.369 -0.7647  0.8272  0.1346
10447TIP3    H252833   4.017   0.355   5.465  0.6243 -0.6316 -0.6313
10448TIP3   OH252834   1.607   0.674   2.149  0.4768  0.2163 -0.3556
10448TIP3    H152835   1.613   0.767   2.172 -1.5217  0.7743 -1.8561
10448TIP3    H252836   1.611   0.673   2.054 -0.5403 -1.1445 -0.4021
10449TIP3   OH252837   0.904   5.101  16.680 -0.2270 -0.6354  0.1485
10449TIP3    H152838   0.819   5.071  16.647 -0.0002  0.9224 -2.0577
10449TIP3    H252839   0.963   5.028  16.661 -0.7743 -1.1552  0.3673
10450TIP3   OH252840   4.681   1.344   5.637  0.4108 -0.3316  0.1629
10450TIP3    H152841   4.672   1.421   5.581  1.1836 -0.3820 -0.0424
10450TIP3    H252842   4.768   1.309   5.616 -0.3186 -1.8374 -0.4600
10451TIP3   OH252843   2.100   5.560   2.797 -0.3293 -0.1279 -0.0403
10451TIP3    H152844   2.062   5.551   2.709  1.2285 -1.0044 -0.6541
10451TIP3    H252845   2.172   5.621   2.786 -0.5845  0.3481  0.8123
10452TIP3   OH252846   4.864   2.156   2.643 -0.0330  0.1664 -0.7678
10452TIP3    H152847   4.935   2.136   2.583  0.3047  1.2255 -0.7368
10452TIP3    H252848   4.882   2.245   2.674 -0.9557  0.1670 -0.1746
10453TIP3   OH252849   2.898   3.385   0.902  0.4782 -0.2507  0.1448
10453TIP3    H152850   2.862   3.424   0.823  0.9512  0.4460  0.2706
10453TIP3    H252851   2.874   3.292   0.896  1.5233 -0.4578 -1.3941
10454TIP3   OH252852   0.433   2.712  10.744 -0.2046 -0.4944 -0.2171
10454TIP3    H152853   0.358   2.674  10.699  0.7709 -0.4674 -1.9532
10454TIP3    H252854   0.401   2.797  10.776 -0.4033  0.4626 -2.7381
10455TIP3   OH252855   1.478   3.693   1.859 -0.1142  0.5809  0.3380
10455TIP3    H152856   1.559   3.713   1.906  0.6692 -1.1173 -0.2175
10455TIP3    H252857   1.411   3.692   1.927  0.7699 -0.4964  1.2191
10456TIP3   OH252858   6.711   0.566   5.234  0.5202  0.2917  0.3250
10456TIP3    H152859   6.646   0.609   5.177  1.6243 -1.3135 -2.3647
10456TIP3    H252860   6.674   0.480   5.250  1.7286 -0.4990 -0.9126
10457TIP3   OH252861   3.300   0.981   6.534  0.3044  0.0116  0.3217
10457TIP3    H152862   3.393   0.968   6.514  0.4259  1.3552 -0.0876
10457TIP3    H252863   3.300   1.032   6.614 -0.0098  1.9571 -0.8707
10458TIP3   OH252864   6.544   4.645   6.009 -0.3447  0.3739 -0.6070
10458TIP3    H152865   6.611   4.577   6.018 -1.1798 -0.4566 -0.5377
10458TIP3    H252866   6.572   4.714   6.069  0.5260  0.0997 -0.6852
10459TIP3   OH252867   2.622   0.673  12.255 -0.0085  0.3540  0.4820
10459TIP3    H152868   2.580   0.631  12.330  0.7242  0.7107  1.1087
10459TIP3    H252869   2.619   0.766  12.275  0.0881  0.4601  0.0102
10460TIP3   OH252870   5.392   5.588   0.281  0.0800 -0.4296  0.4366
10460TIP3    H152871   5.485   5.578   0.302  0.0399  0.0552  0.8627
10460TIP3    H252872   5.353   5.623   0.361  0.0090  2.0020 -0.5854
10461TIP3   OH252873   6.520   5.347  16.173  0.3294 -0.3241  0.0361
10461TIP3    H152874   6.487   5.322  16.086 -1.9398  2.0426  0.0947
10461TIP3    H252875   6.592   5.407  16.155 -1.1723  1.4596 -0.3419
10462TIP3   OH252876   0.317   6.666   0.668 -0.2638 -0.4720 -0.3495
10462TIP3    H152877   0.385   6.673   0.734  0.1519  0.0042 -0.8115
10462TIP3    H252878   0.353   6.608   0.601 -1.0283 -1.6646  0.2394
10463TIP3   OH252879   2.220   2.988  15.030 -0.1167 -0.4250  0.2984
10463TIP3    H152880   2.207   2.959  14.940 -0.7392 -1.6727  0.7547
10463TIP3    H252881   2.315   2.989  15.042  0.0071  0.7464 -0.6650
10464TIP3   OH252882   3.435   3.351   3.819  0.5064  0.3699  0.2023
10464TIP3    H152883   3.352   3.364   3.773  0.5800 -0.3539 -0.1459
10464TIP3    H252884   3.416   3.285   3.886 -0.0576  2.6609  2.4750
10465TIP3   OH252885   0.666   0.931  17.065  0.4936  0.1370  0.1369
10465TIP3    H152886   0.717   0.901  16.990 -0.8774 -0.8720 -0.4244
10465TIP3    H252887   0.696   1.021  17.079  0.3497  0.5747 -2.0194
10466TIP3   OH252888   6.291   4.776  13.723  0.1499  0.3293 -0.2009
10466TIP3    H152889   6.361   4.720  13.690 -0.4610 -0.7259  0.2534
10466TIP3    H252890   6.320   4.865  13.703  1.0998 -0.1460 -1.0058
10467TIP3   OH252891   6.777   1.290  14.630 -0.1543 -0.0791 -0.1331
10467TIP3    H152892   6.756   1.199  14.614 -1.5626 -0.0814  1.4730
10467TIP3    H252893   6.872   1.295  14.618 -0.4360 -0.9032 -3.8337
10468TIP3   OH252894   0.683   2.060   4.605 -0.1679  0.0212  0.3778
10468TIP3    H152895   0.734   2.110   4.668  1.1991  0.5591 -1.0871
10468TIP3    H252896   0.747   2.004   4.560 -0.6456  1.2291 -1.9998
10469TIP3   OH252897   5.521   0.513   3.614  0.1772  0.3951  0.1094
10469TIP3    H152898   5.483   0.429   3.590  3.1288 -0.7548 -0.9491
10469TIP3    H252899   5.539   0.556   3.531  2.1268  0.3893  0.4845
10470TIP3   OH252900   3.711   1.188  16.505  0.0528 -0.3152  0.4466
10470TIP3    H152901   3.623   1.225  16.504 -0.2931 -0.8564  2.8557
10470TIP3    H252902   3.762   1.244  16.448 -2.0837 -0.7328 -2.0555
10471TIP3   OH252903   4.758   5.651  15.124 -0.0451  0.3533 -0.0593
10471TIP3    H152904   4.746   5.623  15.215 -0.3474  0.8662  0.0687
10471TIP3    H252905   4.676   5.628  15.081  0.5479 -0.9746 -0.5010
10472TIP3   OH252906   4.354   2.070  14.856  0.5123  0.2602 -0.2453
10472TIP3    H152907   4.423   2.090  14.792  0.5657  1.0610  0.0522
10472TIP3    H252908   4.360   1.976  14.869  1.1960  0.2428 -0.6326
10473TIP3   OH252909   5.555   1.570  15.621  0.1577 -0.0366  0.0684
10473TIP3    H152910   5.575   1.637  15.687  1.1702  1.3077 -1.5280
10473TIP3    H252911   5.479   1.603  15.574  0.9448  0.2783 -1.0360
10474TIP3   OH252912   3.836   0.085  12.775 -0.1104 -0.0493 -0.7262
10474TIP3    H152913   3.745   0.063  12.754 -0.1279 -2.6972  1.5917
10474TIP3    H252914   3.834   0.114  12.866  1.0444  2.8146 -1.5145
10475TIP3   OH252915   0.593   6.099  14.852  0.3304 -0.1040 -0.0967
10475TIP3    H152916   0.671   6.150  14.875  0.4509 -0.5245  0.4593
10475TIP3    H252917   0.527   6.165  14.828  0.8147  0.2571 -0.4465
10476TIP3   OH252918   0.363   6.007   3.836 -0.3056 -0.0988  0.2025
10476TIP3    H152919   0.398   6.094   3.856 -1.0707  0.2424  0.0713
10476TIP3    H252920   0.288   6.023   3.779  0.1067 -0.8986 -0.6125
10477TIP3   OH252921   4.865   1.986   3.883 -0.2493 -0.2384 -0.3036
10477TIP3    H152922   4.936   1.986   3.947  0.8076  1.2002 -1.3849
10477TIP3    H252923   4.809   2.060   3.909 -0.5932 -0.5225 -0.2319
10478TIP3   OH252924   1.926   0.444   5.206  0.0067  0.8739 -0.2159
10478TIP3    H152925   1.845   0.494   5.217 -0.0965  0.5386  0.6771
10478TIP3    H252926   1.921   0.376   5.274  1.8953  1.9976  1.1480
10479TIP3   OH252927   4.513   0.263   4.074 -0.0423 -0.0926  0.3824
10479TIP3    H152928   4.521   0.355   4.101  0.1545  0.1098 -0.3572
10479TIP3    H252929   4.512   0.266   3.979  0.5958 -0.9128  0.3392
10480TIP3   OH252930   0.347   0.357  14.764  0.2640  0.2204 -0.3551
10480TIP3    H152931   0.267   0.305  14.771  1.2961 -1.5700 -1.0823
10480TIP3    H252932   0.387   0.351  14.850  1.1743 -1.6208 -0.8659
10481TIP3   OH252933   4.491   2.251   5.187 -0.8215  0.3463 -0.0825
10481TIP3    H152934   4.488   2.330   5.240  1.6897  0.6571 -0.3066
10481TIP3    H252935   4.489   2.179   5.250 -1.9784  0.5733  0.1702
10482TIP3   OH252936   6.135   0.500   4.984 -0.7890  0.1118 -0.0856
10482TIP3    H152937   6.214   0.457   4.952 -0.3485 -0.2403  1.3997
10482TIP3    H252938   6.118   0.460   5.070 -2.2951  0.5365 -0.1471
10483TIP3   OH252939   4.559   6.635  16.506  0.5107  0.7594 -0.1415
10483TIP3    H152940   4.647   6.671  16.507 -0.2143  2.6906 -0.5974
10483TIP3    H252941   4.502   6.712  16.506 -1.1897 -0.4380  0.8374
10484TIP3   OH252942   6.824   4.197  13.776  0.5569  0.2488 -0.5130
10484TIP3    H152943   6.910   4.174  13.741  0.5377 -0.4912 -0.0889
10484TIP3    H252944   6.828   4.292  13.789  1.8019  0.0655  0.7540
10485TIP3   OH252945   1.198   5.539   0.295  0.0240  0.2966  0.1452
10485TIP3    H152946   1.226   5.458   0.338  0.4078  0.7834  0.8257
10485TIP3    H252947   1.242   5.537   0.210 -0.8652 -0.7507 -0.3280
10486TIP3   OH252948   5.007   0.602  13.445 -0.4684 -0.2905  0.3283
10486TIP3    H152949   5.016   0.508  13.430 -0.8960 -0.2821 -0.0173
10486TIP3    H252950   4.962   0.609  13.529 -1.0749 -0.4194  0.0264
10487TIP3   OH252951   6.736   1.445   5.912 -0.6431  0.3707 -0.1732
10487TIP3    H152952   6.813   1.428   5.858 -2.0777  2.0818 -3.0462
10487TIP3    H252953   6.745   1.536   5.939 -1.1258  0.2496  0.4070
10488TIP3   OH252954   0.175   6.252   0.340  0.1254 -0.0537  0.1814
10488TIP3    H152955   0.226   6.183   0.382  1.4416  1.1879  0.6842
10488TIP3    H252956   0.177   6.324   0.402  0.8189  1.2840 -1.3297
10489TIP3   OH252957   6.412   5.825   5.712  0.1482  0.2617 -0.1720
10489TIP3    H152958   6.445   5.770   5.783  1.1272  0.1563 -0.6860
10489TIP3    H252959   6.454   5.910   5.726  0.2180  0.2866 -0.5237
10490TIP3   OH252960   1.083   1.289   5.188 -0.2141  0.1857  0.2665
10490TIP3    H152961   1.054   1.200   5.166  0.8907 -0.1197 -0.0189
10490TIP3    H252962   1.022   1.318   5.256  0.2435 -1.3504  1.4120
10491TIP3   OH252963   1.731   4.901   2.820  0.1519 -0.3033 -0.3110
10491TIP3    H152964   1.686   4.952   2.753  0.4823 -1.7862 -1.7235
10491TIP3    H252965   1.676   4.909   2.898 -1.0796  0.1646 -1.2077
10492TIP3   OH252966   2.680   5.501  11.071  0.0446 -0.4744 -0.3418
10492TIP3    H152967   2.619   5.446  11.021  0.3455 -0.1092 -1.1316
10492TIP3    H252968   2.626   5.541  11.139 -0.2244 -1.5713  0.1215
10493TIP3   OH252969   4.449   1.537  15.827  0.5789  0.3094  0.0836
10493TIP3    H152970   4.409   1.620  15.802  0.7666  0.1247 -0.8476
10493TIP3    H252971   4.382   1.493  15.880  0.9205  1.5575  1.6410
10494TIP3   OH252972   3.713   5.784   2.593 -0.4570  0.6408  0.0156
10494TIP3    H152973   3.798   5.823   2.614 -1.3406  2.7444 -0.0634
10494TIP3    H252974   3.695   5.811   2.504 -0.9342 -0.3659 -0.2086
10495TIP3   OH252975   1.535   1.123  15.426  0.4698 -0.2356  0.2047
10495TIP3    H152976   1.528   1.117  15.521 -0.4109  0.7920  0.2134
10495TIP3    H252977   1.445   1.136  15.395  0.4098 -2.8266 -0.9708
10496TIP3   OH252978   1.081   1.295   3.578 -0.3572 -0.3966 -0.3549
10496TIP3    H152979   0.999   1.275   3.623 -0.8263  1.0701 -0.4898
10496TIP3    H252980   1.056   1.310   3.487 -0.0385  0.5623 -0.3007
10497TIP3   OH252981   1.001   1.300  14.352  0.2208  0.2588 -0.0896
10497TIP3    H152982   0.963   1.376  14.307 -0.1569  0.4380  0.5180
10497TIP3    H252983   1.093   1.299  14.324 -0.1872 -0.1257 -1.5123
10498TIP3   OH252984   2.802   3.370  12.919  0.0668  0.4722 -0.3632
10498TIP3    H152985   2.805   3.288  12.968 -0.6968  1.1060  0.7826
10498TIP3    H252986   2.867   3.426  12.961 -1.4556  1.4491  0.7669
10499TIP3   OH252987   0.029   3.017  16.828  0.0295 -0.1651  0.2368
10499TIP3    H152988   0.047   2.965  16.905 -0.4871 -0.7697 -0.0499
10499TIP3    H252989  -0.066   3.030  16.828 -0.2538 -1.8624 -1.3420
10500TIP3   OH252990   4.028   3.720   2.665  0.4596  0.3894 -1.0242
10500TIP3    H152991   4.012   3.642   2.613 -1.1776  0.8357 -1.2352
10500TIP3    H252992   4.019   3.793   2.604  2.6336  0.7813 -0.9861
10501TIP3   OH252993   0.415   0.599  16.242  0.2226 -0.2189  0.2167
10501TIP3    H152994   0.436   0.523  16.297  0.1153  0.5404  1.3226
10501TIP3    H252995   0.345   0.568  16.184  0.6061 -1.1430  0.2311
10502TIP3   OH252996   3.835   3.161  15.601 -0.5103  0.1382  0.0028
10502TIP3    H152997   3.892   3.104  15.653  0.7768 -0.4439 -1.9447
10502TIP3    H252998   3.837   3.244  15.648  1.9119  0.1209  0.0937
10503TIP3   OH252999   3.324   4.537   2.618  0.2541  0.3958  0.3586
10503TIP3    H153000   3.392   4.508   2.678  0.5288 -1.1160 -0.6187
10503TIP3    H253001   3.258   4.467   2.621  0.2926  0.2735 -1.0907
10504TIP3   OH253002   1.137   5.097  12.187  0.5141 -0.5309  0.8975
10504TIP3    H153003   1.197   5.156  12.231 -0.4465  0.0542  1.4626
10504TIP3    H253004   1.051   5.120  12.221 -0.2811 -0.1074 -1.2321
10505TIP3   OH253005   0.980   0.825   1.889 -0.0882 -0.2798  0.1537
10505TIP3    H153006   0.919   0.871   1.946 -0.9600 -1.1602 -0.0321
10505TIP3    H253007   0.956   0.733   1.898  1.8640 -0.7712  0.8183
10506TIP3   OH253008   4.513   1.212  15.718 -0.0270  0.4018 -0.5398
10506TIP3    H153009   4.548   1.296  15.747  0.2730  0.3687 -0.7940
10506TIP3    H253010   4.464   1.179  15.793  0.7323  0.3160 -0.0664
10507TIP3   OH253011   6.809   6.816   1.179  0.2015  0.4442 -0.7677
10507TIP3    H153012   6.787   6.817   1.086  0.9270 -0.5930 -0.9693
10507TIP3    H253013   6.847   6.730   1.194  0.1247  0.6058  0.4929
10508TIP3   OH253014   1.028   1.755  12.870 -0.0074 -0.1487  0.2493
10508TIP3    H153015   1.105   1.766  12.926  0.4548 -0.3364 -0.3320
10508TIP3    H253016   0.974   1.691  12.915  0.6288 -0.7272  0.2042
10509TIP3   OH253017   0.434   4.004   0.537 -0.5497  0.3831 -0.2465
10509TIP3    H153018   0.383   4.041   0.465 -1.6046  2.3233  1.3944
10509TIP3    H253019   0.487   3.935   0.496 -0.6867  1.7572 -2.9446
10510TIP3   OH253020   1.181   2.654   4.904 -0.5875 -0.1049 -0.2540
10510TIP3    H153021   1.174   2.748   4.889  0.0556  0.0907  0.5936
10510TIP3    H253022   1.269   2.642   4.941 -1.2789 -0.8220  1.2318
10511TIP3   OH253023   3.817   3.702  13.828  0.1863  0.1657  0.6359
10511TIP3    H153024   3.852   3.677  13.742 -0.9966  2.0334 -0.4466
10511TIP3    H253025   3.817   3.620  13.878  0.8318 -0.9914 -1.1452
10512TIP3   OH253026   2.656   5.959   6.375  0.1407 -0.3200 -0.5016
10512TIP3    H153027   2.561   5.946   6.368 -0.3550  1.9706  0.9762
10512TIP3    H253028   2.680   5.917   6.457  0.3496 -0.5869 -0.6983
10513TIP3   OH253029   6.250   4.579  12.924 -0.1597  0.4354 -0.2496
10513TIP3    H153030   6.205   4.499  12.952  1.3775 -1.3438 -2.4894
10513TIP3    H253031   6.180   4.642  12.908 -1.4772 -0.6859  0.8473
10514TIP3   OH253032   5.457   5.865  13.524  0.1278  0.2258  0.1545
10514TIP3    H153033   5.518   5.937  13.534  1.3041 -0.7666  0.3669
10514TIP3    H253034   5.493   5.812  13.453  0.8256 -1.5907  1.7481
10515TIP3   OH253035   6.743   4.422  12.100  0.2056 -0.4783  0.6826
10515TIP3    H153036   6.679   4.490  12.123  0.4414  0.5176 -1.4357
10515TIP3    H253037   6.691   4.353  12.060  0.1849 -0.7323  1.1452
10516TIP3   OH253038   3.282   6.144   6.638  0.7909  0.4310 -0.1797
10516TIP3    H153039   3.291   6.238   6.650 -0.9782  0.7426 -1.0557
10516TIP3    H253040   3.213   6.119   6.700  2.0663 -0.5249  0.9164
10517TIP3   OH253041   2.784   1.744  12.260  0.1130  0.3853  0.3876
10517TIP3    H153042   2.803   1.691  12.182  1.3818 -1.3415  1.7867
10517TIP3    H253043   2.689   1.739  12.270  0.0032  0.0706 -0.6503
10518TIP3   OH253044   3.411   0.918   4.579  0.1307 -0.0761 -0.6397
10518TIP3    H153045   3.383   1.009   4.585 -2.2450 -0.7633 -0.3969
10518TIP3    H253046   3.384   0.890   4.492  0.1025 -0.7858 -0.4100
10519TIP3   OH253047   0.025   4.789  12.591 -0.6660  0.4928 -0.4722
10519TIP3    H153048   0.044   4.880  12.614  1.7734 -0.3163  1.1389
10519TIP3    H253049  -0.028   4.756  12.663 -0.0288  0.1793 -0.1389
10520TIP3   OH253050   6.344   5.013   0.829  0.2251  0.2223 -0.0777
10520TIP3    H153051   6.401   4.963   0.888 -0.7083 -1.0369 -0.1814
10520TIP3    H253052   6.392   5.017   0.746  0.6747  0.2311  0.1830
10521TIP3   OH253053   2.845   0.015   3.061  0.1586  0.3710  0.3291
10521TIP3    H153054   2.825   0.058   2.978 -1.1626 -0.4613  0.2066
10521TIP3    H253055   2.941   0.017   3.066  0.2926 -0.1494 -1.5198
10522TIP3   OH253056   6.385   4.716   5.184 -0.0047 -0.2228  0.1774
10522TIP3    H153057   6.381   4.720   5.089 -0.3066  1.4159  0.2324
10522TIP3    H253058   6.293   4.719   5.212  0.0015 -2.0780  0.5147
10523TIP3   OH253059   4.469   0.330   2.776 -0.7519 -0.2256  0.4594
10523TIP3    H153060   4.523   0.323   2.855  0.8971 -1.9937 -0.7238
10523TIP3    H253061   4.385   0.362   2.808 -0.0200 -0.4404  2.8670
10524TIP3   OH253062   0.774   0.624   3.804  0.1971  0.0984 -1.1614
10524TIP3    H153063   0.700   0.684   3.802  1.2243  1.3915 -1.9652
10524TIP3    H253064   0.765   0.571   3.724 -0.3343 -0.3724 -0.7977
10525TIP3   OH253065   5.770   3.144   4.389  0.1608 -0.1718  0.0956
10525TIP3    H153066   5.777   3.079   4.319 -0.1775  0.2326 -0.3228
10525TIP3    H253067   5.693   3.196   4.365  0.3398  0.2820  0.5035
10526TIP3   OH253068   1.640   0.929   2.744  0.0694 -0.2318  0.3404
10526TIP3    H153069   1.665   0.951   2.833 -0.4860  0.3622  0.3558
10526TIP3    H253070   1.706   0.972   2.689  1.1546 -1.6375  0.4862
10527TIP3   OH253071   4.045   2.405  16.135 -0.4609  0.2261  0.0674
10527TIP3    H153072   3.983   2.425  16.065  4.7593  3.6423 -4.3425
10527TIP3    H253073   4.077   2.317  16.115 -0.3602  0.4297 -0.6762
10528TIP3   OH253074   1.248   3.387  13.151 -0.0585 -0.1899 -0.2917
10528TIP3    H153075   1.191   3.357  13.222  0.3037  0.0718  0.1236
10528TIP3    H253076   1.300   3.310  13.127 -1.1753 -0.6575 -1.2680
10529TIP3   OH253077   3.359   4.424  12.177 -0.0829 -0.1052 -0.1246
10529TIP3    H153078   3.340   4.518  12.166  1.4472  0.0230 -2.2934
10529TIP3    H253079   3.454   4.418  12.168 -0.3343 -2.0898 -2.1765
10530TIP3   OH253080   4.969   1.935  11.402  0.0236  0.3936 -0.1315
10530TIP3    H153081   4.888   1.963  11.359 -0.6974 -2.1984 -0.6296
10530TIP3    H253082   5.029   1.914  11.329  0.2869  0.0083  0.1909
10531TIP3   OH253083   3.380   5.907  12.248 -0.6913 -0.1511 -0.0502
10531TIP3    H153084   3.433   5.921  12.169 -0.9021  2.1555  0.1474
10531TIP3    H253085   3.303   5.962  12.235 -0.3455  0.9303  2.1197
10532TIP3   OH253086   4.395   3.546  11.590 -0.4707  0.6428 -0.0237
10532TIP3    H153087   4.406   3.587  11.676  0.6742 -1.0802  0.7033
10532TIP3    H253088   4.421   3.455  11.603 -0.2467  0.3363 -2.2171
10533TIP3   OH253089   1.472   2.543  12.903  0.1413  0.0245 -0.3422
10533TIP3    H153090   1.538   2.475  12.919 -0.3487 -0.4457 -0.3020
10533TIP3    H253091   1.428   2.553  12.987 -0.2898 -0.1445 -0.5472
10534TIP3   OH253092   4.589   1.555  13.558  0.3267  0.9170 -0.4427
10534TIP3    H153093   4.519   1.621  13.557  0.1499  0.7372  0.1334
10534TIP3    H253094   4.576   1.506  13.476 -1.7356 -0.6807  0.7585
10535TIP3   OH253095   0.991   1.326   1.004  0.1027 -0.1651 -0.4392
10535TIP3    H153096   0.955   1.293   0.922  0.4088 -2.0023  0.1138
10535TIP3    H253097   0.924   1.308   1.069 -0.1897  1.3943 -0.2693
10536TIP3   OH253098   5.382   1.459   2.484  0.3245  0.4410  0.3698
10536TIP3    H153099   5.462   1.483   2.437 -0.8392  2.1865 -0.8460
10536TIP3    H253100   5.339   1.396   2.428  0.8277 -0.5239  1.0404
10537TIP3   OH253101   3.830   4.642   6.147 -0.1497  0.0911  0.0226
10537TIP3    H153102   3.799   4.720   6.194 -1.7006  0.0280 -0.8600
10537TIP3    H253103   3.913   4.670   6.108 -0.7734  1.3590 -0.4335
10538TIP3   OH253104   1.210   2.792   5.997 -0.1352  0.1723  0.3586
10538TIP3    H153105   1.206   2.830   6.085 -1.6571  0.7293  0.0939
10538TIP3    H253106   1.263   2.713   6.007 -1.5997 -0.6738  2.1322
10539TIP3   OH253107   5.656   4.677  13.132  0.3179 -0.2050  0.1520
10539TIP3    H153108   5.654   4.770  13.157 -2.9507  0.8330 -2.9653
10539TIP3    H253109   5.607   4.632  13.200  0.4675  0.6658  0.8477
10540TIP3   OH253110   6.520   3.103   5.672 -0.2905  0.2232  0.0156
10540TIP3    H153111   6.482   3.084   5.587 -0.4668  0.3849  0.0585
10540TIP3    H253112   6.607   3.139   5.652 -0.1463 -0.1788 -0.0797
10541TIP3   OH253113   3.548   1.257  14.878  0.1701 -0.0318  0.6399
10541TIP3    H153114   3.566   1.312  14.954  0.3860  0.4451  0.2443
10541TIP3    H253115   3.458   1.228  14.891 -0.3019  1.2412  0.3465
10542TIP3   OH253116   4.328   0.657  15.134 -0.7893  0.4281  0.3011
10542TIP3    H153117   4.358   0.735  15.181 -0.7776  0.5540  0.0862
10542TIP3    H253118   4.311   0.688  15.045  0.4016 -0.0820 -0.1120
10543TIP3   OH253119   5.982   0.492  13.757 -0.2204  0.1270 -0.2408
10543TIP3    H153120   5.891   0.477  13.729 -0.3903  0.4050  0.1477
10543TIP3    H253121   5.982   0.583  13.789 -0.1056 -0.2832  0.9555
10544TIP3   OH253122   3.819   1.125   0.245  0.7542 -0.5346 -0.4585
10544TIP3    H153123   3.803   1.151   0.154 -0.9732 -0.3804 -0.1527
10544TIP3    H253124   3.761   1.050   0.258  0.6836 -0.3051  0.6282
10545TIP3   OH253125   5.823   3.551  13.925 -0.3422 -0.0463 -0.7103
10545TIP3    H153126   5.765   3.494  13.976 -0.3356 -1.0711 -1.8071
10545TIP3    H253127   5.802   3.530  13.834 -1.0059  2.3783 -1.1934
10546TIP3   OH253128   0.581   2.379  15.057  0.5268  0.1634  0.0388
10546TIP3    H153129   0.569   2.401  14.964  1.0635 -0.8207 -0.2785
10546TIP3    H253130   0.636   2.450  15.091  1.6237 -0.2664 -0.7759
10547TIP3   OH253131   5.050   4.446   1.557 -0.8398 -0.5607 -0.1619
10547TIP3    H153132   5.043   4.350   1.554 -2.3452 -0.4605 -0.5162
10547TIP3    H253133   5.115   4.467   1.490 -0.9183 -1.2995 -0.4792
10548TIP3   OH253134   5.413   3.970   3.309 -0.0857 -0.2897  0.5028
10548TIP3    H153135   5.478   4.024   3.265 -0.5740 -0.9323 -1.0513
10548TIP3    H253136   5.329   4.008   3.285 -0.3772 -0.8535  0.6095
10549TIP3   OH253137   0.636   6.811   6.388 -0.1086  0.4591  0.1092
10549TIP3    H153138   0.675   6.738   6.435  0.1803 -0.2820 -1.2323
10549TIP3    H253139   0.626   6.879   6.454 -0.1758 -0.7023  1.3387
10550TIP3   OH253140   3.938   0.535  15.907  0.2252 -0.1275  0.1838
10550TIP3    H153141   4.005   0.601  15.888  0.1887  0.4143  1.7936
10550TIP3    H253142   3.962   0.461  15.852  0.4917  1.0658 -1.3746
10551TIP3   OH253143   1.696   6.421  15.765  0.3205  0.1509  0.0198
10551TIP3    H153144   1.762   6.467  15.712 -0.0076  1.9107  1.0627
10551TIP3    H253145   1.635   6.489  15.791 -0.8655 -1.1147  0.6810
10552TIP3   OH253146   5.960   4.235   3.907 -0.6626 -0.1777  0.0089
10552TIP3    H153147   5.951   4.146   3.942 -0.4099 -0.2410 -0.0872
10552TIP3    H253148   5.915   4.290   3.972  1.3299 -0.0818  1.4131
10553TIP3   OH253149   0.995   6.620  13.621  0.0964 -0.3675 -0.2834
10553TIP3    H153150   0.957   6.536  13.643  0.9437 -0.9393 -0.9118
10553TIP3    H253151   0.978   6.676  13.697 -1.8755 -0.6058 -0.5000
10554TIP3   OH253152   5.053   4.667   4.294  0.5123 -0.3331 -0.7747
10554TIP3    H153153   5.025   4.730   4.228 -0.8129 -1.6119 -1.5056
10554TIP3    H253154   5.090   4.594   4.244 -1.5703 -1.8435 -0.2480
10555TIP3   OH253155   3.805   1.219   1.894  0.0317 -0.0091  0.1066
10555TIP3    H153156   3.751   1.164   1.837  0.0458 -0.4833  0.5440
10555TIP3    H253157   3.743   1.275   1.941  0.0680  0.9738 -0.9610
10556TIP3   OH253158   0.011   4.991  11.867  0.6986  0.2724 -0.2880
10556TIP3    H153159   0.018   4.968  11.959  0.3224 -1.5346 -0.6652
10556TIP3    H253160   0.018   4.907  11.820  1.4523  1.1976 -1.9378
10557TIP3   OH253161   3.700   5.516   5.578  0.1693 -0.0422 -0.4984
10557TIP3    H153162   3.633   5.567   5.532 -1.6902 -2.0961 -0.1881
10557TIP3    H253163   3.675   5.522   5.670 -1.4465 -3.2231 -0.6178
10558TIP3   OH253164   0.612   5.355  16.044 -0.3709 -0.2896 -1.2570
10558TIP3    H153165   0.660   5.272  16.043  1.6141  0.8029 -2.7457
10558TIP3    H253166   0.550   5.348  15.971  1.1032  0.1827 -2.6206
10559TIP3   OH253167   1.436   6.250   0.842  0.1052  0.3867 -0.3921
10559TIP3    H153168   1.421   6.208   0.926 -0.3526  0.9601 -0.1824
10559TIP3    H253169   1.505   6.314   0.859  0.2629  0.2537 -0.5332
10560TIP3   OH253170   4.654   3.066   1.520  0.0422 -0.2435 -0.4255
10560TIP3    H153171   4.742   3.069   1.483  0.4135  0.2796  0.4674
10560TIP3    H253172   4.644   2.975   1.551  0.4982 -0.1601 -0.0106
10561TIP3   OH253173   5.345   3.845  12.503  0.3781 -0.4005  0.0027
10561TIP3    H153174   5.290   3.771  12.529 -0.1629  0.4830  1.5191
10561TIP3    H253175   5.434   3.817  12.526  0.2133 -0.7084  0.2950
10562TIP3   OH253176   2.613   6.760   4.513 -0.2418  0.0126 -0.2132
10562TIP3    H153177   2.621   6.757   4.609 -0.4788 -0.3811 -0.2018
10562TIP3    H253178   2.692   6.806   4.484 -0.0677 -0.0428  0.1601
10563TIP3   OH253179   1.544   3.825  16.360  0.1006  0.8691  0.4351
10563TIP3    H153180   1.577   3.914  16.371  0.6543  0.5404  1.6998
10563TIP3    H253181   1.578   3.796  16.275  1.4767  1.2260  0.8422
10564TIP3   OH253182   2.620   5.468   4.567  0.2341  0.4729  0.4117
10564TIP3    H153183   2.556   5.397   4.574  0.7179  0.0538  0.7286
10564TIP3    H253184   2.650   5.464   4.476  0.4379  0.0991  0.4903
10565TIP3   OH253185   5.845   0.533   5.179  0.7283  0.1997 -0.1132
10565TIP3    H153186   5.939   0.516   5.176  0.6144 -0.2857 -1.6298
10565TIP3    H253187   5.805   0.460   5.131 -0.5596 -0.3560  1.6963
10566TIP3   OH253188   1.427   1.051   4.510 -0.0123  0.3642  0.0639
10566TIP3    H153189   1.392   1.129   4.468  1.1934 -0.2990 -2.3557
10566TIP3    H253190   1.376   1.043   4.591 -0.5358  3.2933  0.1399
10567TIP3   OH253191   3.948   6.075   3.338  0.2087  0.0608  0.4389
10567TIP3    H153192   3.987   6.133   3.272  0.2380  0.2178  0.5924
10567TIP3    H253193   3.992   5.991   3.325 -1.2760 -0.5296 -1.1587
10568TIP3   OH253194   0.646   4.681  11.589 -0.0958  0.0167 -0.2568
10568TIP3    H153195   0.678   4.727  11.666 -2.2414  0.7807  0.2518
10568TIP3    H253196   0.648   4.588  11.612  1.4137  0.0598 -0.1604
10569TIP3   OH253197   2.123   1.011  14.463 -0.5586  0.0403  0.7760
10569TIP3    H153198   2.175   1.084  14.496  0.0701 -0.3920  0.7641
10569TIP3    H253199   2.033   1.040  14.470 -0.2690  1.2736 -0.3047
10570TIP3   OH253200   1.584   2.335   5.157  0.1590  0.2693  0.5475
10570TIP3    H153201   1.595   2.366   5.067 -0.9951 -1.0860 -0.0841
10570TIP3    H253202   1.673   2.315   5.186  0.6172  1.3595 -0.0336
10571TIP3   OH253203   4.722   1.638   4.361  0.3206  0.4253 -0.0154
10571TIP3    H153204   4.743   1.545   4.371  3.4658  0.5103 -3.5124
10571TIP3    H253205   4.793   1.683   4.406  1.7855  0.9417 -2.6807
10572TIP3   OH253206   5.371   5.758  10.645  0.0498 -0.7069  0.4717
10572TIP3    H153207   5.432   5.685  10.652  2.5043  1.2223  0.4463
10572TIP3    H253208   5.426   5.835  10.630 -2.4572  1.0591 -0.4763
10573TIP3   OH253209   2.534   5.295   3.132  0.4541  0.3276  0.6861
10573TIP3    H153210   2.500   5.385   3.125  1.9314  0.9038  0.5664
10573TIP3    H253211   2.621   5.305   3.170  1.5184 -0.8626 -1.2918
10574TIP3   OH253212   3.576   3.052   4.986  0.2408  0.1831  0.4445
10574TIP3    H153213   3.587   3.102   5.067 -0.4363 -0.2694  0.8215
10574TIP3    H253214   3.523   2.976   5.011  0.1129 -0.0150 -0.3980
10575TIP3   OH253215   4.602   1.645  11.558  0.4153 -0.4192 -0.6093
10575TIP3    H153216   4.642   1.673  11.475 -0.0902  1.9157 -0.1161
10575TIP3    H253217   4.512   1.677  11.554  0.1323 -1.0280  0.5019
10576TIP3   OH253218   5.088   1.649   3.579 -1.0544 -0.0163 -0.1920
10576TIP3    H153219   5.006   1.691   3.555 -1.4525 -0.6928 -0.0419
10576TIP3    H253220   5.080   1.632   3.673 -1.5009 -1.7002 -0.5062
10577TIP3   OH253221   2.077   2.226   2.303  0.8097  0.0268  0.3162
10577TIP3    H153222   2.022   2.289   2.255  0.9565 -0.3676 -0.3920
10577TIP3    H253223   2.015   2.165   2.343  0.6690  0.5919  0.9718
10578TIP3   OH253224   5.103   2.944   3.846  0.8603  0.2997 -0.1845
10578TIP3    H153225   5.161   3.002   3.798  0.4651 -0.0102 -1.0665
10578TIP3    H253226   5.068   2.884   3.780 -0.6416  0.6268  0.2534
10579TIP3   OH253227   6.103   4.335   5.421 -0.1356  0.0834 -0.5767
10579TIP3    H153228   6.137   4.255   5.379  0.4104  0.5688 -1.0812
10579TIP3    H253229   6.111   4.318   5.515  0.6541 -0.1767 -0.6840
10580TIP3   OH253230   4.536   2.510   1.126 -0.2063  0.5577  0.1790
10580TIP3    H153231   4.512   2.516   1.034 -0.0379 -0.4705  0.0576
10580TIP3    H253232   4.597   2.436   1.130 -1.9784 -0.9366  1.4422
10581TIP3   OH253233   6.543   0.251   6.220 -0.3939 -0.2103 -0.5953
10581TIP3    H153234   6.458   0.220   6.252 -1.0022  1.7828 -0.1057
10581TIP3    H253235   6.606   0.187   6.253 -1.5049 -0.6538  0.7780
10582TIP3   OH253236   3.063   6.520   5.882  0.1983  0.1991  0.2690
10582TIP3    H153237   3.147   6.506   5.925  0.8095  0.2174 -0.8916
10582TIP3    H253238   3.010   6.565   5.948  0.8496 -0.4193  1.2593
10583TIP3   OH253239   6.590   1.797  14.614 -0.1095 -0.2696  0.7110
10583TIP3    H153240   6.555   1.736  14.679  3.3094 -1.3552  1.7349
10583TIP3    H253241   6.645   1.743  14.558  0.0029  1.3075 -0.8042
10584TIP3   OH253242   5.785   1.771  14.847  0.5102 -0.0230 -0.1101
10584TIP3    H153243   5.734   1.691  14.836 -1.3167  1.1132 -0.4095
10584TIP3    H253244   5.807   1.773  14.940 -2.7578  0.9295  0.7761
10585TIP3   OH253245   0.633   5.063  16.591 -0.1174 -0.1386 -0.4446
10585TIP3    H153246   0.636   4.974  16.555  0.1557 -0.4235  0.2592
10585TIP3    H253247   0.540   5.084  16.594 -0.1348 -0.0031 -1.5459
10586TIP3   OH253248   3.905   3.657   4.780  0.3176  0.1912  0.1213
10586TIP3    H153249   3.941   3.588   4.835  1.8982 -0.0723 -1.1666
10586TIP3    H253250   3.839   3.612   4.726  0.6123 -0.0991  0.0013
10587TIP3   OH253251   5.251   4.155  10.874  0.6564 -0.2562  0.1423
10587TIP3    H153252   5.195   4.212  10.926  1.7160  2.4297 -1.3893
10587TIP3    H253253   5.215   4.161  10.785  2.7159  0.8550 -0.7020
10588TIP3   OH253254   6.692   5.241   3.134 -0.1765 -0.1595 -0.6430
10588TIP3    H153255   6.646   5.324   3.147  0.8793  0.4214 -0.5280
10588TIP3    H253256   6.643   5.178   3.187 -2.4015 -0.1553 -2.5220
10589TIP3   OH253257   5.645   1.025  15.929  0.0454 -0.6663 -0.0258
10589TIP3    H153258   5.693   1.066  15.856  2.1748  1.8377  2.5442
10589TIP3    H253259   5.699   0.951  15.954  0.0969 -0.6438 -0.0701
10590TIP3   OH253260   4.590   6.046  15.003 -0.1400  0.4907 -0.1051
10590TIP3    H153261   4.677   6.040  15.043 -0.1443 -1.8438 -0.2654
10590TIP3    H253262   4.594   5.984  14.930 -1.6302  1.1150 -0.7433
10591TIP3   OH253263   5.342   0.607   2.841 -0.2742  0.5195 -0.3045
10591TIP3    H153264   5.403   0.538   2.869  0.0458 -0.2288 -2.6274
10591TIP3    H253265   5.327   0.659   2.920  0.7293 -1.2631  1.1501
10592TIP3   OH253266   0.234   5.546   3.946  0.2305  1.2471 -0.1891
10592TIP3    H153267   0.262   5.619   3.891  1.3342 -0.4466 -1.9981
10592TIP3    H253268   0.152   5.516   3.907  1.0014  0.0586 -0.9831
10593TIP3   OH253269   1.470   2.310  11.592  0.2524 -0.1400  0.6992
10593TIP3    H153270   1.548   2.330  11.644  0.7083 -1.3337  0.5067
10593TIP3    H253271   1.484   2.220  11.562 -0.7832 -0.0531 -0.0924
10594TIP3   OH253272   0.253   2.126   3.068 -0.8810 -0.2000  0.7002
10594TIP3    H153273   0.273   2.219   3.070 -0.6833 -0.2308  0.3662
10594TIP3    H253274   0.276   2.094   3.155 -0.2416 -0.0775  0.5776
10595TIP3   OH253275   2.941   4.085  16.490  0.0366 -0.0191  0.0360
10595TIP3    H153276   2.905   3.998  16.475 -0.5361 -0.0071  1.1900
10595TIP3    H253277   2.873   4.131  16.539 -0.5728  1.8440 -2.3878
10596TIP3   OH253278   5.496   5.466   5.105 -0.1233 -0.3879  0.2304
10596TIP3    H153279   5.482   5.516   5.185  2.0229 -0.5580  0.7848
10596TIP3    H253280   5.583   5.493   5.075 -0.0356 -1.8230 -0.9390
10597TIP3   OH253281   3.641   2.790  14.933  0.7739  0.1255 -0.1265
10597TIP3    H153282   3.694   2.731  14.986  0.1797 -0.4217 -0.1373
10597TIP3    H253283   3.695   2.808  14.856  1.0820 -0.1477  0.0245
10598TIP3   OH253284   1.325   1.144  10.900  0.2928 -0.6525 -0.2274
10598TIP3    H153285   1.386   1.142  10.827 -0.6388  0.6388 -1.0791
10598TIP3    H253286   1.252   1.089  10.873 -0.0634 -0.1560 -0.2931
10599TIP3   OH253287   5.748   1.717   6.676 -0.3244  0.0936  0.1215
10599TIP3    H153288   5.752   1.635   6.725 -1.4254  0.7106  1.3024
10599TIP3    H253289   5.682   1.702   6.608 -0.2400 -0.1183  0.0876
10600TIP3   OH253290   1.769   1.951  16.440  0.1327  0.4330  0.2821
10600TIP3    H153291   1.799   2.014  16.374  1.5299 -1.4366 -0.9720
10600TIP3    H253292   1.810   1.979  16.521 -0.7300  2.1456  0.1732
10601TIP3   OH253293   4.705   5.933   1.781 -0.2826 -0.0663 -0.3168
10601TIP3    H153294   4.622   5.947   1.735 -0.5087 -0.4402 -0.0341
10601TIP3    H253295   4.690   5.970   1.868  1.2464  3.7437 -1.4733
10602TIP3   OH253296   2.121   2.559  13.349 -0.3425  0.3814 -0.1971
10602TIP3    H153297   2.206   2.597  13.370 -0.4187  0.5536 -0.2020
10602TIP3    H253298   2.106   2.583  13.257  0.3666 -1.0617 -0.7221
10603TIP3   OH253299   1.771   4.923   2.299  0.7671 -0.2261 -0.5754
10603TIP3    H153300   1.844   4.917   2.360 -0.4520  0.9576  1.0902
10603TIP3    H253301   1.811   4.916   2.213  2.6748 -0.9191  0.3184
10604TIP3   OH253302   1.442   3.609   1.350 -0.2776 -0.0736  0.4734
10604TIP3    H153303   1.430   3.522   1.388 -0.7378 -0.4384 -0.4625
10604TIP3    H253304   1.379   3.612   1.278 -0.8502  1.3454  0.9957
10605TIP3   OH253305   2.673   3.305   4.787 -1.0866 -0.1854 -0.1719
10605TIP3    H153306   2.755   3.255   4.787 -0.6298  0.5247 -1.3840
10605TIP3    H253307   2.616   3.257   4.848  1.2820  1.1237  3.4433
10606TIP3   OH253308   2.566   4.148   0.926  0.2585 -0.0638 -0.8400
10606TIP3    H153309   2.473   4.171   0.927 -0.2739 -1.9792 -1.3444
10606TIP3    H253310   2.602   4.196   0.851 -0.7569 -0.7358 -1.7964
10607TIP3   OH253311   4.989   1.454   2.203 -0.0327  0.2018 -0.0008
10607TIP3    H153312   4.979   1.438   2.297  1.1034  1.3860  0.3501
10607TIP3    H253313   4.969   1.547   2.192 -1.7275 -0.2599 -1.2084
10608TIP3   OH253314   6.430   4.653  11.665  0.0777 -0.0476 -0.5936
10608TIP3    H153315   6.476   4.706  11.730 -0.4711 -0.3115  0.0167
10608TIP3    H253316   6.466   4.565  11.675 -1.1337 -0.4506  0.4788
10609TIP3   OH253317   0.708   4.408  13.062 -0.3595 -0.6246 -0.0738
10609TIP3    H153318   0.641   4.347  13.094 -3.5629  2.1515 -0.8220
10609TIP3    H253319   0.749   4.442  13.141 -2.3419  0.1075  0.7207
10610TIP3   OH253320   6.446   3.953  12.305 -0.1101 -0.0257  0.9427
10610TIP3    H153321   6.358   3.980  12.280  0.3219 -0.2117 -0.9322
10610TIP3    H253322   6.449   3.860  12.286  0.3319 -0.1453  1.5520
10611TIP3   OH253323   4.136   0.131   1.537  0.2092  0.1412  0.0643
10611TIP3    H153324   4.060   0.084   1.571  0.1439  0.0493 -0.2073
10611TIP3    H253325   4.164   0.188   1.609 -0.4455  0.5728 -0.0169
10612TIP3   OH253326   5.235   6.417   6.498  0.0926  0.2631 -0.8255
10612TIP3    H153327   5.205   6.336   6.540  0.5435  0.0582 -0.8962
10612TIP3    H253328   5.236   6.481   6.569  2.0991 -0.3951 -0.1974
10613TIP3   OH253329   0.513   0.418   1.619  0.0418  0.6783  0.1408
10613TIP3    H153330   0.608   0.423   1.617  0.2486 -2.0412  0.4447
10613TIP3    H253331   0.487   0.387   1.533 -0.8610  3.6980 -0.8114
10614TIP3   OH253332   1.351   0.078   5.974 -0.3473  0.5873  0.1300
10614TIP3    H153333   1.403  -0.003   5.971  0.7249  1.2553 -0.2157
10614TIP3    H253334   1.335   0.092   6.067  1.6623  1.2899  0.4203
10615TIP3   OH253335   1.479   5.073  17.153  0.7943  0.1537  0.8626
10615TIP3    H153336   1.564   5.065  17.110  0.2796  0.5341 -0.2721
10615TIP3    H253337   1.464   5.168  17.158  0.4289  0.0875  1.0426
10616TIP3   OH253338   1.406   5.046   4.641  0.2493 -0.8399 -0.0780
10616TIP3    H153339   1.353   5.054   4.720 -0.8858 -0.0166 -0.8846
10616TIP3    H253340   1.365   4.974   4.592  1.0252 -1.4350  0.1298
10617TIP3   OH253341   4.373   4.136  13.877  0.2140  0.6419  0.2903
10617TIP3    H153342   4.418   4.156  13.795  0.5536  1.3368  0.6365
10617TIP3    H253343   4.312   4.067  13.855 -0.0138  1.1341 -0.6565
10618TIP3   OH253344   3.287   6.734   5.800 -0.5488 -0.2518 -0.0824
10618TIP3    H153345   3.238   6.811   5.830 -0.0475 -0.2593  0.7859
10618TIP3    H253346   3.233   6.660   5.826  0.0413 -0.2738  1.1689
10619TIP3   OH253347   1.599   4.570  13.263 -0.2102  0.1708  0.5494
10619TIP3    H153348   1.580   4.555  13.171 -0.3482  1.1063  0.4135
10619TIP3    H253349   1.663   4.503  13.286 -0.4912 -0.3288 -0.1141
10620TIP3   OH253350   3.496   1.144  12.904  0.4627 -0.2763  0.3274
10620TIP3    H153351   3.502   1.062  12.954  0.1717  0.1823  1.1399
10620TIP3    H253352   3.452   1.119  12.823  0.7738 -1.0079  0.3769
10621TIP3   OH253353   2.964   2.034   3.743 -0.0255 -0.0160 -0.3710
10621TIP3    H153354   2.923   2.031   3.830  1.5590 -0.0178  0.4108
10621TIP3    H253355   2.894   2.010   3.683 -1.1233 -0.1815  0.9258
10622TIP3   OH253356   2.591   4.603  13.337  0.2267 -0.2653 -0.6360
10622TIP3    H153357   2.671   4.648  13.309  0.3201  0.7983  1.2075
10622TIP3    H253358   2.524   4.672  13.339 -0.0070 -0.5108  0.7295
10623TIP3   OH253359   1.895   3.199   2.100  0.3294 -0.4447  0.3512
10623TIP3    H153360   1.989   3.217   2.102  0.3378 -0.4382  0.0455
10623TIP3    H253361   1.858   3.251   2.171  0.4268  0.3729 -0.1762
10624TIP3   OH253362   1.016   2.953   4.066 -0.6797 -0.4616 -0.2413
10624TIP3    H153363   1.014   2.891   3.994 -2.0107 -0.7713  0.0420
10624TIP3    H253364   0.977   2.905   4.140  1.9776 -0.6811  1.1370
10625TIP3   OH253365   5.602   4.933   2.894 -0.0475  0.2801  0.1810
10625TIP3    H153366   5.613   4.856   2.950  0.3860 -0.2273 -0.5864
10625TIP3    H253367   5.657   4.915   2.818  0.6593  1.7020  0.3418
10626TIP3   OH253368   4.909   2.366  15.766 -0.2137  0.0839 -0.0875
10626TIP3    H153369   4.904   2.446  15.714 -0.3553  0.7900  0.9914
10626TIP3    H253370   4.945   2.393  15.850 -3.0172 -0.4055  1.3922
10627TIP3   OH253371   1.203   5.920   2.621  0.2172  0.0501 -0.2017
10627TIP3    H153372   1.293   5.889   2.611  0.6468  1.1942  0.0703
10627TIP3    H253373   1.202   5.966   2.704 -0.8091 -0.5503  0.1463
10628TIP3   OH253374   2.623   2.985  11.173  0.0496 -0.5536 -0.5455
10628TIP3    H153375   2.599   3.021  11.088  0.0124  0.2866 -0.1872
10628TIP3    H253376   2.545   3.000  11.227  0.8283  0.9111  0.2372
10629TIP3   OH253377   5.809   3.369   3.195  0.2524 -0.0181  0.0843
10629TIP3    H153378   5.715   3.387   3.190 -0.0453 -0.7389  2.2303
10629TIP3    H253379   5.847   3.447   3.234  0.3756 -0.1575  0.2470
10630TIP3   OH253380   3.086   5.865   5.150 -0.6690 -0.3077 -0.0594
10630TIP3    H153381   3.071   5.954   5.183  2.6747  0.5347 -0.4222
10630TIP3    H253382   3.142   5.877   5.074  1.6892 -2.7441  1.0917
10631TIP3   OH253383   0.156   1.320   1.080 -0.2447 -0.6212  0.3737
10631TIP3    H153384   0.116   1.237   1.055 -0.1222 -0.8729  1.0105
10631TIP3    H253385   0.107   1.349   1.156 -0.5351  0.0857 -0.0768
10632TIP3   OH253386   2.818   3.797   3.873  0.3028 -0.3015  0.5964
10632TIP3    H153387   2.848   3.813   3.962  1.3581  0.6150  0.0935
10632TIP3    H253388   2.887   3.832   3.817 -0.4989 -0.5459 -0.5908
10633TIP3   OH253389   2.335   5.952   2.186  0.1183 -0.0159 -0.3079
10633TIP3    H153390   2.430   5.960   2.173  0.7450 -2.0774  2.1323
10633TIP3    H253391   2.324   5.953   2.281 -2.3149  0.1153 -0.5406
10634TIP3   OH253392   1.008   5.559  14.572  0.0121  0.2397 -0.1432
10634TIP3    H153393   1.071   5.558  14.645 -0.4172  0.4962  0.2319
10634TIP3    H253394   0.952   5.634  14.590  0.3735  0.7587 -1.1467
10635TIP3   OH253395   0.684   4.421  11.647  0.3589  0.2866 -0.0078
10635TIP3    H153396   0.690   4.457  11.735 -1.8660 -0.6668  0.5847
10635TIP3    H253397   0.736   4.340  11.650  0.2496  0.2327  0.4435
10636TIP3   OH253398   3.726   6.670  16.470  0.0673 -0.4100 -0.2869
10636TIP3    H153399   3.657   6.611  16.441 -0.4779 -0.4897  1.0593
10636TIP3    H253400   3.723   6.743  16.408 -0.8542 -0.6900 -0.5893
10637TIP3   OH253401   4.915   2.621  13.513  0.1898  0.2109 -0.4188
10637TIP3    H153402   4.939   2.528  13.509  0.8200  0.3768 -0.5814
10637TIP3    H253403   4.948   2.658  13.431 -0.6016  0.4611 -0.6396
10638TIP3   OH253404   4.266   1.685   5.336  0.2324 -0.6651 -0.2130
10638TIP3    H153405   4.184   1.697   5.288  0.4959  2.2855 -0.0729
10638TIP3    H253406   4.259   1.742   5.412  3.0467  1.0464 -1.0856
10639TIP3   OH253407   2.135   5.987   4.270  0.2014  0.8416 -0.2096
10639TIP3    H153408   2.195   6.061   4.272 -0.0985  1.0811  1.1026
10639TIP3    H253409   2.173   5.926   4.207  2.1003  0.7769  0.9315
10640TIP3   OH253410   0.315   4.867   3.698  0.3205  0.1494  0.2052
10640TIP3    H153411   0.296   4.960   3.686  1.2692  0.3477  0.1121
10640TIP3    H253412   0.390   4.850   3.641 -0.1467 -0.7928 -0.1454
10641TIP3   OH253413   3.389   2.075  16.067 -0.0294 -0.1513  0.2185
10641TIP3    H153414   3.470   2.059  16.116 -0.8649 -0.2212  1.6511
10641TIP3    H253415   3.331   2.116  16.131 -1.4211 -0.9109 -0.5301
10642TIP3   OH253416   6.428   4.443  11.012 -0.7561  0.9436  0.1539
10642TIP3    H153417   6.338   4.439  10.980 -1.2931 -0.3341  1.6597
10642TIP3    H253418   6.460   4.353  11.002  0.4475  1.4345 -0.5735
10643TIP3   OH253419   5.094   3.439   2.921 -0.3326 -0.1217 -0.2875
10643TIP3    H153420   5.008   3.459   2.958 -1.0707 -1.2075 -1.3082
10643TIP3    H253421   5.105   3.502   2.849 -0.1361  0.2081  0.0294
10644TIP3   OH253422   1.076   3.118  16.940 -0.3278 -0.1870  0.5287
10644TIP3    H153423   1.142   3.112  16.872 -2.0426 -0.2484 -1.2233
10644TIP3    H253424   1.041   3.029  16.947 -2.2159  0.3892 -0.7416
10645TIP3   OH253425   1.543   2.189  12.009  0.3513 -0.2631 -0.2213
10645TIP3    H153426   1.544   2.126  11.938 -0.5685 -0.6421  0.0747
10645TIP3    H253427   1.620   2.169  12.062  1.8560  0.9362 -1.8441
10646TIP3   OH253428   1.113   5.589   4.080 -0.5591 -0.1960  0.3185
10646TIP3    H153429   1.049   5.618   4.015 -1.3830  1.2841  1.7223
10646TIP3    H253430   1.176   5.660   4.085 -0.1026 -0.6185  0.6452
10647TIP3   OH253431   1.371   0.854   3.043 -0.3146  0.1447  0.0312
10647TIP3    H153432   1.429   0.811   2.981 -0.5201  0.0815 -0.1204
10647TIP3    H253433   1.389   0.813   3.127  1.4566  1.6375  0.4486
10648TIP3   OH253434   6.388   2.201   2.794  0.2097 -0.8704  0.2580
10648TIP3    H153435   6.315   2.140   2.781  1.1902 -1.8305 -0.9978
10648TIP3    H253436   6.466   2.150   2.776  1.2470  0.0809  1.8160
10649TIP3   OH253437   0.858   3.898  13.293 -0.0308 -0.4294 -0.2569
10649TIP3    H153438   0.935   3.897  13.235  1.4545 -1.3189  1.6352
10649TIP3    H253439   0.825   3.808  13.291 -1.0376 -0.0695 -0.9979
10650TIP3   OH253440   6.429   0.546  12.591 -0.2093 -0.2943  0.2680
10650TIP3    H153441   6.494   0.526  12.523 -0.5716  0.9218 -0.4643
10650TIP3    H253442   6.424   0.466  12.643  0.9733 -0.8342 -0.4008
10651TIP3   OH253443   0.214   2.974  14.315 -0.6488  0.2264 -0.1655
10651TIP3    H153444   0.303   2.985  14.282 -0.2621  1.2407  1.1476
10651TIP3    H253445   0.158   2.996  14.240  0.1976  0.1581 -0.8263
10652TIP3   OH253446   2.457   3.964   3.111  0.4198  0.2325 -0.0890
10652TIP3    H153447   2.546   3.944   3.081  1.1295  1.0316  1.4060
10652TIP3    H253448   2.458   4.058   3.127 -0.4268  0.0953  0.8163
10653TIP3   OH253449   3.026   6.738   1.119 -0.1713 -0.5662 -0.0898
10653TIP3    H153450   3.084   6.669   1.152 -0.0143 -0.1545  0.5162
10653TIP3    H253451   2.966   6.693   1.060  2.0040 -0.7440 -2.3707
10654TIP3   OH253452   1.058   4.913   2.332  0.4038 -0.4378  0.7241
10654TIP3    H153453   1.131   4.958   2.290  0.4353 -0.2470  0.9846
10654TIP3    H253454   0.986   4.922   2.270  0.3788  0.0689  0.8269
10655TIP3   OH253455   5.610   1.074   4.632  0.0116 -0.2122  0.2399
10655TIP3    H153456   5.546   1.085   4.702  0.3231 -0.7983  0.6238
10655TIP3    H253457   5.583   0.994   4.587 -1.3467  1.1691 -1.5700
10656TIP3   OH253458   5.609   0.954   1.454  0.6479 -0.4840  0.7270
10656TIP3    H153459   5.623   1.009   1.531  0.7906 -1.4716  1.4287
10656TIP3    H253460   5.692   0.959   1.406  0.5665  0.1202  0.6438
10657TIP3   OH253461   0.391   1.018  15.246 -0.0466  0.6601  0.2326
10657TIP3    H153462   0.384   0.998  15.340  0.2557 -0.4478  0.0345
10657TIP3    H253463   0.376   0.934  15.203  0.3825  1.0465 -0.6927
10658TIP3   OH253464   2.271   1.306   3.536  0.0291 -0.0674 -0.1769
10658TIP3    H153465   2.297   1.395   3.510 -0.7183 -0.1234 -1.1727
10658TIP3    H253466   2.213   1.277   3.466 -1.6566 -0.4363  1.2980
10659TIP3   OH253467   4.538   1.905  12.768 -0.3254 -0.1485 -0.4995
10659TIP3    H153468   4.612   1.851  12.796 -0.3823  0.1063  0.1782
10659TIP3    H253469   4.475   1.898  12.840 -0.0958  1.2541 -0.1201
10660TIP3   OH253470   2.443   0.622   3.105 -0.7074 -0.8843 -0.5353
10660TIP3    H153471   2.514   0.685   3.115 -1.0362 -0.3514 -1.4547
10660TIP3    H253472   2.416   0.601   3.194  0.6510 -1.1628 -0.1646
10661TIP3   OH253473   4.215   5.748   0.457 -0.0290 -0.5073 -0.5892
10661TIP3    H153474   4.147   5.737   0.523  0.5439 -0.6301 -0.0056
10661TIP3    H253475   4.290   5.700   0.491 -0.1636 -1.8072 -2.0277
10662TIP3   OH253476   6.166   0.233  16.285 -0.1838  0.0466 -0.3266
10662TIP3    H153477   6.240   0.292  16.302 -0.2283  0.5763 -1.7931
10662TIP3    H253478   6.107   0.284  16.230 -0.9886 -0.8354 -0.3010
10663TIP3   OH253479   1.054   4.454  11.611 -0.4417 -0.1148 -0.1222
10663TIP3    H153480   1.135   4.443  11.561  0.5197  1.4472  1.0066
10663TIP3    H253481   1.034   4.547  11.603 -0.9690 -0.0857  1.3165
10664TIP3   OH253482   5.439   6.136  16.092  0.7881 -0.3584 -0.1568
10664TIP3    H153483   5.364   6.177  16.048  1.2492  1.7252  0.8897
10664TIP3    H253484   5.406   6.112  16.179  1.3901  0.8616  0.4241
10665TIP3   OH253485   0.960   4.306  11.133 -0.3599  0.5349  0.2122
10665TIP3    H153486   0.978   4.213  11.145 -1.9311  0.0511 -0.8583
10665TIP3    H253487   0.938   4.338  11.220 -2.2180 -0.6831  0.2416
10666TIP3   OH253488   5.137   0.348   2.798 -0.4798  0.2232 -0.1008
10666TIP3    H153489   5.071   0.417   2.789  0.0191  0.8369  0.7884
10666TIP3    H253490   5.193   0.359   2.721  0.0398  1.3210  0.4063
10667TIP3   OH253491   0.252   0.205  11.170 -0.3336  0.2725 -0.2904
10667TIP3    H153492   0.279   0.135  11.110  0.4454  0.5928 -0.3324
10667TIP3    H253493   0.188   0.256  11.120 -0.9353 -0.4219 -0.2466
10668TIP3   OH253494   0.920   1.269  15.351  0.0868 -0.3606 -0.0258
10668TIP3    H153495   0.872   1.193  15.320 -2.4180  0.5512  1.3231
10668TIP3    H253496   0.914   1.333  15.280  0.9657 -0.8724 -0.5853
10669TIP3   OH253497   0.931   5.239  13.212  0.2451  0.3994  0.3106
10669TIP3    H153498   0.931   5.209  13.302 -1.7409  2.7196  1.1980
10669TIP3    H253499   0.879   5.174  13.164 -0.9687  0.4971  1.4379
10670TIP3   OH253500   5.614   4.100   1.978 -0.3167 -0.1610 -0.3033
10670TIP3    H153501   5.616   4.059   2.064  0.9854 -0.4113 -0.4295
10670TIP3    H253502   5.522   4.119   1.962 -0.7538 -1.4977  0.4862
10671TIP3   OH253503   5.627   4.839  16.768 -0.4658  0.0694 -0.3093
10671TIP3    H153504   5.716   4.818  16.740 -1.0779 -0.8866 -1.6199
10671TIP3    H253505   5.637   4.917  16.822  1.5732 -1.8577  2.3567
10672TIP3   OH253506   1.667   3.015  16.244  0.0132  0.4235 -0.1986
10672TIP3    H153507   1.747   3.054  16.279  0.4066 -0.5184 -0.0209
10672TIP3    H253508   1.597   3.076  16.269  0.6646  1.2443 -0.3417
10673TIP3   OH253509   2.473   1.504  13.210 -0.2159  0.0766 -0.0631
10673TIP3    H153510   2.444   1.592  13.186  1.1431  0.8251  0.8921
10673TIP3    H253511   2.556   1.518  13.256  1.4149 -1.8728 -2.1413
10674TIP3   OH253512   3.567   2.176   5.950 -0.5705  0.0136 -0.0650
10674TIP3    H153513   3.661   2.162   5.943 -0.5776 -0.4188  0.6377
10674TIP3    H253514   3.550   2.179   6.044 -1.5542 -2.0202 -0.1269
10675TIP3   OH253515   3.082   1.941   0.471  0.0936 -0.0130 -0.4237
10675TIP3    H153516   3.049   1.871   0.527 -0.2560 -0.9362 -1.7243
10675TIP3    H253517   3.153   1.981   0.521 -0.9739 -0.0098  1.1408
10676TIP3   OH253518   1.888   6.710  16.749  0.1635  0.0153  0.7374
10676TIP3    H153519   1.850   6.659  16.678  2.5700  0.7754 -1.2730
10676TIP3    H253520   1.814   6.752  16.791 -1.3350  1.0365 -2.5608
10677TIP3   OH253521   1.696   6.527   4.552  0.1602 -0.5143  0.0255
10677TIP3    H153522   1.665   6.474   4.626 -0.2749  0.8865  0.8894
10677TIP3    H253523   1.616   6.559   4.511  0.1983  3.5373  2.5661
10678TIP3   OH253524   1.237   5.103  13.251  0.1285 -0.1692 -0.0558
10678TIP3    H153525   1.308   5.114  13.314  0.0757  0.3816 -0.0850
10678TIP3    H253526   1.175   5.044  13.294 -0.1689  0.6288  0.6367
10679TIP3   OH253527   0.123   2.643   1.287  0.6706  0.2248  0.0208
10679TIP3    H153528   0.081   2.559   1.266  1.3808 -0.0606 -0.2930
10679TIP3    H253529   0.188   2.655   1.218 -0.1023  1.5388 -0.5260
10680TIP3   OH253530   1.831   1.343  13.151  0.2080  0.7791 -0.2029
10680TIP3    H153531   1.854   1.252  13.169 -0.0252  0.4264 -1.5781
10680TIP3    H253532   1.784   1.372  13.229  1.2204  0.0598  0.6942
10681TIP3   OH253533   5.020   3.230  14.895 -0.6181 -0.3058 -0.0001
10681TIP3    H153534   5.105   3.252  14.855 -0.1874  0.6722  1.4089
10681TIP3    H253535   4.958   3.232  14.821  0.3240  0.4620 -0.8007
10682TIP3   OH253536   2.428   3.437   0.100  0.0174 -0.7054 -0.5101
10682TIP3    H153537   2.440   3.407   0.190  0.3813  1.7249  0.3219
10682TIP3    H253538   2.486   3.512   0.092 -0.3353 -0.6103 -2.6645
10683TIP3   OH253539   1.569   3.424   4.468  0.3156 -0.5700  0.3194
10683TIP3    H153540   1.491   3.386   4.427 -0.6701  2.3184 -0.7534
10683TIP3    H253541   1.535   3.496   4.521  2.2713  1.2241 -0.7339
10684TIP3   OH253542   5.613   2.572   4.421  0.0123 -0.3796  0.0248
10684TIP3    H153543   5.692   2.564   4.368  0.3114  0.9612  0.2363
10684TIP3    H253544   5.628   2.516   4.497  1.9062  1.7962  1.3765
10685TIP3   OH253545   1.035   1.370   3.322 -0.0764 -0.0517  0.6768
10685TIP3    H153546   0.958   1.389   3.268  0.5657 -0.3162 -0.3517
10685TIP3    H253547   1.105   1.423   3.285  1.0380 -2.1797 -0.4478
10686TIP3   OH253548   1.851   3.135  11.642  0.0681  0.1352  0.0053
10686TIP3    H153549   1.837   3.205  11.578 -0.0102  1.5675  1.5367
10686TIP3    H253550   1.923   3.167  11.696  0.4698 -1.2868  0.3440
10687TIP3   OH253551   6.593   2.609  17.116  0.0962  0.4257 -0.5471
10687TIP3    H153552   6.688   2.621  17.118  0.3852 -1.4348 -1.3035
10687TIP3    H253553   6.575   2.568  17.031 -1.1888 -0.6224  0.1774
10688TIP3   OH253554   3.265   4.862  15.148 -0.4873 -0.5145 -0.2738
10688TIP3    H153555   3.277   4.777  15.105  2.0955 -0.2315 -0.2804
10688TIP3    H253556   3.320   4.857  15.227 -0.8245  0.9222  0.0809
10689TIP3   OH253557   3.776   6.042   5.597  0.0733  0.5731  0.5224
10689TIP3    H153558   3.783   5.988   5.519  3.3870  0.2862  0.8926
10689TIP3    H253559   3.809   5.987   5.668 -0.3704  1.7091  1.6499
10690TIP3   OH253560   2.671   1.217   2.791 -0.2283  0.0874 -0.2918
10690TIP3    H153561   2.657   1.151   2.859  0.1688  0.7218  0.4191
10690TIP3    H253562   2.730   1.176   2.728 -1.0572 -0.7146 -0.5668
10691TIP3   OH253563   6.313   2.069   0.257 -0.0222  0.4701  0.1319
10691TIP3    H153564   6.384   2.047   0.317  1.0325  2.4176 -0.3299
10691TIP3    H253565   6.261   2.135   0.305 -3.1942 -2.6890  1.5632
10692TIP3   OH253566   6.043   6.273  11.493  0.2828 -0.3502 -0.4168
10692TIP3    H153567   6.129   6.240  11.516  0.1235 -2.1772 -2.2031
10692TIP3    H253568   6.001   6.202  11.444 -2.2132  0.5031  0.3005
10693TIP3   OH253569   4.650   6.038   3.039  0.5517  0.2571 -0.2182
10693TIP3    H153570   4.567   6.056   2.996  1.1886  0.1600 -1.5341
10693TIP3    H253571   4.660   6.109   3.102  0.1359  1.0759 -1.0459
10694TIP3   OH253572   1.611   3.504   3.718  0.2189 -0.4200  0.4303
10694TIP3    H153573   1.606   3.584   3.666 -1.1824  0.4717  1.8294
10694TIP3    H253574   1.530   3.504   3.770  1.5870 -1.1725  2.7058
10695TIP3   OH253575   0.392   6.372   5.813 -0.0077  0.1780 -0.0270
10695TIP3    H153576   0.487   6.387   5.813  0.1224 -0.5424  0.9006
10695TIP3    H253577   0.359   6.430   5.881 -0.0325 -0.6238  0.6620
10696TIP3   OH253578   6.097   0.797  11.549  0.3906  0.0542  0.1660
10696TIP3    H153579   6.102   0.708  11.515 -1.1473  0.2169 -0.5496
10696TIP3    H253580   6.188   0.827  11.550  0.7424 -0.8306 -1.4901
10697TIP3   OH253581   1.429   4.804  13.083  0.2770 -0.1445 -0.2321
10697TIP3    H153582   1.502   4.806  13.144 -2.1222 -0.1017  2.9365
10697TIP3    H253583   1.430   4.716  13.047  1.9122 -0.1038 -0.3275
10698TIP3   OH253584   4.945   0.494   5.427 -0.6048 -0.2060 -0.5256
10698TIP3    H153585   4.982   0.444   5.354 -1.1765  1.4862 -2.0566
10698TIP3    H253586   4.851   0.499   5.407 -0.7548  0.3755  0.2642
10699TIP3   OH253587   5.318   4.088   4.444  0.0917 -0.1282 -0.1553
10699TIP3    H153588   5.409   4.058   4.444 -0.2283 -1.1613  0.7528
10699TIP3    H253589   5.299   4.108   4.536 -0.8817 -0.8331 -0.1917
10700TIP3   OH253590   6.434   4.740   2.334  0.3395 -0.1416  0.0674
10700TIP3    H153591   6.485   4.802   2.386  0.6915 -0.3878  0.0227
10700TIP3    H253592   6.381   4.693   2.399  1.1223 -0.7709  0.2620
10701TIP3   OH253593   6.452   3.678  12.175 -0.2184  0.7833 -0.0602
10701TIP3    H153594   6.433   3.664  12.083 -0.1500 -1.6586  0.2280
10701TIP3    H253595   6.373   3.649  12.221  0.7240 -0.7489  0.7208
10702TIP3   OH253596   3.211   4.522  10.392 -0.1793  0.4649  0.1479
10702TIP3    H153597   3.238   4.601  10.439  0.9363  0.1001  0.1358
10702TIP3    H253598   3.210   4.454  10.460  1.1354  0.0013 -0.2774
10703TIP3   OH253599   1.005   3.357  15.426 -0.0461  0.0996  0.3020
10703TIP3    H153600   1.020   3.287  15.363 -1.1050  0.0041  0.1376
10703TIP3    H253601   0.912   3.350  15.449  0.1830  0.4979  1.4338
10704TIP3   OH253602   0.575   4.454  15.455 -0.1222  0.1422  0.2363
10704TIP3    H153603   0.506   4.503  15.500  0.2283  1.1248 -0.2660
10704TIP3    H253604   0.532   4.372  15.429 -0.3874 -0.3559  2.1140
10705TIP3   OH253605   4.638   1.291  12.431 -0.2709 -1.0254 -0.0896
10705TIP3    H153606   4.724   1.303  12.471 -1.4620  1.1394  2.1226
10705TIP3    H253607   4.636   1.353  12.358  0.0404 -1.1226 -0.1818
10706TIP3   OH253608   0.084   4.832   4.649 -0.1993 -0.1186  0.5315
10706TIP3    H153609   0.017   4.874   4.702 -1.7658  0.4290 -1.7552
10706TIP3    H253610   0.056   4.741   4.641  0.6907 -0.5089  1.5968
10707TIP3   OH253611   4.725   5.402  15.962 -0.0136  0.1143 -0.0688
10707TIP3    H153612   4.802   5.350  15.986 -0.4806 -0.5305  0.0647
10707TIP3    H253613   4.746   5.438  15.876  0.8883  0.8692  0.4512
10708TIP3   OH253614   2.251   2.256   5.097  0.0432  0.0249  0.3156
10708TIP3    H153615   2.337   2.289   5.069 -0.2159 -0.2462 -0.8776
10708TIP3    H253616   2.199   2.335   5.111 -0.7987  0.2989 -3.2310
10709TIP3   OH253617   4.558   3.330  14.272 -0.1825  0.0167  0.5398
10709TIP3    H153618   4.608   3.266  14.221  0.5049  0.5587  0.5237
10709TIP3    H253619   4.478   3.283  14.298  0.0726 -0.6780  0.0882
10710TIP3   OH253620   1.306   5.029   4.913  0.0670  0.0204 -0.1805
10710TIP3    H153621   1.234   5.026   4.975 -1.0793  0.3294 -1.4418
10710TIP3    H253622   1.384   5.009   4.965 -0.9297 -0.4272  1.1954
10711TIP3   OH253623   2.363   4.902  12.938  0.1609 -0.1652 -0.1216
10711TIP3    H153624   2.284   4.909  12.885  0.3838  0.8389 -0.3568
10711TIP3    H253625   2.364   4.812  12.970 -0.5640 -0.4632 -0.9134
10712TIP3   OH253626   5.226   4.744  12.432  0.1475 -0.0054  0.2283
10712TIP3    H153627   5.209   4.733  12.339 -1.0190 -2.2814  0.6461
10712TIP3    H253628   5.292   4.813  12.436 -1.0879  1.4356 -2.1405
10713TIP3   OH253629   6.074   3.819  12.447 -0.4383 -0.1737 -0.1918
10713TIP3    H153630   6.016   3.853  12.515  1.9177  1.4436  1.1338
10713TIP3    H253631   6.089   3.728  12.473 -1.1517 -0.1615  0.3005
10714TIP3   OH253632   5.491   6.800  15.718 -0.0164 -0.1103  0.7133
10714TIP3    H153633   5.532   6.718  15.747  0.7089  0.4669  1.3476
10714TIP3    H253634   5.413   6.772  15.670  1.1340 -1.2555 -0.5683
10715TIP3   OH253635   0.756   2.600  13.342 -0.3111 -0.5614 -0.0985
10715TIP3    H153636   0.691   2.536  13.313  1.0320 -1.5899 -0.9903
10715TIP3    H253637   0.721   2.685  13.316 -1.1392 -1.1192 -0.8439
10716TIP3   OH253638   0.961   5.267   5.252 -0.6837 -0.2244 -0.0851
10716TIP3    H153639   0.900   5.219   5.197  0.1496 -0.2212 -1.0404
10716TIP3    H253640   0.914   5.345   5.279 -1.4321 -0.7020  0.0055
10717TIP3   OH253641   4.758   5.005   2.406 -0.3861 -0.2012 -0.2778
10717TIP3    H153642   4.817   4.988   2.333 -1.0174 -0.6214 -0.7029
10717TIP3    H253643   4.672   4.978   2.374 -0.7444  0.0332  0.4659
10718TIP3   OH253644   2.993   2.289  10.922  0.3918  0.6863 -0.3779
10718TIP3    H153645   2.975   2.316  10.832 -0.6387  1.0505 -0.0675
10718TIP3    H253646   2.950   2.355  10.977 -0.9642 -0.7823  0.3884
10719TIP3   OH253647   2.958   3.092  11.943 -0.7869 -0.1727 -0.2863
10719TIP3    H153648   2.881   3.092  12.000 -0.6279 -0.5874 -0.0756
10719TIP3    H253649   3.004   3.010  11.963 -1.0173 -0.5874 -1.3831
10720TIP3   OH253650   2.006   0.690  14.040 -0.0417 -0.2462 -0.6612
10720TIP3    H153651   2.070   0.759  14.026  0.4498 -0.5243  0.1750
10720TIP3    H253652   2.057   0.609  14.038 -0.2510 -0.4280  0.6471
10721TIP3   OH253653   6.378   3.674  11.914 -0.1415 -0.4872 -0.1661
10721TIP3    H153654   6.305   3.639  11.862 -0.9640 -0.4942  0.9521
10721TIP3    H253655   6.370   3.769  11.905 -0.8925 -0.4521  0.7194
10722TIP3   OH253656   4.365   3.643   2.671  0.1048  0.4082  1.1380
10722TIP3    H153657   4.415   3.573   2.629  3.5950  2.3032  1.7385
10722TIP3    H253658   4.323   3.600   2.745  2.5495 -1.0662  1.8087
10723TIP3   OH253659   3.040   0.770  14.715 -0.2475  0.4818 -0.5230
10723TIP3    H153660   3.046   0.797  14.624 -0.1159  0.1227 -0.6219
10723TIP3    H253661   3.045   0.675  14.712  1.1729  0.5124 -0.0320
10724TIP3   OH253662   5.977   1.362  11.947 -0.1556 -0.0676 -0.0059
10724TIP3    H153663   6.056   1.396  11.989  0.2048 -2.3025  1.3335
10724TIP3    H253664   5.987   1.267  11.953 -2.9082 -0.4205  0.1010
10725TIP3   OH253665   5.650   1.185  11.719  0.0362  0.7240 -0.5455
10725TIP3    H153666   5.611   1.120  11.660  0.4206 -0.5106  0.5045
10725TIP3    H253667   5.702   1.241  11.662 -0.7479  0.4584 -1.5557
10726TIP3   OH253668   4.304   4.096   2.927 -0.4512 -0.4201 -0.5706
10726TIP3    H153669   4.270   4.019   2.974 -2.2753  0.8537  0.3164
10726TIP3    H253670   4.323   4.063   2.839 -1.4217 -1.8497 -0.2940
10727TIP3   OH253671   2.846   1.681  11.614 -0.5420  0.2258 -0.1296
10727TIP3    H153672   2.905   1.635  11.674 -1.4024 -0.5510  0.1360
10727TIP3    H253673   2.850   1.631  11.532 -1.1829 -0.1064  0.0363
10728TIP3   OH253674   1.126   4.839  16.161  0.5624  0.1227 -0.3306
10728TIP3    H153675   1.196   4.783  16.194 -0.0995  0.3350  1.6044
10728TIP3    H253676   1.066   4.847  16.235 -0.0062  2.3614 -0.9645
10729TIP3   OH253677   1.604   1.208  17.090  0.1353  0.7198  0.3916
10729TIP3    H153678   1.526   1.159  17.116  1.7460 -1.9205  0.6095
10729TIP3    H253679   1.649   1.227  17.172  1.7977 -1.5912  0.1058
10730TIP3   OH253680   4.199   2.924   1.031  0.5018 -0.7313 -0.0200
10730TIP3    H153681   4.213   2.965   1.116  0.8598 -1.0725  0.0858
10730TIP3    H253682   4.107   2.939   1.012  0.3329 -0.9731  0.5949
10731TIP3   OH253683   4.789   5.193   2.043  0.4602  0.0598  0.0290
10731TIP3    H153684   4.721   5.257   2.025  0.7247  0.0103 -1.2026
10731TIP3    H253685   4.819   5.215   2.131 -0.8059  0.3738  0.4046
10732TIP3   OH253686   2.214   3.981  12.002  0.4329 -0.4214  0.1372
10732TIP3    H153687   2.141   3.927  11.972  1.1584 -1.0459 -0.5544
10732TIP3    H253688   2.185   4.017  12.085 -1.7456  1.5493 -1.3466
10733TIP3   OH253689   3.932   4.589  13.934  0.6289 -0.4113  0.4013
10733TIP3    H153690   3.928   4.677  13.972 -0.2447 -0.4098  0.3409
10733TIP3    H253691   3.929   4.530  14.009 -0.6418 -0.4018  0.3808
10734TIP3   OH253692   4.327   3.910  14.591 -0.1421 -0.5385  0.0427
10734TIP3    H153693   4.351   3.983  14.534 -0.8430 -0.4435 -0.1498
10734TIP3    H253694   4.266   3.858  14.538  1.3771 -2.0344 -0.3301
10735TIP3   OH253695   6.473   3.979   0.491 -0.3008  0.2469 -0.5215
10735TIP3    H153696   6.510   4.048   0.437  0.5340  0.3925  0.2161
10735TIP3    H253697   6.520   3.900   0.466 -1.8706 -0.2748 -2.0087
10736TIP3   OH253698   3.369   0.586   2.972 -0.1645  0.1627 -0.0239
10736TIP3    H153699   3.392   0.633   2.891  0.6315  1.1584  0.7645
10736TIP3    H253700   3.310   0.516   2.942  0.0048  0.5872 -1.4499
10737TIP3   OH253701   5.933   5.760  11.717  0.2531  0.3111  0.0520
10737TIP3    H153702   6.020   5.730  11.690  0.7310  1.3598  0.3846
10737TIP3    H253703   5.940   5.769  11.812 -0.5856 -0.7082  0.2282
10738TIP3   OH253704   1.155   6.682   3.082 -0.2496 -0.6608  0.1446
10738TIP3    H153705   1.110   6.673   3.166  1.4077  2.6428  1.5746
10738TIP3    H253706   1.087   6.711   3.021 -0.8737  0.2087  1.2200
10739TIP3   OH253707   3.410   2.294  12.593  0.0398 -0.0841 -0.0910
10739TIP3    H153708   3.399   2.205  12.628 -1.4642  0.7414  1.7333
10739TIP3    H253709   3.455   2.281  12.510 -4.0019 -3.0216 -2.2225
10740TIP3   OH253710   3.303   6.722  13.979  0.2056 -0.1263  0.7199
10740TIP3    H153711   3.265   6.634  13.973  2.4734 -1.0954 -1.0797
10740TIP3    H253712   3.333   6.728  14.070 -3.1972  0.3554  1.9658
10741TIP3   OH253713   4.699   6.288  11.017  0.3860  0.3299 -0.1899
10741TIP3    H153714   4.685   6.379  10.992 -1.5778  0.3667  0.8698
10741TIP3    H253715   4.736   6.293  11.105  0.0376  0.1131 -0.0278
10742TIP3   OH253716   2.496   5.206   0.991 -0.3957  0.3839  0.0095
10742TIP3    H153717   2.438   5.196   0.916 -2.3217  0.9679  1.3444
10742TIP3    H253718   2.555   5.131   0.986 -1.0628 -0.0801 -1.5579
10743TIP3   OH253719   1.161   5.089  11.907 -0.3593  0.6839 -0.1227
10743TIP3    H153720   1.142   4.996  11.894 -0.6410  0.7030  0.1439
10743TIP3    H253721   1.145   5.104  12.000 -0.7161  1.0906 -0.2470
10744TIP3   OH253722   3.455   0.528   0.347 -0.5358  0.3907 -0.5781
10744TIP3    H153723   3.431   0.560   0.434  1.0136 -0.8366  0.3575
10744TIP3    H253724   3.384   0.470   0.322 -1.1047  0.9290 -0.2397
10745TIP3   OH253725   3.352   0.336   4.032  0.6617  0.7890 -0.1444
10745TIP3    H153726   3.376   0.332   3.940 -1.0401  0.4961 -0.6028
10745TIP3    H253727   3.320   0.425   4.045 -1.3401  0.1531 -0.4582
10746TIP3   OH253728   1.878   2.164   4.731 -0.2619  0.3345  0.6902
10746TIP3    H153729   1.965   2.148   4.768 -0.4713 -1.7709  0.3846
10746TIP3    H253730   1.893   2.167   4.636 -0.5745 -0.4906  0.6108
10747TIP3   OH253731   3.609   5.363  14.857 -0.6973 -0.0596 -0.5661
10747TIP3    H153732   3.530   5.379  14.806 -1.1228 -1.3369 -0.3264
10747TIP3    H253733   3.680   5.390  14.798 -1.2639  0.1716 -1.1587
10748TIP3   OH253734   5.745   0.026  16.562 -0.2342  0.2113  0.5217
10748TIP3    H153735   5.670   0.083  16.546  0.8419  1.4925 -0.1790
10748TIP3    H253736   5.816   0.064  16.510  0.9518 -0.8417  1.2981
10749TIP3   OH253737   1.811   6.293   4.836 -0.5980 -0.0017  0.0080
10749TIP3    H153738   1.798   6.245   4.918  1.4418 -0.2889  0.2209
10749TIP3    H253739   1.724   6.299   4.797 -1.8621  1.1591  2.7245
10750TIP3   OH253740   2.569   0.883   5.772  0.2141 -0.4792 -0.1003
10750TIP3    H153741   2.556   0.935   5.851 -2.2886  0.5754 -1.0792
10750TIP3    H253742   2.633   0.816   5.796  1.4355  1.3231  2.0372
10751TIP3   OH253743   1.668   4.413  17.154 -0.4665 -0.4976  0.6288
10751TIP3    H153744   1.618   4.494  17.142  0.4269  0.0487  0.5254
10751TIP3    H253745   1.635   4.354  17.086 -2.3841 -0.8769  1.8014
10752TIP3   OH253746   5.436   3.606   2.400 -0.8386  0.4822  0.2218
10752TIP3    H153747   5.454   3.633   2.490 -1.9122  2.1059 -0.0034
10752TIP3    H253748   5.522   3.586   2.364 -0.1649  1.7833  1.0287
10753TIP3   OH253749   1.938   2.895   3.102 -0.2449 -0.1228 -0.0806
10753TIP3    H153750   1.950   2.817   3.156  1.1179  0.3659  0.3587
10753TIP3    H253751   1.947   2.863   3.012 -0.7334 -0.6413  0.0511
10754TIP3   OH253752   0.271   2.927  11.407  0.0594 -0.9199  0.0545
10754TIP3    H153753   0.277   3.011  11.453  0.9186 -0.8631 -0.1478
10754TIP3    H253754   0.238   2.950  11.320 -3.0218 -1.1832  1.0298
10755TIP3   OH253755   1.642   6.826  17.171  0.5707  0.2469  0.1927
10755TIP3    H153756   1.727   6.801  17.135  0.4794  0.4060 -0.1409
10755TIP3    H253757   1.640   6.787  17.258  0.3143 -1.1659 -0.4035
10756TIP3   OH253758   3.484   2.768  15.680 -0.1320  0.5107  0.5049
10756TIP3    H153759   3.400   2.779  15.723  0.0632  1.4007  0.6849
10756TIP3    H253760   3.543   2.827  15.727  1.3924 -2.3100  2.4166
10757TIP3   OH253761   2.695   1.500  16.643 -0.0134 -0.9701 -0.0714
10757TIP3    H153762   2.668   1.409  16.629 -0.9103 -0.5891 -0.8939
10757TIP3    H253763   2.639   1.551  16.585  0.1504  0.1596  0.7345
10758TIP3   OH253764   0.932   3.329   2.546 -0.5128  0.0551 -0.0649
10758TIP3    H153765   0.841   3.327   2.516 -0.3478 -0.1223 -0.5608
10758TIP3    H253766   0.983   3.351   2.468 -0.2663  1.7747  0.5313
10759TIP3   OH253767   1.886   2.738  13.420 -0.3249  0.1479 -0.4494
10759TIP3    H153768   1.793   2.742  13.438 -0.6364  0.7728 -2.0664
10759TIP3    H253769   1.913   2.653  13.455 -1.2346  0.4471  1.0669
10760TIP3   OH253770   3.843   1.893  12.455  0.3320  0.2525  0.0006
10760TIP3    H153771   3.769   1.904  12.396  0.5179  0.9664 -0.1142
10760TIP3    H253772   3.915   1.865  12.398  0.2560 -0.0455  0.0495
10761TIP3   OH253773   0.554   5.500   6.554  0.4490  0.0821 -0.5259
10761TIP3    H153774   0.544   5.582   6.506  2.1514  0.3903 -0.4157
10761TIP3    H253775   0.647   5.479   6.547 -0.0771 -2.2806 -1.2352
10762TIP3   OH253776   5.608   6.501  13.054  0.3393  0.6385 -0.5503
10762TIP3    H153777   5.585   6.547  13.135 -0.9227  2.4288 -1.8471
10762TIP3    H253778   5.524   6.484  13.011  0.8981 -1.4927 -0.8816
10763TIP3   OH253779   5.384   1.371   4.248  0.1682  0.2442 -0.0480
10763TIP3    H153780   5.369   1.464   4.261  0.1923  0.5720 -2.0395
10763TIP3    H253781   5.406   1.337   4.335 -2.3488  1.5877  1.2103
10764TIP3   OH253782   4.745   5.437   2.999  0.4316  0.5127  0.3384
10764TIP3    H153783   4.698   5.473   2.924 -0.3450 -1.9136 -0.4356
10764TIP3    H253784   4.685   5.371   3.035  2.6886 -1.8572  0.0451
10765TIP3   OH253785   5.045   0.717   3.616 -0.1517 -0.5192  0.0082
10765TIP3    H153786   5.054   0.733   3.710  1.5259 -0.4527 -0.1244
10765TIP3    H253787   4.951   0.714   3.600 -0.4604 -1.6277  1.8715
10766TIP3   OH253788   5.685   5.859   4.144 -0.3075 -0.4827  0.6455
10766TIP3    H153789   5.670   5.814   4.061  1.2535  1.4738 -0.7849
10766TIP3    H253790   5.625   5.934   4.142  0.1353 -0.1114  1.0134
10767TIP3   OH253791   4.320   6.168  12.530 -0.3567 -0.0962 -0.0766
10767TIP3    H153792   4.321   6.222  12.610 -0.1481 -1.3952  0.8232
10767TIP3    H253793   4.412   6.141  12.519 -0.5081 -0.4971 -0.3631
10768TIP3   OH253794   1.762   3.955   1.578  0.1601  0.2228 -0.0707
10768TIP3    H153795   1.855   3.954   1.603  0.9242 -0.8363 -2.6156
10768TIP3    H253796   1.762   3.931   1.485 -2.7289 -0.4719  0.0101
10769TIP3   OH253797   5.610   1.125   1.704 -0.6262  0.4481 -0.0909
10769TIP3    H153798   5.606   1.170   1.620 -2.8572  1.9610  0.7430
10769TIP3    H253799   5.552   1.175   1.761  1.2881 -0.1313  2.5720
10770TIP3   OH253800   4.267   5.016   5.476 -0.0276 -0.4743  0.3063
10770TIP3    H153801   4.293   5.088   5.419 -0.2123 -0.9921 -0.4581
10770TIP3    H253802   4.179   4.993   5.447 -0.2258 -0.5767  0.9835
10771TIP3   OH253803   5.870   6.106   4.194 -0.3400  0.0547  0.4589
10771TIP3    H153804   5.846   6.070   4.109  0.9430 -0.1454  0.1576
10771TIP3    H253805   5.864   6.032   4.254 -2.9467  0.5689  0.9307
10772TIP3   OH253806   2.797   3.577  15.625 -0.3330 -0.0690 -0.1015
10772TIP3    H153807   2.748   3.503  15.589  0.0239 -0.0295 -0.6754
10772TIP3    H253808   2.879   3.538  15.656 -0.9483 -0.2400  1.4074
10773TIP3   OH253809   1.758   4.988  17.160 -0.5830 -0.4072  0.1471
10773TIP3    H153810   1.815   4.937  17.217  0.7556  0.5314 -0.2913
10773TIP3    H253811   1.743   5.070  17.208 -0.6558 -0.2107 -0.2041
10774TIP3   OH253812   2.914   2.842  12.288  0.2506 -0.2016  0.3118
10774TIP3    H153813   2.901   2.750  12.310 -0.5543 -0.3160 -0.5797
10774TIP3    H253814   2.987   2.842  12.226 -0.1573 -0.3205 -0.1789
10775TIP3   OH253815   4.224   2.594   3.000  0.3226 -0.1843 -0.5053
10775TIP3    H153816   4.270   2.533   3.058 -2.4065 -1.2368  0.7630
10775TIP3    H253817   4.235   2.557   2.913  1.2135 -0.8088 -0.1382
10776TIP3   OH253818   1.266   2.288   1.944  0.5965  0.2733  0.5467
10776TIP3    H153819   1.188   2.280   1.890  1.2299  2.0864 -0.7676
10776TIP3    H253820   1.299   2.199   1.952 -0.0943 -0.1976 -1.2291
10777TIP3   OH253821   4.299   1.946  12.058 -0.4110  0.2197 -0.3257
10777TIP3    H153822   4.363   1.904  12.001 -0.7221 -1.5588  0.5695
10777TIP3    H253823   4.344   2.022  12.094  0.0599  0.9048 -2.2627
10778TIP3   OH253824   4.302   6.429  10.357 -0.4948 -0.1238  0.4883
10778TIP3    H153825   4.245   6.501  10.382 -1.0645 -0.4750  0.2376
10778TIP3    H253826   4.340   6.399  10.439 -0.3126  0.4152  0.6014
10779TIP3   OH253827   2.216   3.381   2.974 -0.2930 -0.1128  0.5108
10779TIP3    H153828   2.152   3.312   2.955 -1.1070  0.9528 -0.8281
10779TIP3    H253829   2.301   3.337   2.965 -0.7966 -0.9983 -0.1277
10780TIP3   OH253830   1.421   4.815  16.262  0.8416 -0.1294 -0.1933
10780TIP3    H153831   1.417   4.887  16.199  1.2694 -0.5432 -0.6927
10780TIP3    H253832   1.475   4.748  16.220  0.9203 -0.5133  0.5044
10781TIP3   OH253833   1.351   0.538   1.791  0.9119 -0.6088  0.3388
10781TIP3    H153834   1.427   0.592   1.812  0.2958  0.6939 -0.5858
10781TIP3    H253835   1.297   0.540   1.870  0.4312  1.0192  0.0208
10782TIP3   OH253836   4.591   2.491  14.649 -0.0707 -0.0573 -0.3050
10782TIP3    H153837   4.673   2.453  14.679  1.7247  2.1346 -2.1056
10782TIP3    H253838   4.617   2.567  14.597 -3.2180  0.2745 -1.6183
10783TIP3   OH253839   5.852   5.175  15.320 -0.2084 -0.3474 -0.8851
10783TIP3    H153840   5.876   5.196  15.410 -0.7342  2.5045 -1.3323
10783TIP3    H253841   5.803   5.093  15.327  1.1267 -1.0473  1.1995
10784TIP3   OH253842   4.952   2.291  10.548  0.3422 -0.4226  0.0775
10784TIP3    H153843   5.005   2.341  10.486  1.3281 -0.4407  0.8738
10784TIP3    H253844   5.014   2.232  10.590 -0.3115 -0.4295  1.0629
10785TIP3   OH253845   1.390   0.837   0.501 -0.5282 -0.0328  0.4081
10785TIP3    H153846   1.409   0.745   0.521 -0.0078 -0.0903 -0.2980
10785TIP3    H253847   1.432   0.886   0.571 -1.0007 -0.3438  0.9110
10786TIP3   OH253848   5.144   3.999   2.807  0.2828  0.6553  0.2609
10786TIP3    H153849   5.072   3.936   2.812  1.1226 -0.2977  0.7791
10786TIP3    H253850   5.125   4.063   2.876 -1.7495  2.3133 -1.6802
10787TIP3   OH253851   5.050   2.749   5.573 -0.2363 -0.1886 -0.1397
10787TIP3    H153852   5.021   2.776   5.486  0.9002  0.3039 -0.3816
10787TIP3    H253853   5.138   2.715   5.559  0.4106  0.9723  0.9952
10788TIP3   OH253854   5.858   1.824   0.455  0.6077  0.3255  0.1276
10788TIP3    H153855   5.842   1.916   0.476 -1.2136  0.3963 -1.3220
10788TIP3    H253856   5.784   1.777   0.493  0.8862 -0.3943 -0.2045
10789TIP3   OH253857   5.279   2.636   4.497 -0.3529 -1.0038  0.1309
10789TIP3    H153858   5.312   2.691   4.426 -0.2214  1.4908  2.0094
10789TIP3    H253859   5.350   2.576   4.516 -0.2928 -1.5448 -1.6228
10790TIP3   OH253860   0.624   6.708  11.335  0.5384  0.3281 -0.3526
10790TIP3    H153861   0.538   6.682  11.368  0.4919 -0.5256 -1.1079
10790TIP3    H253862   0.671   6.625  11.324  1.4955  0.7918  0.1438
10791TIP3   OH253863   0.487   5.983  13.899 -0.2233 -0.2164  0.5998
10791TIP3    H153864   0.535   6.045  13.954  0.4588  0.5030 -0.7533
10791TIP3    H253865   0.414   6.034  13.864  0.5332 -0.0346 -0.7942
10792TIP3   OH253866   5.544   5.639  11.464  0.0122  0.0801 -0.7079
10792TIP3    H153867   5.556   5.732  11.482  1.3230  0.2837 -2.3687
10792TIP3    H253868   5.547   5.597  11.550  0.7152  1.4395 -0.0402
10793TIP3   OH253869   1.825   5.181   0.141  0.0923  0.5156  0.6867
10793TIP3    H153870   1.841   5.210   0.230 -0.9718  0.3208  0.9609
10793TIP3    H253871   1.897   5.121   0.121 -0.8006 -1.2161  2.2460
10794TIP3   OH253872   2.945   0.067  15.855 -0.1271  0.5793  0.6490
10794TIP3    H153873   2.923  -0.021  15.824  1.9348  0.4090 -0.5361
10794TIP3    H253874   2.924   0.124  15.781  2.1212  0.5326 -0.1225
10795TIP3   OH253875   1.665   1.565   4.723 -0.1146 -0.4239 -0.1480
10795TIP3    H153876   1.732   1.581   4.657  0.8171 -4.3433 -0.4068
10795TIP3    H253877   1.714   1.535   4.800 -1.4050  0.5118  1.0961
10796TIP3   OH253878   2.553   0.152   4.127 -0.3705  0.4952  0.1245
10796TIP3    H153879   2.477   0.100   4.152  0.2602  0.3393  1.9022
10796TIP3    H253880   2.627   0.091   4.134 -0.0436  0.6889 -1.3924
10797TIP3   OH253881   4.653   4.280   1.710  0.2341  0.7566 -0.1167
10797TIP3    H153882   4.673   4.252   1.620 -1.9615  1.1642 -0.7833
10797TIP3    H253883   4.719   4.347   1.729  2.7606 -1.5464 -0.1628
10798TIP3   OH253884   3.360   0.657  14.621 -0.1488 -0.1380  0.3941
10798TIP3    H153885   3.331   0.658  14.530 -1.7239 -3.3672  0.7214
10798TIP3    H253886   3.346   0.746  14.651 -1.2606  0.6111 -2.0393
10799TIP3   OH253887   6.353   0.902  14.632 -0.1994  0.0950  0.0368
10799TIP3    H153888   6.308   0.984  14.613 -2.6552 -1.2395 -0.3668
10799TIP3    H253889   6.325   0.843  14.562 -0.3405 -1.7166  1.5447
10800TIP3   OH253890   2.130   5.936  13.783 -0.0278  0.6373  0.2913
10800TIP3    H153891   2.166   5.887  13.709 -1.1967  1.2322 -0.7055
10800TIP3    H253892   2.207   5.967  13.831  0.7767 -2.4590  1.2245
10801TIP3   OH253893   1.963   4.307  14.793  0.1503  0.6928  0.3433
10801TIP3    H153894   2.053   4.318  14.822 -0.1505  1.5369  1.0274
10801TIP3    H253895   1.929   4.396  14.787 -0.8249  0.3612  0.7204
10802TIP3   OH253896   0.246   2.378   4.772  0.0327  0.3830 -0.1371
10802TIP3    H153897   0.232   2.471   4.751 -0.5110  0.4082  0.3001
10802TIP3    H253898   0.341   2.369   4.781  0.0446  1.0745  0.5698
10803TIP3   OH253899   0.663   3.220   1.356 -0.4768  0.2444  0.3635
10803TIP3    H153900   0.631   3.242   1.269 -2.1535  1.1957  1.1768
10803TIP3    H253901   0.635   3.130   1.370 -1.7694  0.6627  0.5784
10804TIP3   OH253902   2.534   1.489   2.511  0.2814 -0.2265  0.6978
10804TIP3    H153903   2.520   1.557   2.445  1.0993 -0.2370  0.5093
10804TIP3    H253904   2.579   1.419   2.464 -0.6504 -0.9559  0.8628
10805TIP3   OH253905   1.834   1.130  14.354  0.0063  0.5936  0.3870
10805TIP3    H153906   1.864   1.123  14.263  0.0226  3.2594  0.1114
10805TIP3    H253907   1.835   1.040  14.386  1.7996 -0.2188 -1.6750
10806TIP3   OH253908   0.062   3.851   5.741 -0.2124 -0.5311 -0.6807
10806TIP3    H153909  -0.026   3.883   5.758 -0.6813 -2.0327 -0.1051
10806TIP3    H253910   0.111   3.928   5.713 -0.9289  0.9367  1.8210
10807TIP3   OH253911   2.883   2.610  16.589  0.2825 -0.7449  1.0480
10807TIP3    H153912   2.941   2.600  16.513  0.1149  1.3791  0.5748
10807TIP3    H253913   2.941   2.642  16.658  0.0059 -0.3510  1.1012
10808TIP3   OH253914   1.657   1.702  12.061  0.0465  0.3148 -0.0747
10808TIP3    H153915   1.610   1.626  12.027 -1.5892  1.7342 -1.1680
10808TIP3    H253916   1.704   1.737  11.985 -0.9888  1.6181 -0.1539
10809TIP3   OH253917   5.525   1.806  11.687 -0.2946  1.1624  0.1204
10809TIP3    H153918   5.468   1.773  11.618  0.6220 -2.0315  0.7090
10809TIP3    H253919   5.466   1.851  11.747 -1.6328  1.0356 -1.0497
10810TIP3   OH253920   1.995   4.174   3.347 -0.0587 -0.5615  0.2689
10810TIP3    H153921   1.920   4.133   3.391  0.4689 -1.0304  0.7457
10810TIP3    H253922   1.984   4.149   3.255 -0.3803 -0.7896  0.3658
10811TIP3   OH253923   6.571   3.087   4.048 -0.0753  0.2614  0.7721
10811TIP3    H153924   6.662   3.085   4.016 -0.0450 -0.0822  0.8809
10811TIP3    H253925   6.519   3.054   3.975 -0.1828  1.0280  0.4885
10812TIP3   OH253926   0.938   2.527   5.939  0.0790 -0.0592  0.2926
10812TIP3    H153927   0.964   2.440   5.909 -0.0134  0.2555 -0.7765
10812TIP3    H253928   1.011   2.558   5.992 -0.3487 -1.2017  1.5683
10813TIP3   OH253929   0.143   6.477  12.768  0.0991  0.4349  0.0424
10813TIP3    H153930   0.225   6.525  12.782  0.0018  0.3264  1.0321
10813TIP3    H253931   0.161   6.420  12.694 -0.1294  2.8113 -2.0011
10814TIP3   OH253932   2.832   0.655  16.976 -0.3101  0.1484  0.0460
10814TIP3    H153933   2.746   0.624  17.005 -0.7963 -0.3703 -1.7955
10814TIP3    H253934   2.812   0.720  16.908  0.7485  2.1253  1.4998
10815TIP3   OH253935   0.071   4.349   0.083 -0.2867 -0.2738 -0.8087
10815TIP3    H153936   0.047   4.276   0.026 -0.7574 -2.0538  1.4837
10815TIP3    H253937  -0.005   4.407   0.081 -0.4078 -0.4443 -1.7214
10816TIP3   OH253938   3.562   2.234  12.327 -0.5033  0.1337 -0.1598
10816TIP3    H153939   3.497   2.231  12.257  0.9384  1.4741 -1.6121
10816TIP3    H253940   3.605   2.148  12.324 -1.0341 -0.1351 -0.2966
10817TIP3   OH253941   3.938   3.532   1.433 -0.7441 -0.4803 -0.0183
10817TIP3    H153942   3.864   3.566   1.483  0.2963  0.2864  1.0315
10817TIP3    H253943   4.004   3.601   1.437  0.3127 -1.4431 -0.3313
10818TIP3   OH253944   1.189   6.617   3.578 -0.2823 -0.1369 -0.4001
10818TIP3    H153945   1.181   6.703   3.621  0.3725  0.4422 -1.3924
10818TIP3    H253946   1.134   6.559   3.631 -0.8259  0.9153  0.2378
10819TIP3   OH253947   6.236   6.230   5.345  0.2601  0.4272  0.5562
10819TIP3    H153948   6.269   6.153   5.391  1.3332  0.6738  0.2224
10819TIP3    H253949   6.287   6.235   5.265 -0.3464  1.0380  0.1930
10820TIP3   OH253950   4.312   4.197  11.367  0.5949 -0.3824  0.3947
10820TIP3    H153951   4.378   4.162  11.427  0.1298 -0.9216  0.5945
10820TIP3    H253952   4.360   4.211  11.285  0.4772 -2.9067 -0.1615
10821TIP3   OH253953   1.725   1.104  16.177 -0.0409  0.4172  0.2672
10821TIP3    H153954   1.796   1.161  16.208  0.1076 -0.2728  1.2386
10821TIP3    H253955   1.712   1.129  16.085  1.5185  0.4881  0.0459
10822TIP3   OH253956   0.280   3.462   5.044 -0.1681 -0.2605  0.2175
10822TIP3    H153957   0.299   3.468   4.950 -0.4410 -0.0951  0.1734
10822TIP3    H253958   0.193   3.500   5.053  0.5778  1.3945  0.8055
10823TIP3   OH253959   2.789   4.790  11.335  0.7821 -0.2696  0.7741
10823TIP3    H153960   2.830   4.873  11.361  1.7714 -1.2376  2.5670
10823TIP3    H253961   2.695   4.804  11.347  0.7155  1.2646 -1.1302
10824TIP3   OH253962   6.355   4.708  10.635  0.1106 -1.1406 -0.1328
10824TIP3    H153963   6.419   4.662  10.689  1.7527 -0.3423 -1.2866
10824TIP3    H253964   6.292   4.641  10.609  1.1071 -2.2204  0.1484
10825TIP3   OH253965   1.919   3.849  11.083 -0.4960  0.1880  0.0264
10825TIP3    H153966   1.869   3.804  11.015 -2.6058  0.3948  1.3577
10825TIP3    H253967   1.938   3.935  11.045 -1.4229  0.2130 -0.4092
10826TIP3   OH253968   5.128   5.579  12.491  0.2062 -0.0542  0.2700
10826TIP3    H153969   5.103   5.576  12.399 -0.0619 -0.2152  0.3475
10826TIP3    H253970   5.107   5.493  12.525 -1.9756  0.7121  1.0517
10827TIP3   OH253971   6.622   0.703   5.451 -0.1966  0.5949 -0.2824
10827TIP3    H153972   6.550   0.645   5.476  0.8192  0.1542  1.8570
10827TIP3    H253973   6.669   0.655   5.383 -0.9568  0.1582 -0.5122
10828TIP3   OH253974   0.632   4.790  15.882 -0.1792  0.0703 -0.2042
10828TIP3    H153975   0.617   4.874  15.925 -4.1574 -1.1742  1.2854
10828TIP3    H253976   0.680   4.738  15.946 -0.2380  0.2985  0.0252
10829TIP3   OH253977   5.200   1.468   0.182 -0.0088  0.2491  0.2154
10829TIP3    H153978   5.202   1.400   0.249  1.4298 -0.4066 -0.4448
10829TIP3    H253979   5.190   1.420   0.099  0.8583  0.8381 -0.2445
10830TIP3   OH253980   5.155   3.800   3.433  0.0672  0.3117 -0.1926
10830TIP3    H153981   5.082   3.783   3.492  1.4943  1.6262  2.1078
10830TIP3    H253982   5.217   3.729   3.450 -0.2650 -0.3490 -1.5470
10831TIP3   OH253983   3.909   4.927  15.363  0.2490 -0.1885  0.1466
10831TIP3    H153984   3.942   4.981  15.435 -0.2830  0.0444  0.2214
10831TIP3    H253985   3.985   4.876  15.335  0.9952  1.1755 -0.4658
10832TIP3   OH253986   0.103   6.412  11.347 -0.0476 -0.0496 -0.2341
10832TIP3    H153987   0.188   6.453  11.363  0.1616 -1.2077  1.9743
10832TIP3    H253988   0.060   6.470  11.283  0.9409  2.6350  1.3636
10833TIP3   OH253989   5.347   3.142   3.493  0.2278 -0.2680  0.6725
10833TIP3    H153990   5.396   3.079   3.440  0.8586 -0.4468  1.4516
10833TIP3    H253991   5.272   3.166   3.439  0.9565 -0.3073 -0.3774
10834TIP3   OH253992   0.644   1.964  12.557 -0.2740  0.0647  0.1675
10834TIP3    H153993   0.645   2.046  12.507  0.1562  0.1221  0.2669
10834TIP3    H253994   0.679   1.988  12.643  2.1514 -0.6728 -0.5446
10835TIP3   OH253995   4.016   5.536   5.716 -0.0813 -0.0622  0.1931
10835TIP3    H153996   3.939   5.557   5.768 -1.4297  0.5646 -1.9209
10835TIP3    H253997   4.076   5.610   5.729 -0.1104 -0.2181  1.2949
10836TIP3   OH253998   6.768   3.873   3.734 -0.3219  0.3365 -0.0118
10836TIP3    H153999   6.710   3.870   3.659  0.3448 -1.5328 -0.5057
10836TIP3    H254000   6.807   3.786   3.738 -0.4593  0.3042  2.6108
10837TIP3   OH254001   1.904   1.816   6.172  0.1685 -0.5854 -0.2752
10837TIP3    H154002   1.865   1.784   6.253  0.4559 -0.0449  0.0839
10837TIP3    H254003   1.842   1.880   6.139  0.6428  0.1518  0.2094
10838TIP3   OH254004   5.145   4.843  15.861  0.0746 -0.4128 -0.5628
10838TIP3    H154005   5.155   4.877  15.772  0.0039  1.2228  0.0019
10838TIP3    H254006   5.099   4.913  15.908 -0.5694 -1.5620  0.5734
10839TIP3   OH254007   4.516   1.572   2.732  0.1663 -0.4077  0.0061
10839TIP3    H154008   4.465   1.495   2.758 -1.1830  0.5300  0.1925
10839TIP3    H254009   4.586   1.577   2.797 -1.3695  0.1137  1.7217
10840TIP3   OH254010   5.091   1.019  11.105 -0.1592  0.4241 -0.3865
10840TIP3    H154011   5.128   1.070  11.033  1.6070 -0.1666  0.0318
10840TIP3    H254012   5.127   1.060  11.184  0.9621 -1.1432 -0.0275
10841TIP3   OH254013   2.648   5.874   0.848  0.3994  0.3724  0.1616
10841TIP3    H154014   2.728   5.895   0.895 -0.4682  1.2472  1.3094
10841TIP3    H254015   2.580   5.924   0.893 -1.0065 -1.2927 -0.0144
10842TIP3   OH254016   5.183   2.664  13.414  0.2996 -0.1030 -0.0258
10842TIP3    H154017   5.224   2.749  13.426 -2.5391  1.2059  1.2175
10842TIP3    H254018   5.207   2.614  13.492  0.8809  0.0223 -0.1222
10843TIP3   OH254019   6.029   6.610  16.662  0.7800 -0.3311  0.0904
10843TIP3    H154020   6.106   6.556  16.678 -0.1319 -0.9987  2.8520
10843TIP3    H254021   5.961   6.572  16.718 -0.9556  1.4809 -0.6644
10844TIP3   OH254022   4.505   0.231   4.584  0.6019  0.1323 -0.1493
10844TIP3    H154023   4.485   0.178   4.661 -0.9368  0.3691 -0.3490
10844TIP3    H254024   4.528   0.168   4.516 -1.2853 -0.3517 -0.4056
10845TIP3   OH254025   3.995   2.659  14.827  0.0547  0.2481  0.2778
10845TIP3    H154026   4.034   2.680  14.911  2.0288  0.1681 -0.5698
10845TIP3    H254027   3.960   2.742  14.795  0.6408  0.5932  0.5201
10846TIP3   OH254028   2.849   5.108   4.323  0.2508  0.3960  0.2605
10846TIP3    H154029   2.795   5.141   4.251  1.1124  0.6675 -0.2800
10846TIP3    H254030   2.912   5.050   4.281 -1.5582 -2.5183  1.2273
10847TIP3   OH254031   1.659   6.670   1.858 -0.0651 -0.0622  0.5738
10847TIP3    H154032   1.688   6.648   1.769  0.4841 -1.5477  1.1009
10847TIP3    H254033   1.714   6.617   1.915 -0.6836  0.5879  1.8001
10848TIP3   OH254034   6.080   6.577   2.157 -1.1671  0.1313 -0.0704
10848TIP3    H154035   6.145   6.622   2.211  0.3449  0.5766 -2.1481
10848TIP3    H254036   6.128   6.505   2.116 -2.3111 -0.3169 -0.6726
10849TIP3   OH254037   4.684   4.829   2.954 -0.2785  0.5947  0.1975
10849TIP3    H154038   4.644   4.797   2.873 -0.3951  0.4232  0.3213
10849TIP3    H254039   4.723   4.913   2.930  1.4428 -0.3719 -0.5371
10850TIP3   OH254040   1.542   4.766   0.986 -0.0445  0.1499  0.0010
10850TIP3    H154041   1.453   4.781   1.019 -0.2534 -3.8690  1.8455
10850TIP3    H254042   1.596   4.759   1.065  0.8372 -2.5479 -0.7370
10851TIP3   OH254043   5.577   4.292  13.128 -0.3325  0.5984 -0.2296
10851TIP3    H154044   5.658   4.342  13.124  0.2462 -0.3790 -2.3127
10851TIP3    H254045   5.555   4.276  13.036 -1.2188 -1.7857  0.3287
10852TIP3   OH254046   1.634   0.771  11.163  0.4235 -0.3680 -0.7508
10852TIP3    H154047   1.686   0.841  11.202 -0.9823  2.1033 -2.9711
10852TIP3    H254048   1.671   0.759  11.075 -0.7957 -0.7240 -1.2427
10853TIP3   OH254049   2.325   0.827  16.480 -0.5912 -0.4558 -0.2642
10853TIP3    H154050   2.298   0.749  16.432 -1.1403  0.3629 -1.3353
10853TIP3    H254051   2.264   0.895  16.451  0.3224  0.5438  0.0868
10854TIP3   OH254052   4.103   5.599  12.686  0.0743  0.1557  0.2342
10854TIP3    H154053   4.195   5.622  12.697  0.1244  0.1889 -0.2461
10854TIP3    H254054   4.082   5.624  12.596 -0.7202  1.2092  0.6911
10855TIP3   OH254055   5.860   2.076   6.938  0.2965  0.2218 -0.3242
10855TIP3    H154056   5.856   2.164   6.975  0.9870  0.7303 -1.4196
10855TIP3    H254057   5.855   2.089   6.844  1.5972 -0.8253 -0.5659
10856TIP3   OH254058   6.197   1.185  12.145  0.8097 -0.3329  0.0545
10856TIP3    H154059   6.212   1.278  12.127  2.2652 -0.5658 -0.0432
10856TIP3    H254060   6.209   1.142  12.061  1.4086 -0.7480  0.3485
10857TIP3   OH254061   6.566   3.571   1.460  0.8115  0.1397 -0.2213
10857TIP3    H154062   6.495   3.634   1.448  1.1129  0.4450 -0.4220
10857TIP3    H254063   6.640   3.624   1.492  0.8365 -0.2324  0.3611
10858TIP3   OH254064   0.270   4.276  12.200  0.3785  0.9685 -0.2269
10858TIP3    H154065   0.238   4.362  12.225 -0.8282  0.6063 -0.4456
10858TIP3    H254066   0.205   4.215  12.236  1.1562  0.1511 -0.1596
10859TIP3   OH254067   4.141   1.017   5.286  0.1826 -0.0236  0.0411
10859TIP3    H154068   4.082   1.022   5.361  0.0456  3.6817 -0.1251
10859TIP3    H254069   4.087   0.982   5.215 -1.0360  0.7152  0.5799
10860TIP3   OH254070   4.747   1.189  16.075  0.5929 -0.8694 -0.2862
10860TIP3    H154071   4.720   1.272  16.113  0.4664  0.2981 -2.7093
10860TIP3    H254072   4.686   1.174  16.003  2.1352 -1.7235 -1.5041
10861TIP3   OH254073   3.535   4.777  14.842 -0.2745  0.0714  0.4952
10861TIP3    H154074   3.575   4.743  14.922  1.8551  1.1390 -0.0408
10861TIP3    H254075   3.440   4.767  14.856  0.1038 -1.4286  2.3598
10862TIP3   OH254076   4.464   0.148  12.573  0.3974 -0.1962 -0.2001
10862TIP3    H154077   4.387   0.108  12.614 -0.3061  0.5935 -0.7198
10862TIP3    H254078   4.469   0.235  12.613  1.4545 -0.4926  0.3539
10863TIP3   OH254079   2.842   0.842  16.343  0.3083 -0.6343  0.1962
10863TIP3    H154080   2.857   0.748  16.338  1.2983 -0.4866  0.2407
10863TIP3    H254081   2.905   0.873  16.409  0.1887  0.0940 -0.0198
10864TIP3   OH254082   5.270   2.955   2.246 -0.0615  0.1051  0.2472
10864TIP3    H154083   5.175   2.945   2.245  0.0010 -0.5424 -1.2056
10864TIP3    H254084   5.292   2.998   2.164  0.7575  2.1305  1.4535
10865TIP3   OH254085   0.039   3.672  13.046 -0.4644  0.0500 -0.6190
10865TIP3    H154086   0.007   3.665  13.136  0.1493 -0.5859 -0.4414
10865TIP3    H254087   0.009   3.758  13.017  0.1794  0.6943  0.5335
10866TIP3   OH254088   0.658   1.641   5.699 -0.3833  0.3599 -0.2278
10866TIP3    H154089   0.627   1.664   5.786  0.0129 -1.0096  0.3028
10866TIP3    H254090   0.747   1.677   5.695 -1.0566  2.0822 -0.8143
10867TIP3   OH254091   0.710   2.708   5.015  0.0485  0.1583 -0.0111
10867TIP3    H154092   0.745   2.638   4.960  2.9033  1.4255  0.0341
10867TIP3    H254093   0.621   2.678   5.038  1.3559 -3.8235  0.7094
10868TIP3   OH254094   3.511   2.321  11.113  0.6275  0.1823 -0.0819
10868TIP3    H154095   3.436   2.369  11.078  0.6066 -0.5831 -1.1096
10868TIP3    H254096   3.491   2.229  11.097  1.4669 -0.0730  0.2787
10869TIP3   OH254097   6.117   1.262  14.144 -0.0348 -0.3838 -0.5486
10869TIP3    H154098   6.051   1.207  14.185  0.9204 -1.0452  0.1308
10869TIP3    H254099   6.190   1.264  14.206  0.7674 -0.0332 -1.4718
10870TIP3   OH254100   5.146   6.647  14.832  0.4523 -0.1215  0.2726
10870TIP3    H154101   5.107   6.565  14.802 -1.1761  0.6119  0.2664
10870TIP3    H254102   5.174   6.691  14.752 -0.5887  0.2414  0.0995
10871TIP3   OH254103   5.543   3.383   3.123  0.3607 -0.1490  0.2413
10871TIP3    H154104   5.454   3.388   3.159  0.1330 -1.3289 -0.1174
10871TIP3    H254105   5.531   3.370   3.029  0.9408  1.0214 -0.0162
10872TIP3   OH254106   5.764   5.072  17.129  0.2049  0.6300 -0.1716
10872TIP3    H154107   5.745   5.137  17.197 -0.0017  0.2050  0.1828
10872TIP3    H254108   5.822   5.009  17.172  0.9281  0.9173 -0.6996
10873TIP3   OH254109   5.203   4.251  14.310 -0.0015 -0.1776  0.5567
10873TIP3    H154110   5.291   4.287  14.302 -0.7701  2.1358  1.4392
10873TIP3    H254111   5.205   4.169  14.260  2.1971  0.6106 -0.7897
10874TIP3   OH254112   0.065   2.044   0.612 -0.6523  0.2843  0.3743
10874TIP3    H154113  -0.004   2.042   0.546 -1.7572  1.0421  1.4537
10874TIP3    H254114   0.137   2.091   0.570  0.9032 -3.8500 -2.2202
10875TIP3   OH254115   6.571   3.001  11.287 -0.4070  0.5048  0.2688
10875TIP3    H154116   6.617   3.053  11.222 -0.0141  2.1092  1.7555
10875TIP3    H254117   6.534   3.065  11.348  0.3333 -0.9211  2.3439
10876TIP3   OH254118   6.328   5.080  12.016 -0.2891  0.9820 -0.2220
10876TIP3    H154119   6.302   5.028  11.940  0.5159  0.1123  0.0735
10876TIP3    H254120   6.356   5.164  11.978 -0.4928  0.7886 -0.8224
10877TIP3   OH254121   1.202   5.229   2.830  0.7122  0.3605 -0.3427
10877TIP3    H154122   1.131   5.164   2.828  1.1933 -0.3642  2.4332
10877TIP3    H254123   1.172   5.298   2.771 -3.3469  1.0610  2.1739
10878TIP3   OH254124   0.554   1.146   5.900  0.1773 -0.4287  0.5138
10878TIP3    H154125   0.607   1.132   5.978 -0.9780 -2.2449  1.0442
10878TIP3    H254126   0.483   1.204   5.929  0.6457  0.2153  0.3793
10879TIP3   OH254127   1.590   2.948  14.778  0.2025 -0.2029 -0.0413
10879TIP3    H154128   1.647   2.875  14.801 -1.7296 -1.3614  1.4619
10879TIP3    H254129   1.573   2.992  14.861  0.1769  1.0750 -0.7094
10880TIP3   OH254130   3.530   1.826  16.234  0.0702  0.2675  0.0188
10880TIP3    H154131   3.480   1.745  16.246 -2.0957  1.4424 -0.5766
10880TIP3    H254132   3.497   1.884  16.303  0.0061  1.3505 -0.9007
10881TIP3   OH254133   5.932   3.953   2.145  0.0432  0.1732  0.2815
10881TIP3    H154134   5.983   3.921   2.070  3.1858  1.8068  1.5043
10881TIP3    H254135   5.967   3.904   2.219 -0.1364  1.3681  1.1835
10882TIP3   OH254136   1.236   6.448   5.312  0.1462  0.1418  0.3405
10882TIP3    H154137   1.177   6.518   5.340 -0.3597 -0.3557  0.5519
10882TIP3    H254138   1.277   6.417   5.393  0.3884  0.2081  0.2451
10883TIP3   OH254139   1.704   1.591  12.318 -0.4781  0.5660  0.2175
10883TIP3    H154140   1.780   1.631  12.360  0.8946  0.0110 -1.5812
10883TIP3    H254141   1.680   1.652  12.248 -1.1804  0.3509  0.2647
10884TIP3   OH254142   2.069   4.304   4.752 -0.2729  0.3916  0.3520
10884TIP3    H154143   2.137   4.256   4.800 -1.1057 -1.4899 -0.2540
10884TIP3    H254144   2.024   4.355   4.820  1.1511  0.9642  0.8943
10885TIP3   OH254145   4.390   2.301  14.601  0.3118  0.4115  0.1038
10885TIP3    H154146   4.451   2.371  14.627 -1.7674  2.4448 -0.1426
10885TIP3    H254147   4.307   2.326  14.640 -0.6527 -1.6877 -0.4677
10886TIP3   OH254148   4.974   6.643   1.187 -0.3567  0.2693  0.0991
10886TIP3    H154149   4.922   6.723   1.178 -0.2471  0.2006 -1.4089
10886TIP3    H254150   5.035   6.646   1.113 -0.1715 -1.0790  0.1779
10887TIP3   OH254151   5.684   6.507  13.721  0.1985  0.1446  0.3902
10887TIP3    H154152   5.660   6.468  13.637  2.7821 -1.1342  0.1407
10887TIP3    H254153   5.717   6.594  13.699 -1.2170  0.6961  0.3809
10888TIP3   OH254154   6.014   6.282   4.010 -0.5091  0.7628 -0.0338
10888TIP3    H154155   6.086   6.219   4.008  0.1548  1.5287 -1.5909
10888TIP3    H254156   5.951   6.245   4.073  0.0546 -1.2063 -0.5776
10889TIP3   OH254157   0.112   0.533  16.776  0.5343 -0.0761  0.1560
10889TIP3    H154158   0.018   0.520  16.788  0.5314 -0.4674 -0.2839
10889TIP3    H254159   0.125   0.524  16.682  0.5461  2.8699 -0.2263
10890TIP3   OH254160   3.182   5.015  16.410 -0.2848 -0.3012 -0.3064
10890TIP3    H154161   3.148   5.054  16.490  0.7450  0.3451 -0.1800
10890TIP3    H254162   3.110   5.024  16.347 -0.1947  1.5210 -0.1965
10891TIP3   OH254163   0.456   4.134  15.609 -0.1930  0.2423  0.3252
10891TIP3    H154164   0.372   4.179  15.611 -0.8017 -0.7976 -0.4866
10891TIP3    H254165   0.464   4.101  15.520  1.0533  0.2645  0.4097
10892TIP3   OH254166   0.916   3.138   3.678 -0.3077 -0.3784 -0.1394
10892TIP3    H154167   0.972   3.060   3.681 -0.6667 -0.6138  0.7641
10892TIP3    H254168   0.829   3.104   3.661 -0.1566  0.0213 -2.0013
10893TIP3   OH254169   1.921   5.319   0.685  0.2347  0.2194  0.4213
10893TIP3    H154170   2.015   5.333   0.685  0.7964 -1.9599 -3.4184
10893TIP3    H254171   1.904   5.267   0.763  2.6913 -1.2840  0.0569
10894TIP3   OH254172   6.025   2.574   5.600  0.5764 -0.0589  0.1219
10894TIP3    H154173   5.948   2.622   5.630 -0.7349 -1.7608 -0.4070
10894TIP3    H254174   6.099   2.628   5.630 -0.7767  1.5094  0.8273
10895TIP3   OH254175   5.792   4.698   5.977  0.1369 -0.1310  0.0101
10895TIP3    H154176   5.814   4.731   6.064  1.8793 -0.1960 -0.3542
10895TIP3    H254177   5.843   4.618   5.968 -0.3700 -0.3646 -0.9063
10896TIP3   OH254178   6.301   5.269   4.157 -0.3033  0.2324 -0.2729
10896TIP3    H154179   6.227   5.257   4.097  0.6576 -0.5985 -1.3365
10896TIP3    H254180   6.281   5.351   4.202 -2.6413 -0.7441  0.6362
10897TIP3   OH254181   5.364   2.159   6.780 -0.6314 -0.2967 -0.0975
10897TIP3    H154182   5.458   2.180   6.776 -0.1836 -2.2258 -1.3111
10897TIP3    H254183   5.326   2.207   6.706 -0.9061  1.6524  1.2591
10898TIP3   OH254184   6.740   0.363  14.668  0.3852  0.7021  0.2638
10898TIP3    H154185   6.785   0.282  14.642  0.0535  0.8657 -0.8415
10898TIP3    H254186   6.782   0.387  14.751  2.5747  1.0178 -0.8460
10899TIP3   OH254187   6.522   6.289   5.581  0.5146 -0.2552  0.3834
10899TIP3    H154188   6.606   6.318   5.544  0.7164 -1.1937  0.0637
10899TIP3    H254189   6.543   6.205   5.621 -0.1087 -0.1069  1.0270
10900TIP3   OH254190   1.655   0.763  13.000 -0.2689  0.0416 -0.1724
10900TIP3    H154191   1.562   0.741  12.993 -0.4480  0.2588  1.3119
10900TIP3    H254192   1.662   0.847  12.953 -0.7527 -0.1228 -0.5555
10901TIP3   OH254193   4.465   0.885   6.017  0.0994 -0.3641  0.5552
10901TIP3    H154194   4.472   0.831   5.938 -2.2501  0.2658 -0.1791
10901TIP3    H254195   4.402   0.838   6.072 -0.6276  0.7084  0.6671
10902TIP3   OH254196   0.221   3.274  15.577 -0.3390  0.8201  0.6855
10902TIP3    H154197   0.262   3.330  15.511  0.3766  1.4455  1.6354
10902TIP3    H254198   0.151   3.327  15.614 -0.0581  0.8677  1.1555
10903TIP3   OH254199   5.999   1.000  15.885 -0.6833  0.1536  0.0793
10903TIP3    H154200   6.000   1.085  15.841  1.2030  0.7167  1.1111
10903TIP3    H254201   5.968   1.019  15.973 -1.3964 -0.4433 -0.0333
10904TIP3   OH254202   4.028   1.500  13.988 -0.4934 -0.8111 -0.2972
10904TIP3    H154203   4.027   1.590  13.958 -0.1719 -0.1865  1.4517
10904TIP3    H254204   4.121   1.478  13.997 -0.5711 -1.2510 -0.5135
10905TIP3   OH254205   5.282   4.442   6.347 -0.0732  0.2488  0.6429
10905TIP3    H154206   5.224   4.391   6.290  1.5054  0.3552 -1.1427
10905TIP3    H254207   5.225   4.512   6.381 -1.2413 -0.2092 -0.2679
10906TIP3   OH254208   5.489   3.035   5.300 -0.1006 -1.0150  0.0709
10906TIP3    H154209   5.563   3.090   5.327 -0.1860 -0.1264 -1.4061
10906TIP3    H254210   5.418   3.062   5.358  0.1341 -0.2924  0.0371
10907TIP3   OH254211   4.214   2.104   5.132  0.3279  0.0091  0.2496
10907TIP3    H154212   4.180   2.192   5.146 -0.3953  0.5949 -4.0539
10907TIP3    H254213   4.306   2.110   5.157  0.1355  1.7914  0.6920
10908TIP3   OH254214   2.113   0.176  16.057 -0.1041  0.8251  0.1558
10908TIP3    H154215   2.205   0.152  16.064 -0.0533  1.4114  1.9902
10908TIP3    H254216   2.071   0.100  16.015  1.0393  0.1366  0.2297
10909TIP3   OH254217   2.867   2.927  14.070  0.4550 -0.0876  0.1276
10909TIP3    H154218   2.879   2.902  14.162 -0.8612 -0.7471  0.1462
10909TIP3    H254219   2.781   2.891  14.047  0.0290  1.4998 -0.8782
10910TIP3   OH254220   3.452   5.646   5.558  0.2457 -0.0304 -0.1402
10910TIP3    H154221   3.403   5.597   5.625  1.3512 -1.3294 -0.2286
10910TIP3    H254222   3.487   5.722   5.604 -0.5238  0.0535  0.3087
10911TIP3   OH254223   2.065   3.897   4.388  0.4703 -0.2996  0.3195
10911TIP3    H154224   2.085   3.960   4.457  0.6172 -0.9730  0.8938
10911TIP3    H254225   2.043   3.816   4.434 -1.5163 -0.1936 -0.3414
10912TIP3   OH254226   1.044   6.051  16.162 -0.5069 -0.4023  0.1186
10912TIP3    H154227   1.030   5.957  16.177 -0.7421 -0.4230 -0.2311
10912TIP3    H254228   1.110   6.075  16.227 -3.1881  0.0535  2.9408
10913TIP3   OH254229   4.224   3.383   5.578  0.8763 -0.0409  0.5813
10913TIP3    H154230   4.307   3.418   5.611  1.3481  0.6255 -1.2122
10913TIP3    H254231   4.177   3.355   5.657  2.3226  0.6111  1.7245
10914TIP3   OH254232   2.587   1.104  12.104 -0.2985  0.0916 -0.0545
10914TIP3    H154233   2.581   1.144  12.190  1.1333  1.9018 -0.7162
10914TIP3    H254234   2.677   1.071  12.099 -1.3900 -3.4018  0.4512
10915TIP3   OH254235   5.894   0.211   5.684  0.5511  0.2907 -0.2618
10915TIP3    H154236   5.801   0.228   5.666  1.0475  0.8046 -2.5779
10915TIP3    H254237   5.904   0.233   5.777 -1.4078  1.2437 -0.2231
10916TIP3   OH254238   4.001   0.981   0.714  0.2083 -0.2833 -0.1186
10916TIP3    H154239   4.037   1.066   0.688 -0.1471 -1.0273 -3.5316
10916TIP3    H254240   4.077   0.923   0.718  0.1819 -0.3228 -0.1855
10917TIP3   OH254241   4.218   0.283   4.220  0.0435 -0.3529  0.6097
10917TIP3    H154242   4.174   0.281   4.135  0.5457  0.7248  0.3048
10917TIP3    H254243   4.303   0.242   4.204  0.3166  0.2512  0.4684
10918TIP3   OH254244   1.345   2.064  14.953 -0.6684  0.3961 -0.0230
10918TIP3    H154245   1.254   2.077  14.978 -0.4252  2.4323 -0.0374
10918TIP3    H254246   1.378   2.000  15.017 -2.3297 -1.1642 -0.6525
10919TIP3   OH254247   6.032   5.751   1.436 -0.1873  0.1703 -0.2569
10919TIP3    H154248   5.964   5.760   1.370 -1.1942 -0.0158  0.7308
10919TIP3    H254249   6.039   5.656   1.450  0.4808  0.1698 -0.5492
10920TIP3   OH254250   3.212   6.221   2.937  0.2255 -0.2941 -0.3367
10920TIP3    H154251   3.281   6.239   2.872  1.0585 -0.9960  0.3283
10920TIP3    H254252   3.150   6.164   2.891  0.4907 -0.2871 -0.7050
10921TIP3   OH254253   1.228   0.854   1.753 -0.2022  0.0810 -0.2864
10921TIP3    H154254   1.150   0.840   1.807 -0.6912 -0.7199 -1.1796
10921TIP3    H254255   1.258   0.766   1.731  1.1405  0.3664  0.2781
10922TIP3   OH254256   4.182   6.040   1.906  0.3475  0.1623 -0.2183
10922TIP3    H154257   4.156   5.968   1.849  0.5019 -0.3688  0.3696
10922TIP3    H254258   4.103   6.059   1.957  0.4120  0.1658 -0.1195
10923TIP3   OH254259   4.053   1.698   0.565 -0.6805 -0.5986  0.0306
10923TIP3    H154260   3.973   1.740   0.533 -0.7411 -1.4500 -0.9894
10923TIP3    H254261   4.117   1.713   0.495  0.9592  2.4787  1.9600
10924TIP3   OH254262   2.323   3.742  15.235  0.6879  0.5891  0.0653
10924TIP3    H154263   2.245   3.723  15.288 -0.7703  2.5886 -1.2057
10924TIP3    H254264   2.330   3.667  15.175 -0.1827  0.3197  0.2868
10925TIP3   OH254265   1.386   4.164  13.036  0.4647  0.3763  0.3573
10925TIP3    H154266   1.443   4.210  13.097  2.1664 -0.6156 -0.4188
10925TIP3    H254267   1.419   4.075  13.034 -0.5321 -0.0010 -0.8435
10926TIP3   OH254268   4.592   6.143  12.451  0.2853 -0.2702  0.3262
10926TIP3    H154269   4.594   6.234  12.420  1.0501 -0.5814 -0.5911
10926TIP3    H254270   4.682   6.126  12.480  0.6939 -1.3711 -1.4630
10927TIP3   OH254271   3.368   3.940  15.470  0.5885 -0.7881 -0.0373
10927TIP3    H154272   3.390   4.032  15.462  3.2610 -1.4342 -1.2360
10927TIP3    H254273   3.329   3.917  15.386  1.1230 -1.0095 -0.2312
10928TIP3   OH254274   5.117   2.332  12.314 -0.1242 -0.7233 -0.5374
10928TIP3    H154275   5.184   2.346  12.381 -0.0273 -1.2648 -0.5122
10928TIP3    H254276   5.155   2.264  12.257 -0.2529 -0.3458 -1.0751
10929TIP3   OH254277   0.883   4.327   0.222 -0.0506  0.1397 -0.3779
10929TIP3    H154278   0.798   4.361   0.195  0.7351  2.0385 -0.5928
10929TIP3    H254279   0.926   4.302   0.140 -0.7438 -1.8118 -0.2036
10930TIP3   OH254280   0.783   0.268   1.653  0.5517 -0.1261 -0.0159
10930TIP3    H154281   0.803   0.200   1.588  0.7010 -0.4488  0.3604
10930TIP3    H254282   0.824   0.347   1.619 -0.7359  0.0964 -1.1209
10931TIP3   OH254283   4.533   3.852   0.938 -0.6838  0.1630 -0.2648
10931TIP3    H154284   4.549   3.934   0.984  0.9171 -0.3116  0.1067
10931TIP3    H254285   4.555   3.784   1.002 -0.9014 -0.5390 -0.9139
10932TIP3   OH254286   4.860   2.607  14.047  0.3834 -0.1757 -0.2255
10932TIP3    H154287   4.869   2.515  14.023  1.8598 -0.2380  0.4822
10932TIP3    H254288   4.793   2.609  14.115  0.4946 -0.7502 -0.1004
10933TIP3   OH254289   5.592   2.335   1.593 -0.2076 -0.3720  0.1900
10933TIP3    H154290   5.500   2.355   1.578 -0.4573  0.4140  2.4419
10933TIP3    H254291   5.633   2.420   1.607  1.0322 -0.6562 -1.3458
10934TIP3   OH254292   5.172   1.945  16.258  0.2212 -0.0746  0.2786
10934TIP3    H154293   5.209   1.913  16.341  1.7868  0.7339 -0.0610
10934TIP3    H254294   5.219   1.895  16.191 -1.1431 -0.8312 -0.1465
10935TIP3   OH254295   1.876   1.954  14.288 -0.7267  0.2205 -0.1685
10935TIP3    H154296   1.958   1.943  14.241  0.0400 -2.4199  1.5932
10935TIP3    H254297   1.814   1.986  14.221 -0.1426 -4.6309 -3.5180
10936TIP3   OH254298   1.660   1.408  15.335  0.2834  0.6201 -0.3345
10936TIP3    H154299   1.603   1.349  15.385  0.0697 -0.2254 -1.5295
10936TIP3    H254300   1.621   1.410  15.247  1.3920  1.0210 -0.8341
10937TIP3   OH254301   1.562   6.765   4.881 -0.1497 -0.2284 -0.4431
10937TIP3    H154302   1.580   6.742   4.972  3.3213  3.5758  0.1390
10937TIP3    H254303   1.630   6.718   4.831 -0.3689 -0.2442 -0.7281
10938TIP3   OH254304   0.868   6.280   4.606 -0.4964 -0.2078  0.0236
10938TIP3    H154305   0.859   6.235   4.690  0.3927  0.7255  0.6500
10938TIP3    H254306   0.958   6.314   4.607 -0.0848 -1.1090 -1.7935
10939TIP3   OH254307   5.966   2.626  15.127 -0.3241 -0.1419  0.8935
10939TIP3    H154308   5.913   2.674  15.063  0.1377  0.2468  0.7976
10939TIP3    H254309   6.046   2.677  15.134 -0.8509  0.4835  2.6796
10940TIP3   OH254310   4.595   3.552  12.623  0.1768 -0.1902 -0.2027
10940TIP3    H154311   4.594   3.501  12.704 -0.0295 -1.7255 -1.1382
10940TIP3    H254312   4.653   3.503  12.564 -0.2022  0.5314 -1.2093
10941TIP3   OH254313   1.595   2.473   4.325 -0.2391 -0.1604  0.1913
10941TIP3    H154314   1.630   2.548   4.278  0.3271 -0.2258  0.5061
10941TIP3    H254315   1.655   2.401   4.304 -0.8040 -0.5453 -0.1538
10942TIP3   OH254316   4.071   1.540   5.966  0.4950 -1.1112  0.0971
10942TIP3    H154317   4.144   1.486   5.937 -0.5034 -2.7398  0.4641
10942TIP3    H254318   4.105   1.588   6.041  1.2286 -1.7712  0.2022
10943TIP3   OH254319   0.812   2.469  13.590 -0.6137  0.4354 -0.1904
10943TIP3    H154320   0.838   2.379  13.574  0.3015  0.8343 -1.0347
10943TIP3    H254321   0.800   2.507  13.503  1.0812  1.6874  0.0692
10944TIP3   OH254322   2.895   5.592  16.394 -0.1292  0.0220  0.8103
10944TIP3    H154323   2.910   5.540  16.473 -1.8664  0.9126  1.8054
10944TIP3    H254324   2.970   5.652  16.390 -0.2380  0.2759  2.0877
10945TIP3   OH254325   5.097   5.487  12.879 -1.0365  0.1999  0.7500
10945TIP3    H154326   5.089   5.395  12.854  1.5934 -0.2718  1.4159
10945TIP3    H254327   5.052   5.493  12.963 -0.6106 -0.6550  1.0480
10946TIP3   OH254328   3.366   6.328  14.133 -0.4212  0.5437 -0.2244
10946TIP3    H154329   3.458   6.353  14.140 -0.3562  0.1095  0.6742
10946TIP3    H254330   3.337   6.365  14.050  0.7197  0.1608 -0.8064
10947TIP3   OH254331   1.626   6.402  16.547  0.3694 -0.2657 -0.3181
10947TIP3    H154332   1.587   6.482  16.583 -0.6156  0.1751 -2.2522
10947TIP3    H254333   1.553   6.341  16.539  0.9041 -0.9776  0.0384
10948TIP3   OH254334   4.995   4.698   2.849  0.3724  1.0765 -0.3076
10948TIP3    H154335   5.081   4.722   2.881  0.0737  3.7686 -1.2248
10948TIP3    H254336   4.935   4.760   2.891 -0.8733  0.3997 -1.0036
10949TIP3   OH254337   2.608   4.684   4.714 -0.1543 -0.0674  0.4213
10949TIP3    H154338   2.613   4.648   4.802  0.7413 -1.4617 -0.1634
10949TIP3    H254339   2.531   4.643   4.675 -0.6622  0.6956  0.6084
10950TIP3   OH254340   1.616   0.888   1.582  0.7913 -0.0748  0.2100
10950TIP3    H154341   1.634   0.838   1.662  0.7676 -0.3865  0.0226
10950TIP3    H254342   1.597   0.822   1.516 -4.2206  0.1682  1.0332
10951TIP3   OH254343   0.081   1.793   2.995 -0.0272 -0.5937 -0.2684
10951TIP3    H154344   0.003   1.846   3.011  0.9960  0.4084  1.7695
10951TIP3    H254345   0.068   1.756   2.908 -3.0928 -1.0338  0.2857
10952TIP3   OH254346   5.493   0.415   5.783  0.2773 -0.3342  0.3933
10952TIP3    H154347   5.583   0.416   5.750  0.1162 -0.6770 -0.0640
10952TIP3    H254348   5.438   0.411   5.705 -0.1739  1.0096  0.6169
10953TIP3   OH254349   5.212   4.694   3.759 -0.1321 -0.2579 -0.2848
10953TIP3    H154350   5.182   4.775   3.716 -0.0231 -0.4547 -0.7389
10953TIP3    H254351   5.174   4.624   3.706  1.4607 -0.5267 -1.1408
10954TIP3   OH254352   6.423   5.581   0.326  0.1318 -0.2666 -0.1513
10954TIP3    H154353   6.351   5.615   0.274 -0.2724 -0.0237  0.5554
10954TIP3    H254354   6.422   5.486   0.310  0.0886 -0.1795 -0.6667
10955TIP3   OH254355   2.045   5.984  12.248  0.7896 -0.0665 -0.5650
10955TIP3    H154356   2.128   5.939  12.233  1.7475  1.0403  1.0906
10955TIP3    H254357   2.069   6.075  12.267 -0.5625 -0.1465  2.0015
10956TIP3   OH254358   2.199   5.144  13.818 -0.1237 -0.7735 -0.1294
10956TIP3    H154359   2.222   5.061  13.859 -0.8632 -2.3249 -2.6599
10956TIP3    H254360   2.187   5.205  13.892  1.7137 -2.5253  1.7283
10957TIP3   OH254361   2.116   2.764   1.644  0.2131 -0.1708 -0.5108
10957TIP3    H154362   2.080   2.822   1.577  0.0635 -0.9000 -1.0696
10957TIP3    H254363   2.156   2.824   1.707 -0.4631  0.5719 -0.7593
10958TIP3   OH254364   3.965   0.658  14.828 -0.1433 -0.1649 -0.5394
10958TIP3    H154365   3.946   0.654  14.734 -0.9835  0.8290 -0.4213
10958TIP3    H254366   3.895   0.712  14.865  0.5278 -0.0192  0.5623
10959TIP3   OH254367   6.588   2.942  16.317  0.0482  0.2986  0.0942
10959TIP3    H154368   6.564   2.853  16.343  0.9811  0.0794  0.2417
10959TIP3    H254369   6.573   2.995  16.395  2.2005 -0.2407  0.9270
10960TIP3   OH254370   1.970   5.031  13.961  0.1140  0.1094  0.4947
10960TIP3    H154371   2.012   4.950  13.991  0.7238  0.4405  0.5582
10960TIP3    H254372   2.011   5.100  14.013 -0.2997  0.4752  0.3429
10961TIP3   OH254373   0.611   2.260   4.433  0.3614 -0.2417 -0.3182
10961TIP3    H154374   0.681   2.325   4.437 -0.0324  0.2269 -0.9585
10961TIP3    H254375   0.629   2.201   4.506  0.3869  0.9240  0.6487
10962TIP3   OH254376   4.818   2.224   0.575  0.2067  0.0662 -0.5406
10962TIP3    H154377   4.829   2.262   0.488  0.2594  2.1719  0.3480
10962TIP3    H254378   4.724   2.229   0.592  0.1790 -0.4662 -0.5107
10963TIP3   OH254379   3.531   1.135  11.922 -0.2886 -0.5940 -0.5476
10963TIP3    H154380   3.615   1.128  11.878 -0.2829 -1.0897 -0.4648
10963TIP3    H254381   3.519   1.229  11.937 -0.2172 -0.4319 -1.4589
10964TIP3   OH254382   1.960   5.193   2.525  0.0313 -0.4561  0.3475
10964TIP3    H154383   2.033   5.147   2.568 -0.5040 -0.8518  0.8447
10964TIP3    H254384   1.882   5.161   2.569 -0.5056 -0.5484 -0.6447
10965TIP3   OH254385   6.718   1.042  16.509 -0.1607 -0.1218  0.0352
10965TIP3    H154386   6.663   0.975  16.549  1.1909  0.3553  2.8970
10965TIP3    H254387   6.771   0.993  16.446  1.2037 -1.9947  2.4499
10966TIP3   OH254388   4.993   6.430   4.133 -0.2470 -0.7428  0.5097
10966TIP3    H154389   5.051   6.356   4.148  0.9916 -0.0721 -0.7415
10966TIP3    H254390   5.038   6.483   4.068 -1.5783  0.5936  0.6194
10967TIP3   OH254391   4.549   1.170   4.963  0.6307  0.1151  0.0278
10967TIP3    H154392   4.635   1.170   4.920  0.8202  0.7024  0.3939
10967TIP3    H254393   4.487   1.178   4.892  0.7827 -2.0303 -0.3947
10968TIP3   OH254394   5.510   3.391  15.469 -0.0526  0.3401 -0.0865
10968TIP3    H154395   5.481   3.466  15.520 -1.2838  0.2888 -0.6846
10968TIP3    H254396   5.435   3.368  15.414  0.2070 -1.4514  0.2350
10969TIP3   OH254397   1.815   0.976   1.943 -0.2150  0.1679  0.6666
10969TIP3    H154398   1.908   0.955   1.948 -0.4016 -0.5933  1.1238
10969TIP3    H254399   1.775   0.896   1.908 -0.8007  0.1781  1.2960
10970TIP3   OH254400   4.952   4.564  13.521  0.2997 -0.9047  0.4021
10970TIP3    H154401   4.886   4.526  13.579 -0.7724  1.4000  0.8159
10970TIP3    H254402   5.032   4.568  13.574  0.0261 -1.1826  0.8388
10971TIP3   OH254403   0.103   1.927   5.969  0.8620 -0.0677 -0.2782
10971TIP3    H154404   0.152   1.969   6.039 -0.4476  0.4794  0.3581
10971TIP3    H254405   0.071   2.000   5.915  1.6152 -0.4670 -1.3025
10972TIP3   OH254406   4.601   5.697   2.572  0.1500  0.5487  0.5622
10972TIP3    H154407   4.517   5.706   2.617  0.4348 -1.2123  1.5337
10972TIP3    H254408   4.645   5.625   2.617  0.7307 -0.8951 -2.0989
10973TIP3   OH254409   5.357   2.880  17.137  0.4319 -0.0356  0.1284
10973TIP3    H154410   5.404   2.806  17.177 -1.6138 -1.1555  0.6481
10973TIP3    H254411   5.298   2.910  17.206 -0.4307  0.5336 -0.8289
10974TIP3   OH254412   4.452   1.819  14.818 -0.0298 -0.2218  0.4422
10974TIP3    H154413   4.546   1.823  14.834 -0.1292  4.9972  1.5037
10974TIP3    H254414   4.444   1.806  14.723  1.7867  0.5070  0.1584
10975TIP3   OH254415   4.521   6.364  16.485 -0.3627  0.0945  0.2431
10975TIP3    H154416   4.546   6.456  16.478 -0.2190 -0.0123 -0.7032
10975TIP3    H254417   4.599   6.316  16.456 -0.3711 -0.3325  0.9090
10976TIP3   OH254418   5.362   0.578   4.454 -0.1430  0.4190 -0.2623
10976TIP3    H154419   5.271   0.596   4.431 -0.9280 -0.8336  1.5838
10976TIP3    H254420   5.369   0.482   4.453  1.3649  0.4970 -1.0469
10977TIP3   OH254421   5.699   6.415   6.396  0.3369 -0.1867  0.2281
10977TIP3    H154422   5.702   6.445   6.305  1.5025  0.7418  0.5435
10977TIP3    H254423   5.707   6.320   6.390 -1.5331 -0.3247 -0.7096
10978TIP3   OH254424   6.812   2.523  14.430 -0.9946 -0.1395  0.0284
10978TIP3    H154425   6.752   2.561  14.495  1.0817  0.4231  1.7416
10978TIP3    H254426   6.880   2.589  14.419  0.4360 -1.5914 -0.2354
10979TIP3   OH254427   6.123   3.925   4.825 -0.4136 -0.1536 -0.0523
10979TIP3    H154428   6.170   3.861   4.879 -0.8020  0.1556  0.6655
10979TIP3    H254429   6.035   3.890   4.817 -0.5607  0.1673  0.1363
10980TIP3   OH254430   4.245   4.895  12.002 -0.1545  0.0798 -0.3933
10980TIP3    H154431   4.191   4.881  11.923 -1.8007 -1.2662  0.8914
10980TIP3    H254432   4.227   4.985  12.027 -2.1804 -0.4264  0.1818
10981TIP3   OH254433   5.152   0.060   5.784  0.1600 -0.1643 -0.5971
10981TIP3    H154434   5.137   0.137   5.839  0.8297 -0.9742  0.7467
10981TIP3    H254435   5.183  -0.008   5.844 -5.3576 -3.3045 -0.6166
10982TIP3   OH254436   6.334   5.926  16.502 -0.3367 -0.1607  0.0803
10982TIP3    H154437   6.260   5.890  16.454 -1.1125  0.1941  0.9959
10982TIP3    H254438   6.300   5.944  16.590  1.6787 -3.2996  1.6985
10983TIP3   OH254439   5.298   5.549   2.159 -0.0560 -0.6176 -0.8298
10983TIP3    H154440   5.376   5.582   2.203 -0.1578  0.2290 -1.2637
10983TIP3    H254441   5.302   5.586   2.071 -0.7345 -0.9074 -0.9913
10984TIP3   OH254442   2.147   0.813  13.486 -0.5085 -0.7043 -0.0915
10984TIP3    H154443   2.183   0.900  13.469 -1.4118 -0.2209  0.4086
10984TIP3    H254444   2.076   0.802  13.423  0.0210 -1.3667 -0.5977
10985TIP3   OH254445   0.567   1.529  11.557  0.4949 -0.1605 -0.1407
10985TIP3    H154446   0.486   1.573  11.533 -1.0585 -3.2239 -1.0170
10985TIP3    H254447   0.624   1.538  11.481 -0.1777 -0.4812 -0.6846
10986TIP3   OH254448   1.862   1.065  11.852 -0.0825 -0.6622 -0.1906
10986TIP3    H154449   1.887   0.982  11.891 -1.7455 -2.0579 -1.8993
10986TIP3    H254450   1.781   1.090  11.898 -0.7852 -1.1550 -1.1105
10987TIP3   OH254451   6.345   6.459   3.565  0.3891  0.0429  0.1364
10987TIP3    H154452   6.254   6.465   3.533 -0.0051  0.3612  1.2700
10987TIP3    H254453   6.336   6.426   3.654  1.5632 -2.3942 -0.5637
10988TIP3   OH254454   0.946   5.063  13.439  0.9781 -0.4712  0.1304
10988TIP3    H154455   0.970   4.974  13.464  0.6992  0.0404  2.5130
10988TIP3    H254456   0.977   5.117  13.512 -0.2276  1.1790 -0.5228
10989TIP3   OH254457   4.874   6.453  16.128 -0.3835  0.1773 -0.4834
10989TIP3    H154458   4.794   6.504  16.142  0.5247  1.4737  0.2218
10989TIP3    H254459   4.881   6.398  16.206 -1.6001 -1.4046 -1.4479
10990TIP3   OH254460   0.319   6.591   1.038  0.4812 -0.1998  0.7939
10990TIP3    H154461   0.303   6.502   1.009  1.1028  0.3317 -1.3183
10990TIP3    H254462   0.410   6.609   1.014 -0.5594  2.1089 -2.1658
10991TIP3   OH254463   5.640   0.301   1.607 -0.4745 -0.4891  0.4607
10991TIP3    H154464   5.582   0.354   1.551  0.5557  2.1017  1.6686
10991TIP3    H254465   5.691   0.249   1.546 -0.3196  1.2471 -0.9713
10992TIP3   OH254466   1.197   0.645   2.089 -0.2595 -0.0717 -0.3724
10992TIP3    H154467   1.234   0.572   2.137 -0.2533 -1.5505 -2.5223
10992TIP3    H254468   1.102   0.630   2.091 -0.1924 -0.8259 -1.7990
10993TIP3   OH254469   3.887   3.894  14.046 -0.3140  0.4038  0.8422
10993TIP3    H154470   3.807   3.888  13.994 -0.3418 -0.2297  0.9495
10993TIP3    H254471   3.948   3.833  14.004  0.2629  1.1891  0.5122
10994TIP3   OH254472   5.624   1.686   0.618  0.3346  0.2676  0.0754
10994TIP3    H154473   5.550   1.738   0.586 -0.5630 -1.2343 -0.3851
10994TIP3    H254474   5.597   1.658   0.705 -0.0645 -0.9982 -0.4239
10995TIP3   OH254475   2.149   3.595   3.143 -0.1530 -0.3502 -0.0035
10995TIP3    H154476   2.154   3.514   3.092 -0.6705 -1.0557  1.0307
10995TIP3    H254477   2.076   3.581   3.203 -0.5654  1.0875 -0.1282
10996TIP3   OH254478   5.181   6.098  12.007  0.2634 -0.1849 -0.1589
10996TIP3    H154479   5.086   6.088  12.009  0.3629 -1.1411  1.0490
10996TIP3    H254480   5.196   6.192  11.998 -0.7865 -0.0501 -0.6476
10997TIP3   OH254481   6.103   6.398   5.150  0.3257  0.4442  0.1003
10997TIP3    H154482   6.084   6.316   5.196 -0.8595  0.2077 -0.7476
10997TIP3    H254483   6.186   6.382   5.106  0.1937 -0.2465  0.0896
10998TIP3   OH254484   5.170   0.219  15.199 -0.4411 -1.1086  0.1324
10998TIP3    H154485   5.181   0.243  15.291  1.7979 -0.8109 -0.1380
10998TIP3    H254486   5.085   0.177  15.195 -1.9245  1.4324  1.7904
10999TIP3   OH254487   2.730   6.350  14.895 -0.1203  0.1816  0.4015
10999TIP3    H154488   2.641   6.326  14.868  0.3184 -0.1962 -0.7925
10999TIP3    H254489   2.762   6.274  14.944 -0.9405  0.8874  2.1126
11000TIP3   OH254490   3.378   3.313   5.700 -0.0677 -0.2068 -0.8084
11000TIP3    H154491   3.387   3.218   5.710  1.0008 -0.0037  0.4185
11000TIP3    H254492   3.465   3.348   5.719 -1.0141  1.1996  1.3889
11001TIP3   OH254493   6.211   6.067   2.880  0.2868 -0.2949 -0.2445
11001TIP3    H154494   6.244   6.092   2.794 -0.9550  3.7901  0.2559
11001TIP3    H254495   6.116   6.061   2.867  0.1393 -0.1373  0.7332
11002TIP3   OH254496   4.045   1.604  14.325 -0.5718  0.0542 -0.3200
11002TIP3    H154497   3.995   1.523  14.326 -2.2730  1.0542 -0.5625
11002TIP3    H254498   4.106   1.594  14.252 -0.2833 -1.2506  0.0754
11003TIP3   OH254499   5.442   1.322   3.344  0.0118  0.1681  0.3567
11003TIP3    H154500   5.516   1.264   3.361  1.6565  2.0514  0.0125
11003TIP3    H254501   5.465   1.403   3.390 -1.6642  0.9273 -0.0822
11004TIP3   OH254502   2.686   4.280   4.456  0.3106 -0.7363  0.1091
11004TIP3    H154503   2.591   4.274   4.445 -0.2585  1.5670  2.6618
11004TIP3    H254504   2.706   4.218   4.526  0.4412 -0.2028  0.5495
11005TIP3   OH254505   0.752   2.252   2.473 -0.2054  0.0266 -0.3761
11005TIP3    H154506   0.719   2.249   2.563 -0.0345  4.4510  0.0720
11005TIP3    H254507   0.673   2.262   2.419 -0.1678  0.5805 -0.3385
11006TIP3   OH254508   1.265   0.145   1.351 -0.3401 -0.6589  0.3200
11006TIP3    H154509   1.350   0.129   1.309 -0.8344  1.9089 -2.0062
11006TIP3    H254510   1.273   0.106   1.437  4.0013  1.1176  0.9976
11007TIP3   OH254511   2.522   4.105  14.738 -0.2914 -0.0856  0.5255
11007TIP3    H154512   2.566   4.026  14.706 -1.5279 -0.5509 -0.0670
11007TIP3    H254513   2.585   4.143  14.800  0.8322 -0.8651 -0.0886
11008TIP3   OH254514   2.452   3.727   5.470  0.3124 -0.1055  0.4888
11008TIP3    H154515   2.432   3.656   5.409  1.8032 -1.4543  1.4714
11008TIP3    H254516   2.414   3.698   5.553  0.3927  0.5401  0.7530
11009TIP3   OH254517   3.866   5.799  10.431  0.5220  0.3578  0.8123
11009TIP3    H154518   3.836   5.882  10.470  0.3843  1.3501 -1.2362
11009TIP3    H254519   3.808   5.733  10.469 -1.8306  1.7222 -0.1791
11010TIP3   OH254520   0.012   2.839   2.179  0.1319 -0.2342  0.0452
11010TIP3    H154521  -0.053   2.778   2.214  1.0405 -1.6729 -0.6898
11010TIP3    H254522   0.065   2.863   2.255 -0.3505 -0.2054  0.3776
11011TIP3   OH254523   5.465   4.605  12.411 -0.2340 -0.3917  0.3433
11011TIP3    H154524   5.442   4.622  12.319  0.2150 -0.3143  0.2421
11011TIP3    H254525   5.390   4.558  12.446 -1.0705  0.9069  0.3483
11012TIP3   OH254526   4.906   2.824   4.790 -0.3688  0.8292 -0.0197
11012TIP3    H154527   4.879   2.769   4.717 -1.1126 -0.6276  1.2899
11012TIP3    H254528   4.882   2.774   4.868  1.9948  1.5241  1.2438
11013TIP3   OH254529   5.258   3.591   5.766  0.2545 -0.2353 -0.1499
11013TIP3    H154530   5.232   3.505   5.800  0.6186 -0.5559 -0.6692
11013TIP3    H254531   5.179   3.644   5.773  0.0534 -0.5799  0.2712
11014TIP3   OH254532   2.193   0.354   5.374  0.1463 -0.0395 -0.4436
11014TIP3    H154533   2.240   0.271   5.382  2.0424  1.1232  2.0195
11014TIP3    H254534   2.103   0.333   5.398  1.0795 -1.0448  2.5834
11015TIP3   OH254535   2.517   4.226  15.164  0.3741  0.0746 -0.3328
11015TIP3    H154536   2.495   4.170  15.090 -0.8119 -0.6492  0.5106
11015TIP3    H254537   2.463   4.192  15.236  1.7014  0.5560  0.9389
11016TIP3   OH254538   2.921   2.963   1.520 -0.1340  0.4271 -0.4444
11016TIP3    H154539   2.951   3.021   1.450 -1.3031 -0.7854 -2.0452
11016TIP3    H254540   2.837   2.930   1.489 -0.0220 -1.2698  0.8980
11017TIP3   OH254541   0.181   2.567  13.415  0.4525 -0.4103  0.4206
11017TIP3    H154542   0.110   2.608  13.465 -0.6639 -1.8699  0.1044
11017TIP3    H254543   0.216   2.637  13.361 -0.3586  0.4820  1.0258
11018TIP3   OH254544   2.768   5.910   0.211 -0.6485  0.8422 -0.2905
11018TIP3    H154545   2.727   5.929   0.295 -0.1402  0.3290  0.0783
11018TIP3    H254546   2.835   5.844   0.231 -1.1239  0.0392 -1.2259
11019TIP3   OH254547   3.834   1.102   3.356  0.4893 -0.2554  0.7336
11019TIP3    H154548   3.757   1.102   3.299  0.8690 -1.3888  0.2034
11019TIP3    H254549   3.800   1.079   3.443  0.0741  0.3599  0.7399
11020TIP3   OH254550   5.013   3.781   6.369  0.1442 -0.0553  0.6091
11020TIP3    H154551   4.987   3.730   6.446  3.7364 -0.7981  1.4763
11020TIP3    H254552   5.079   3.727   6.325  1.4388  2.2653 -0.4898
11021TIP3   OH254553   1.773   3.163   3.565  0.2287  0.9342 -0.1435
11021TIP3    H154554   1.797   3.101   3.634  0.6310  1.4367  0.1716
11021TIP3    H254555   1.853   3.211   3.547 -0.0864  1.3775 -0.3735
11022TIP3   OH254556   0.044   5.384  13.689  0.2218  0.0375 -0.0449
11022TIP3    H154557  -0.028   5.341  13.643  0.1340 -1.8110  1.7018
11022TIP3    H254558   0.121   5.330  13.669  0.0849 -1.1565  2.2752
11023TIP3   OH254559   3.004   4.890   4.242 -0.3144 -0.2280 -0.0334
11023TIP3    H154560   3.026   4.915   4.152  1.0751  0.1591  0.3828
11023TIP3    H254561   2.915   4.856   4.237  0.1490 -1.2921 -1.7466
11024TIP3   OH254562   2.837   1.189  12.279  0.3154 -0.8152 -0.3014
11024TIP3    H154563   2.920   1.165  12.237  0.2918 -0.1961 -0.7209
11024TIP3    H254564   2.847   1.282  12.299  0.1730 -1.0114  0.7255
11025TIP3   OH254565   3.105   2.097   6.960 -0.5182 -0.1501 -0.9461
11025TIP3    H154566   3.159   2.021   6.941 -0.3122 -0.1918 -0.2310
11025TIP3    H254567   3.078   2.130   6.874 -1.4365 -1.6104 -1.2465
11026TIP3   OH254568   1.921   2.482   4.784 -0.4749 -0.2565  0.4974
11026TIP3    H154569   1.872   2.501   4.704 -0.8709 -0.6275  0.6475
11026TIP3    H254570   2.008   2.519   4.768 -0.9625  0.9295  0.4602
11027TIP3   OH254571   2.906   3.398  13.469 -0.2216 -1.0695 -0.6384
11027TIP3    H154572   2.854   3.473  13.496  1.6457 -1.1172  3.8046
11027TIP3    H254573   2.841   3.334  13.438 -2.3015  0.5629  0.1392
11028TIP3   OH254574   5.761   2.326  12.691  0.5488  0.2624 -0.5652
11028TIP3    H154575   5.726   2.406  12.653  1.6603 -0.1375 -2.5824
11028TIP3    H254576   5.755   2.261  12.621 -0.0600 -1.3772  0.9289
11029TIP3   OH254577   0.800   3.883  16.470 -0.3506 -0.2994  0.2401
11029TIP3    H154578   0.791   3.935  16.549 -0.8949 -2.7013  1.8704
11029TIP3    H254579   0.763   3.797  16.493  1.1804 -1.6829 -2.0071
11030TIP3   OH254580   0.586   5.950  15.852 -0.3595 -0.2038  0.3400
11030TIP3    H154581   0.665   5.908  15.819 -0.8690 -0.8659 -0.0499
11030TIP3    H254582   0.585   6.036  15.810  0.2187 -0.1402  0.4496
11031TIP3   OH254583   0.774   5.228   6.406  0.4000 -0.1275 -0.1092
11031TIP3    H154584   0.804   5.250   6.494  0.9074  0.8942 -0.5246
11031TIP3    H254585   0.811   5.296   6.350  1.1472 -1.4604 -1.3066
11032TIP3   OH254586   1.347   5.286  15.779  0.0907  0.0922  0.2582
11032TIP3    H154587   1.420   5.225  15.788  0.5971  0.7979  1.1606
11032TIP3    H254588   1.288   5.245  15.716  0.4755 -1.2595  0.7603
11033TIP3   OH254589   0.615   0.920   0.689  1.0864 -0.3670 -0.2737
11033TIP3    H154590   0.569   0.863   0.627  1.4807  0.2873 -1.1976
11033TIP3    H254591   0.632   0.864   0.765  1.4424 -1.4709 -1.1377
11034TIP3   OH254592   4.555   6.381  12.352  0.1143 -0.6289  0.2289
11034TIP3    H154593   4.564   6.445  12.281 -2.6004 -0.9578 -0.5242
11034TIP3    H254594   4.573   6.432  12.432 -2.7994  1.4541 -0.2604
11035TIP3   OH254595   5.544   6.110   4.534 -0.6036 -0.3518  0.5508
11035TIP3    H154596   5.532   6.155   4.450 -0.7375 -0.7317  0.3630
11035TIP3    H254597   5.488   6.033   4.528 -0.3400 -0.5689  0.8531
11036TIP3   OH254598   4.475   1.405  15.197 -0.2584  0.4310  0.6831
11036TIP3    H154599   4.443   1.410  15.107 -0.8997  0.7519  0.9284
11036TIP3    H254600   4.396   1.406  15.251  0.1439  0.7074  1.2720
11037TIP3   OH254601   2.114   0.046   3.751 -0.0128  0.0160  0.4559
11037TIP3    H154602   2.191   0.102   3.761 -0.1499  0.3103 -0.0888
11037TIP3    H254603   2.137  -0.014   3.681 -0.5997  0.6746 -0.3198
11038TIP3   OH254604   1.189   1.051  12.211  0.3137  0.0717  0.3175
11038TIP3    H154605   1.264   1.109  12.215  0.8277 -0.6313  1.2614
11038TIP3    H254606   1.224   0.970  12.173 -0.5760  0.6192 -1.8161
11039TIP3   OH254607   6.753   6.503   2.536 -0.5431 -0.0034 -0.1300
11039TIP3    H154608   6.774   6.478   2.626 -0.9303 -2.4475 -0.6528
11039TIP3    H254609   6.677   6.449   2.513 -0.8972  1.0790 -1.7040
11040TIP3   OH254610   5.597   1.160   0.492  0.1120  0.0177 -0.1276
11040TIP3    H154611   5.594   1.072   0.528 -3.0287  0.3197  0.6531
11040TIP3    H254612   5.684   1.167   0.452  0.4965 -3.3728 -0.1775
11041TIP3   OH254613   2.725   1.902  15.040 -0.2253  1.0280 -0.2763
11041TIP3    H154614   2.673   1.832  15.001  0.9698  1.1999 -2.3054
11041TIP3    H254615   2.734   1.877  15.132  1.5098 -2.3688 -1.2443
11042TIP3   OH254616   0.400   2.516   1.511 -0.7889  0.1725  0.3486
11042TIP3    H154617   0.319   2.523   1.461 -1.2296 -1.0704  0.8269
11042TIP3    H254618   0.449   2.445   1.468  0.0228  0.8757  0.0935
11043TIP3   OH254619   3.722   0.923  14.407  0.1574 -0.4288  0.6361
11043TIP3    H154620   3.760   0.975  14.479 -1.2607 -0.2842  1.3265
11043TIP3    H254621   3.669   0.986  14.358 -1.1098 -1.0607  1.1337
11044TIP3   OH254622   1.185   2.416  12.824 -0.5090  0.0723  0.0333
11044TIP3    H154623   1.233   2.437  12.904 -0.0220  1.2450 -0.5407
11044TIP3    H254624   1.232   2.342  12.787  0.4733  0.7695 -0.1627
11045TIP3   OH254625   2.244   6.819  15.873  0.3503  0.2406  0.1564
11045TIP3    H154626   2.235   6.725  15.862  0.2724  0.2459  0.1721
11045TIP3    H254627   2.312   6.830  15.939  0.6514  0.2022 -0.1467
11046TIP3   OH254628   6.217   3.636  11.000  0.2219 -0.1544  0.0837
11046TIP3    H154629   6.245   3.564  10.943  0.6965 -0.8114  1.1170
11046TIP3    H254630   6.130   3.610  11.030  1.4542 -1.7666  2.6822
11047TIP3   OH254631   0.769   4.477  15.243  0.8103 -0.2648 -0.2684
11047TIP3    H154632   0.687   4.478  15.293 -0.6664 -0.3447 -2.5725
11047TIP3    H254633   0.838   4.478  15.310 -1.0494  0.2531  1.7329
11048TIP3   OH254634   3.989   4.314  16.068  0.2669  0.2505  0.2274
11048TIP3    H154635   4.023   4.226  16.054 -0.6853 -0.1054  0.0359
11048TIP3    H254636   3.944   4.309  16.153  0.4024  0.6140  0.3238
11049TIP3   OH254637   1.064   4.394  14.772 -0.0678  0.8561  0.0434
11049TIP3    H154638   1.075   4.482  14.736  3.2719  1.2252  1.6410
11049TIP3    H254639   1.153   4.360  14.782 -1.2105 -2.5381 -0.0035
11050TIP3   OH254640   0.504   0.728  11.591  0.7740 -0.2690  0.0761
11050TIP3    H154641   0.595   0.759  11.586  0.1822  1.5202 -0.6685
11050TIP3    H254642   0.455   0.792  11.540 -0.9517 -1.0502  0.6905
11051TIP3   OH254643   6.762   0.751  13.725 -0.1512 -0.2657  0.2894
11051TIP3    H154644   6.853   0.769  13.698  0.2797 -0.9593  1.2315
11051TIP3    H254645   6.736   0.677  13.670 -0.4557  0.4723 -0.5839
11052TIP3   OH254646   2.304   2.169  12.588 -0.3714  0.3224 -0.2268
11052TIP3    H154647   2.273   2.249  12.547 -0.2624  0.2262 -0.5015
11052TIP3    H254648   2.363   2.130  12.523 -0.3909  0.0435 -0.0807
11053TIP3   OH254649   4.315   3.712   1.208 -0.3215  0.5420 -0.4016
11053TIP3    H154650   4.250   3.677   1.147  0.4711 -1.7901  0.0038
11053TIP3    H254651   4.275   3.701   1.294 -0.4116  1.5164 -0.3052
11054TIP3   OH254652   1.365   1.274   0.847 -0.1609 -0.9062  0.2691
11054TIP3    H154653   1.407   1.214   0.909  0.6423 -0.1923  0.4386
11054TIP3    H254654   1.347   1.352   0.898 -0.4357 -0.6906 -0.1535
11055TIP3   OH254655   5.921   3.939   6.045 -0.5736 -0.2954  0.3020
11055TIP3    H154656   5.983   3.897   6.104  1.3543  2.4890  0.4649
11055TIP3    H254657   5.964   4.021   6.018 -3.5506  1.0796 -0.8186
11056TIP3   OH254658   5.564   0.619  16.790  0.0704  0.6309 -0.2416
11056TIP3    H154659   5.548   0.705  16.751  0.6508  0.0360 -1.9056
11056TIP3    H254660   5.628   0.578  16.732 -0.0590 -0.8562  0.6147
11057TIP3   OH254661   5.168   3.595   5.115  0.7656  0.4039 -0.5900
11057TIP3    H154662   5.223   3.525   5.151  0.0269 -1.6014 -3.0724
11057TIP3    H254663   5.094   3.600   5.175  0.2896 -1.7864 -0.9089
11058TIP3   OH254664   3.539   2.749   1.273  1.2537  0.5244  0.7454
11058TIP3    H154665   3.522   2.758   1.179 -0.6336  2.4338  1.1902
11058TIP3    H254666   3.599   2.821   1.294  1.3747  0.3306  1.0877
11059TIP3   OH254667   2.886   4.660  13.210  0.7583  0.1870 -0.2038
11059TIP3    H154668   2.909   4.570  13.189 -0.0522 -0.2462  0.7177
11059TIP3    H254669   2.909   4.671  13.302  0.2746  0.7266 -0.1379
11060TIP3   OH254670   5.616   5.854  11.856  0.0867  0.0960 -0.5498
11060TIP3    H154671   5.543   5.915  11.868  0.8247  0.7968  0.5760
11060TIP3    H254672   5.694   5.904  11.881  0.8676 -0.9023 -0.8997
11061TIP3   OH254673   1.168   5.296   1.657 -0.0148 -0.2188 -0.1954
11061TIP3    H154674   1.121   5.317   1.576  0.0862  0.4148 -0.0945
11061TIP3    H254675   1.222   5.220   1.634  0.8334  0.6106 -1.0505
11062TIP3   OH254676   1.792   5.244   3.850  0.1658  0.1844  0.1238
11062TIP3    H154677   1.760   5.160   3.817  0.4986 -0.5745  1.6243
11062TIP3    H254678   1.887   5.238   3.843  0.1569  1.4807 -2.0880
11063TIP3   OH254679   3.340   2.828  12.771 -0.0651  0.1030 -0.5727
11063TIP3    H154680   3.297   2.790  12.693 -0.7205 -0.1899 -0.0780
11063TIP3    H254681   3.381   2.908  12.739 -2.2285  1.1796 -0.7764
11064TIP3   OH254682   0.803   5.249  15.160 -0.5416  0.4748  0.0926
11064TIP3    H154683   0.833   5.158  15.171 -0.0249  0.6284 -0.0034
11064TIP3    H254684   0.782   5.278  15.249 -2.8972 -0.4534 -0.0943
11065TIP3   OH254685   0.936   2.853   0.100  0.4230 -0.0611  0.6613
11065TIP3    H154686   0.912   2.943   0.080  0.2438 -0.2355  0.0713
11065TIP3    H254687   1.025   2.843   0.066  0.1823 -0.3068  0.0887
11066TIP3   OH254688   5.547   2.403  12.851 -0.2798 -0.5706  0.0061
11066TIP3    H154689   5.630   2.373  12.815 -0.0193 -1.9856  1.6372
11066TIP3    H254690   5.506   2.453  12.780  0.8108 -1.9960 -1.6975
11067TIP3   OH254691   1.991   5.014   6.145 -0.3979 -0.3029 -0.1274
11067TIP3    H154692   2.034   4.962   6.077  1.9328  0.8960  0.3340
11067TIP3    H254693   1.967   4.949   6.212  0.4201 -1.0639 -0.5471
11068TIP3   OH254694   1.219   0.173  11.076  0.1912  0.1555  0.7070
11068TIP3    H154695   1.235   0.118  11.000 -0.2115  0.0406  0.7048
11068TIP3    H254696   1.189   0.256  11.039 -0.5561 -0.0854  0.7522
11069TIP3   OH254697   5.547   2.528  13.817  0.0007  0.5593  0.0685
11069TIP3    H154698   5.610   2.475  13.768 -0.5172  0.4732 -0.5145
11069TIP3    H254699   5.493   2.463  13.863 -1.6357  0.4709 -1.8656
11070TIP3   OH254700   2.801   6.661  14.414  0.4745 -0.2430 -0.0147
11070TIP3    H154701   2.847   6.680  14.495  0.2901  1.3106 -0.2363
11070TIP3    H254702   2.747   6.585  14.434  3.0699 -2.1551  0.2605
11071TIP3   OH254703   1.607   2.084   0.767  0.1531 -0.7337  0.3717
11071TIP3    H154704   1.626   2.032   0.844  2.5131 -1.3505 -0.5439
11071TIP3    H254705   1.600   2.021   0.696 -2.2749 -0.2055  0.0307
11072TIP3   OH254706   5.285   1.613  14.527 -0.4025 -0.5042 -0.4933
11072TIP3    H154707   5.318   1.539  14.475  0.6504 -0.6027  0.2997
11072TIP3    H254708   5.348   1.683  14.511 -1.6864  0.4560 -1.6836
11073TIP3   OH254709   4.602   4.159  12.484 -0.1626 -0.2030 -0.6301
11073TIP3    H154710   4.689   4.127  12.461  0.1961  0.3417 -0.0563
11073TIP3    H254711   4.542   4.096  12.444  0.5027 -0.7848 -0.7278
11074TIP3   OH254712   1.795   2.231   3.065  0.5009  0.5232 -0.2018
11074TIP3    H154713   1.783   2.157   3.124  1.3005  0.4390 -0.1375
11074TIP3    H254714   1.839   2.195   2.988  0.5216  0.8557 -0.3521
11075TIP3   OH254715   2.634   4.055  11.644  0.2701 -0.2228  0.2045
11075TIP3    H154716   2.664   4.119  11.580  2.2688 -0.5144  0.7982
11075TIP3    H254717   2.667   4.087  11.728 -0.8484 -0.7401  0.8707
11076TIP3   OH254718   1.143   0.256   1.809 -0.3049 -0.1138 -0.1687
11076TIP3    H154719   1.173   0.241   1.899  1.1050  1.3245 -0.3601
11076TIP3    H254720   1.069   0.196   1.799  2.7286 -4.3354  0.1847
11077TIP3   OH254721   5.004   4.617   3.540  0.5187  0.2797  0.1743
11077TIP3    H154722   5.055   4.538   3.559  0.5431  0.3459  0.3931
11077TIP3    H254723   4.991   4.616   3.445  0.7140  0.1316  0.1493
11078TIP3   OH254724   0.068   3.649  15.721 -0.0542  0.1803 -0.5163
11078TIP3    H154725   0.076   3.723  15.781 -0.4092  0.4184 -0.7581
11078TIP3    H254726   0.109   3.678  15.640  0.0944 -0.0064 -0.5097
11079TIP3   OH254727   4.319   4.780   3.128 -0.2056 -0.0331  0.6088
11079TIP3    H154728   4.276   4.775   3.042  0.2622  0.1553  0.3634
11079TIP3    H254729   4.376   4.703   3.131 -1.0234 -0.6346  1.1973
11080TIP3   OH254730   6.441   4.345  15.816  0.1763 -0.5766 -0.7595
11080TIP3    H154731   6.436   4.440  15.824 -0.4278 -0.6836  0.3713
11080TIP3    H254732   6.531   4.328  15.787  0.3565  0.3268 -0.7606
11081TIP3   OH254733   6.389   5.662  12.538  0.0498 -0.2798 -0.6324
11081TIP3    H154734   6.298   5.635  12.524 -0.1097  1.5171 -4.3375
11081TIP3    H254735   6.387   5.757  12.526  2.2836 -0.0470  0.3821
11082TIP3   OH254736   3.806   5.790   6.170 -0.3571  0.3921  0.0242
11082TIP3    H154737   3.845   5.876   6.188  1.7236 -0.5571  0.3439
11082TIP3    H254738   3.825   5.738   6.248 -1.8760 -0.2863 -0.0291
11083TIP3   OH254739   3.755   2.348  11.218  0.2778 -0.4568 -0.0667
11083TIP3    H154740   3.690   2.336  11.149  1.4973 -2.4927 -0.9686
11083TIP3    H254741   3.747   2.440  11.244 -1.2355 -0.0276 -1.8572
11084TIP3   OH254742   1.534   5.179  15.538  0.2095 -0.4492 -0.0208
11084TIP3    H154743   1.447   5.140  15.535  0.2670 -0.5212 -1.1204
11084TIP3    H254744   1.534   5.244  15.468  0.2859  1.2144  1.4545
11085TIP3   OH254745   5.737   4.470   6.356  0.4847 -0.1095  0.5800
11085TIP3    H154746   5.766   4.436   6.441  0.3154  1.2867  1.2257
11085TIP3    H254747   5.811   4.523   6.325  0.4498 -0.4130 -0.0370
11086TIP3   OH254748   3.163   1.044  13.887  0.5927 -0.6378  0.7623
11086TIP3    H154749   3.171   1.039  13.982 -1.0211 -0.3528  0.9291
11086TIP3    H254750   3.184   0.956  13.856 -0.9951 -1.3330  1.5638
11087TIP3   OH254751   5.379   4.887  12.917 -0.0456 -0.1719 -0.2362
11087TIP3    H154752   5.382   4.795  12.944  1.5895 -0.3532 -0.8818
11087TIP3    H254753   5.302   4.893  12.861 -2.0069 -0.3770  2.2432
11088TIP3   OH254754   4.059   6.766  12.843 -0.2740  0.6860 -0.9946
11088TIP3    H154755   3.973   6.802  12.826 -1.2820 -0.2880  1.4602
11088TIP3    H254756   4.053   6.732  12.933  2.1927 -0.7590 -1.2780
11089TIP3   OH254757   2.902   4.459  14.451  0.6404  0.5995 -0.3808
11089TIP3    H154758   2.909   4.547  14.490  0.0088  0.4428  0.1192
11089TIP3    H254759   2.808   4.446  14.440  0.6089 -0.6176  0.9900
11090TIP3   OH254760   0.718   3.525   1.777  0.5041  0.1257 -0.0843
11090TIP3    H154761   0.800   3.539   1.824  1.7139  0.5172 -2.1874
11090TIP3    H254762   0.700   3.609   1.734 -1.9366  0.5848  1.6174
11091TIP3   OH254763   1.239   1.794   3.685 -0.0161  0.8319  0.6309
11091TIP3    H154764   1.232   1.805   3.780 -0.8111  0.5358  0.6215
11091TIP3    H254765   1.233   1.699   3.672  3.3489  0.5303  0.4931
11092TIP3   OH254766   0.835   6.493   0.061 -0.0763 -0.2207  0.1571
11092TIP3    H154767   0.748   6.531   0.075 -0.1561  0.0475 -0.9485
11092TIP3    H254768   0.847   6.495  -0.034  1.6435  0.8746  0.3613
11093TIP3   OH254769   4.322   2.794  13.932 -0.5248 -0.3332 -0.2035
11093TIP3    H154770   4.281   2.727  13.878  1.7789 -2.8087  0.8921
11093TIP3    H254771   4.368   2.850  13.870 -0.7284 -1.0488 -1.0128
11094TIP3   OH254772   5.163   0.616  16.341 -0.2259  0.5108 -0.2350
11094TIP3    H154773   5.163   0.711  16.329  2.3461  0.4530 -1.3363
11094TIP3    H254774   5.116   0.603  16.423 -0.5234  2.7519  0.0253
11095TIP3   OH254775   0.152   5.171   5.120  0.5458  0.7369  0.2389
11095TIP3    H154776   0.158   5.082   5.084 -1.0251  0.6893  0.0207
11095TIP3    H254777   0.090   5.163   5.192 -0.6440  1.8815 -0.6160
11096TIP3   OH254778   0.458   2.569   6.031 -0.3444  0.1383 -0.1583
11096TIP3    H154779   0.420   2.623   5.962 -0.1768 -0.9298 -1.1126
11096TIP3    H254780   0.390   2.564   6.098  0.4333  3.4012  1.0730
11097TIP3   OH254781   6.002   2.180   1.738  0.3424  0.6600  0.2760
11097TIP3    H154782   5.928   2.193   1.797  0.2197 -0.1500  0.3059
11097TIP3    H254783   5.996   2.089   1.710  1.3332  0.5762  0.2832
11098TIP3   OH254784   1.723   2.104  14.118  0.7987  0.3299 -0.6125
11098TIP3    H154785   1.715   2.040  14.048  2.7309 -1.5680  0.7787
11098TIP3    H254786   1.739   2.187  14.072 -0.1954 -0.4199 -2.4195
11099TIP3   OH254787   2.294   1.880   5.635 -1.0347  0.5817 -0.2730
11099TIP3    H154788   2.216   1.932   5.651 -1.6480 -0.1112 -0.9660
11099TIP3    H254789   2.316   1.842   5.720 -2.0805 -0.0791 -0.2890
11100TIP3   OH254790   4.452   6.802   2.854  0.5988  0.0994  0.1244
11100TIP3    H154791   4.472   6.722   2.902 -0.5443  0.6104  1.5267
11100TIP3    H254792   4.536   6.831   2.819  1.2387 -1.0196  0.6873
11101TIP3   OH254793   4.607   6.536   5.882  0.0901 -0.4718  0.5144
11101TIP3    H154794   4.606   6.502   5.971 -1.7893  1.1177  1.1506
11101TIP3    H254795   4.669   6.609   5.884  0.3638 -0.6988  0.4015
11102TIP3   OH254796   6.115   1.848   5.676  0.3169 -0.1206 -0.2388
11102TIP3    H154797   6.169   1.896   5.738  0.1007 -0.1486 -0.0281
11102TIP3    H254798   6.037   1.823   5.726 -0.2338  0.5519 -0.7362
11103TIP3   OH254799   4.636   2.288  11.506  0.0223  0.4143  0.3627
11103TIP3    H154800   4.659   2.381  11.507 -0.3518  0.6116 -2.0943
11103TIP3    H254801   4.544   2.287  11.481  0.5364 -0.5953 -1.7381
11104TIP3   OH254802   5.532   0.635   2.153  0.2903  0.0571 -0.7716
11104TIP3    H154803   5.536   0.561   2.214  2.8280  0.5506 -0.1975
11104TIP3    H254804   5.476   0.700   2.197  0.9352 -0.1564  0.4144
11105TIP3   OH254805   5.882   3.558  16.646 -0.3253  0.2272 -0.2639
11105TIP3    H154806   5.870   3.549  16.741 -1.0394 -1.6183 -0.4814
11105TIP3    H254807   5.859   3.649  16.627  0.4681  0.8256  1.3959
11106TIP3   OH254808   5.282   4.438  16.463 -0.3703  0.4999 -0.1851
11106TIP3    H154809   5.290   4.512  16.402 -0.4140  0.0501 -0.7422
11106TIP3    H254810   5.246   4.367  16.410 -1.2664  0.3641  0.5805
11107TIP3   OH254811   5.421   6.261   2.439  0.2789 -0.5095  0.2521
11107TIP3    H154812   5.473   6.319   2.383 -0.5656 -0.8456 -0.9300
11107TIP3    H254813   5.484   6.199   2.474  1.0000  0.3681  0.5500
11108TIP3   OH254814   3.384   0.384   5.909  0.4200 -0.1489  0.0324
11108TIP3    H154815   3.325   0.339   5.970  1.5678  1.0336  2.1543
11108TIP3    H254816   3.416   0.315   5.851 -1.7727 -1.0890 -0.1658
11109TIP3   OH254817   5.233   5.322  13.578  0.1770 -0.1850 -0.1034
11109TIP3    H154818   5.145   5.354  13.561  0.0708 -1.0486 -1.3463
11109TIP3    H254819   5.252   5.349  13.668 -2.0111 -1.4472  0.8130
11110TIP3   OH254820   3.718   1.041  13.338 -0.0084  0.1678  0.2457
11110TIP3    H154821   3.635   1.086  13.318 -0.7246 -1.1856  0.0408
11110TIP3    H254822   3.709   1.015  13.429  0.6906  0.9952  0.5651
11111TIP3   OH254823   2.385   0.104   3.759  0.4206  0.7556 -0.6891
11111TIP3    H154824   2.430   0.046   3.821 -2.2106 -1.7262 -0.8550
11111TIP3    H254825   2.422   0.190   3.775  1.3458 -0.1297  2.8973
11112TIP3   OH254826   6.816   1.229  14.176 -0.4144 -0.0198  0.2365
11112TIP3    H154827   6.740   1.278  14.146 -0.2557  1.4807  2.1049
11112TIP3    H254828   6.890   1.288  14.160 -0.2409  0.5177  2.7125
11113TIP3   OH254829   1.847   3.330   2.966 -0.1783 -0.0913 -0.6017
11113TIP3    H154830   1.846   3.312   3.060 -1.2091  1.5300 -0.2658
11113TIP3    H254831   1.858   3.425   2.960 -2.1032  0.0941 -2.0540
11114TIP3   OH254832   1.920   6.136   0.076 -0.4261 -0.0194 -0.2348
11114TIP3    H154833   1.939   6.144  -0.018 -0.6534 -0.6818 -0.3474
11114TIP3    H254834   2.004   6.112   0.115 -0.2774  0.5003 -0.2339
11115TIP3   OH254835   3.014   1.951  13.846 -0.7813 -0.5224  0.1968
11115TIP3    H154836   2.962   2.014  13.896  1.1702  0.3765  1.2090
11115TIP3    H254837   3.040   1.885  13.910  0.0971 -0.4325 -0.0505
11116TIP3   OH254838   1.692   5.755   2.849 -0.0034  0.1927 -0.1949
11116TIP3    H154839   1.671   5.844   2.878 -0.4012  0.0692 -0.0901
11116TIP3    H254840   1.722   5.765   2.758  1.7069  0.6396  0.3790
11117TIP3   OH254841   1.767   1.313  16.878 -0.4719  0.3297 -0.0004
11117TIP3    H154842   1.706   1.271  16.938 -0.4025  1.3526  0.8310
11117TIP3    H254843   1.729   1.301  16.791 -0.5240 -1.2685  0.2202
11118TIP3   OH254844   1.050   1.205  11.740 -0.1321  0.3244 -0.6279
11118TIP3    H154845   1.141   1.215  11.770 -0.9109  1.6280  1.5725
11118TIP3    H254846   1.016   1.133  11.793 -0.4895  0.0635 -1.2062
11119TIP3   OH254847   0.200   4.372  13.741 -0.3761  0.2307 -0.2385
11119TIP3    H154848   0.244   4.389  13.824 -1.4361  0.7600  0.2257
11119TIP3    H254849   0.198   4.457  13.697  0.1261 -0.0343 -0.7947
11120TIP3   OH254850   2.653   6.242  11.100 -0.2722  0.3540  0.4868
11120TIP3    H154851   2.743   6.275  11.096 -0.4230  0.7019 -0.4159
11120TIP3    H254852   2.620   6.252  11.011 -0.3891 -2.1352  0.1758
11121TIP3   OH254853   2.835   3.706  11.678 -0.3087 -0.3597  0.5918
11121TIP3    H154854   2.901   3.775  11.670 -1.2035  0.4863  0.3284
11121TIP3    H254855   2.885   3.624  11.670  0.8811  0.2231  1.6884
11122TIP3   OH254856   6.314   2.543   5.412  0.1316  0.0390  0.2862
11122TIP3    H154857   6.255   2.475   5.445 -1.2383  1.4834  0.9714
11122TIP3    H254858   6.255   2.605   5.368  1.4866  0.1371 -1.5085
11123TIP3   OH254859   2.351   1.687  11.350  0.7447  0.0087  0.7059
11123TIP3    H154860   2.311   1.677  11.263  2.3992  2.1551 -0.3991
11123TIP3    H254861   2.292   1.640  11.409 -0.8195 -0.9375 -1.4641
11124TIP3   OH254862   5.922   5.097   2.400 -0.2878 -0.4051 -0.2655
11124TIP3    H154863   5.949   5.181   2.363 -0.9550  0.0361  0.2048
11124TIP3    H254864   5.974   5.032   2.354 -0.8955  0.1321 -1.7757
11125TIP3   OH254865   1.773   2.307   4.131  0.0999  0.2968  0.3874
11125TIP3    H154866   1.847   2.366   4.119  2.3664 -2.8367 -4.0086
11125TIP3    H254867   1.718   2.321   4.053  0.7521 -3.0627 -0.8793
11126TIP3   OH254868   6.318   5.712  14.577 -0.0069  0.2657 -0.1182
11126TIP3    H154869   6.341   5.643  14.639  1.3943  0.9918  0.2160
11126TIP3    H254870   6.346   5.679  14.492  0.4537  0.3106  0.0102
11127TIP3   OH254871   5.810   1.170  17.078 -0.1685  0.1048 -0.0016
11127TIP3    H154872   5.790   1.222  17.000 -0.1757 -1.0451 -0.7933
11127TIP3    H254873   5.732   1.116  17.091 -0.0127  0.0129  0.5710
11128TIP3   OH254874   1.522   3.382   4.900 -0.3007 -0.7583 -0.3185
11128TIP3    H154875   1.454   3.389   4.834  0.7389  0.8904 -1.2780
11128TIP3    H254876   1.503   3.453   4.962 -0.3458 -1.2780  0.2725
11129TIP3   OH254877   4.550   0.007   1.203  0.2874  0.7607  0.6097
11129TIP3    H154878   4.618  -0.014   1.267 -0.2353 -0.4471  0.7902
11129TIP3    H254879   4.592  -0.003   1.118  0.9800  2.3420  0.7251
11130TIP3   OH254880   2.094   1.257  12.110 -0.4729 -0.7966 -0.4003
11130TIP3    H154881   2.058   1.193  12.172  0.2836  0.2865  1.2357
11130TIP3    H254882   2.187   1.263  12.132 -1.0066  3.0735  1.7468
11131TIP3   OH254883   2.056   2.538  15.038 -0.2787  0.0620 -0.3655
11131TIP3    H154884   2.132   2.563  15.091 -0.3327 -0.9724  0.2227
11131TIP3    H254885   2.042   2.445  15.057 -0.3805 -0.3262 -2.0967
11132TIP3   OH254886   0.633   4.900  16.175 -0.2644 -0.0160 -0.2116
11132TIP3    H154887   0.652   4.901  16.268  0.7334 -0.1628 -0.4107
11132TIP3    H254888   0.669   4.982  16.142 -1.8920  0.7311 -0.2384
11133TIP3   OH254889   6.034   1.333   5.210 -0.5061 -0.0624 -0.0562
11133TIP3    H154890   6.002   1.402   5.268  0.0022  1.5812 -1.6411
11133TIP3    H254891   6.128   1.351   5.201 -0.8226  0.6542 -2.5069
11134TIP3   OH254892   1.632   4.135  16.651 -0.1911 -0.0568  0.2239
11134TIP3    H154893   1.683   4.211  16.680 -0.2907  0.3764 -0.6959
11134TIP3    H254894   1.697   4.065  16.641  0.0201  0.1256  0.3100
11135TIP3   OH254895   4.265   1.559  17.183 -0.3274 -0.0094 -0.1636
11135TIP3    H154896   4.194   1.579  17.122  0.5518 -0.5304 -1.3974
11135TIP3    H254897   4.339   1.533  17.127  0.3679 -0.9767  1.1311
11136TIP3   OH254898   2.469   3.030  12.419 -0.3220  0.6193 -0.1321
11136TIP3    H154899   2.428   3.062  12.500 -0.3836 -0.9791  0.5016
11136TIP3    H254900   2.562   3.047  12.431 -0.2732 -0.0205  0.5003
11137TIP3   OH254901   0.126   2.358   0.257  0.3204 -0.5065 -0.0624
11137TIP3    H154902   0.203   2.415   0.245  0.4050 -1.1483 -3.9347
11137TIP3    H254903   0.060   2.395   0.198 -0.5276 -2.8565 -0.6949
11138TIP3   OH254904   3.638   4.194   5.711 -0.6438 -0.3316  0.4117
11138TIP3    H154905   3.639   4.288   5.729 -0.9590 -0.2318 -0.0635
11138TIP3    H254906   3.679   4.154   5.787  3.1246  0.4561 -0.9930
11139TIP3   OH254907   4.122   4.054  16.032 -0.0061  0.4620 -0.6273
11139TIP3    H154908   4.113   3.968  16.074 -1.4220  0.5410 -0.7342
11139TIP3    H254909   4.170   4.107  16.096 -0.5038  0.0386  0.1123
11140TIP3   OH254910   4.910   2.779  16.662 -0.0679 -0.4483  0.1684
11140TIP3    H154911   4.919   2.811  16.572 -1.0434  1.4901  0.7222
11140TIP3    H254912   4.854   2.701  16.653 -0.4346 -0.0812 -0.8617
11141TIP3   OH254913   0.482   1.762   4.093  0.6263 -0.1634  0.3896
11141TIP3    H154914   0.475   1.777   4.187  0.4706  0.3268  0.3001
11141TIP3    H254915   0.537   1.683   4.086 -0.7612 -1.2246  0.9378
11142TIP3   OH254916   5.653   4.554   1.402  0.4854 -0.5226 -0.0233
11142TIP3    H154917   5.748   4.549   1.414  0.3765  0.3452  1.5445
11142TIP3    H254918   5.618   4.490   1.464  0.0437 -0.1882  0.0794
11143TIP3   OH254919   1.512   6.052  11.533  0.7538 -0.1121 -0.1778
11143TIP3    H154920   1.598   6.032  11.568  0.4024 -0.3380  0.5906
11143TIP3    H254921   1.504   5.997  11.455  1.8533  0.9813 -1.0837
11144TIP3   OH254922   5.725   4.442   0.845 -0.2760 -0.4846 -0.2777
11144TIP3    H154923   5.727   4.396   0.761 -2.2113 -0.7312 -0.2235
11144TIP3    H254924   5.792   4.398   0.898  0.2116 -1.0327 -1.3134
11145TIP3   OH254925   4.666   1.587   2.510  0.1440  0.3600  0.0564
11145TIP3    H154926   4.606   1.651   2.470  0.2707  0.1401 -0.4934
11145TIP3    H254927   4.622   1.561   2.591 -0.6172  0.0295 -0.4565
11146TIP3   OH254928   3.977   0.301   2.450  0.2092  1.0272 -0.6385
11146TIP3    H154929   3.899   0.250   2.427  0.9594 -2.4393  3.2308
11146TIP3    H254930   4.045   0.268   2.391  0.1679 -1.0566  0.3947
11147TIP3   OH254931   3.092   1.260  10.533  0.1079 -0.3488 -0.0862
11147TIP3    H154932   3.162   1.271  10.597 -0.5168 -0.1980  0.5775
11147TIP3    H254933   3.103   1.171  10.500  0.6078 -0.3248  0.0044
11148TIP3   OH254934   0.021   2.714   2.729  0.8339 -0.1509  0.0612
11148TIP3    H154935  -0.043   2.725   2.799  0.5717  4.3595 -0.6164
11148TIP3    H254936   0.050   2.623   2.738 -3.0797 -1.4240  2.5346
11149TIP3   OH254937   5.421   0.221  15.606 -0.1753 -0.1683  0.0570
11149TIP3    H154938   5.416   0.145  15.665 -0.8866  0.7658  1.2415
11149TIP3    H254939   5.336   0.224  15.564  0.1705 -0.5541 -0.6854
11150TIP3   OH254940   2.451   4.230   1.559  0.5947 -0.6026  0.2899
11150TIP3    H154941   2.358   4.206   1.564  0.0368  1.3474  0.2558
11150TIP3    H254942   2.451   4.315   1.515  2.5833 -1.4443 -1.5393
11151TIP3   OH254943   6.004   1.487  15.876 -0.5730 -0.3975  0.6246
11151TIP3    H154944   5.961   1.467  15.959  3.2557  0.5132  3.0718
11151TIP3    H254945   5.965   1.570  15.848 -1.5562 -0.4295  1.8020
11152TIP3   OH254946   2.058   3.014  12.450 -0.0709 -0.1706 -0.0596
11152TIP3    H154947   2.107   3.082  12.496  1.2914 -0.6961 -0.6615
11152TIP3    H254948   2.008   2.970  12.518 -1.7035  1.9810  0.2157
11153TIP3   OH254949   4.056   0.862   2.327 -0.2111  0.2064  0.4180
11153TIP3    H154950   4.104   0.941   2.301  0.9715 -0.3528  0.8163
11153TIP3    H254951   3.993   0.848   2.256  1.8513 -0.3707 -1.4061
11154TIP3   OH254952   0.200   6.558   4.884  0.1142  0.3516  0.1705
11154TIP3    H154953   0.230   6.473   4.914  1.5338 -0.1594 -2.3708
11154TIP3    H254954   0.271   6.618   4.907 -0.3964  0.6547  0.9840
11155TIP3   OH254955   0.306   3.207  12.529 -0.0667 -0.0737 -0.4748
11155TIP3    H154956   0.305   3.299  12.552 -0.4952 -0.4988  1.3521
11155TIP3    H254957   0.398   3.188  12.508  0.6240  0.1245  2.0953
11156TIP3   OH254958   2.492   5.001  15.547 -0.4767  0.4373  0.3855
11156TIP3    H154959   2.427   4.941  15.509  0.2489  0.2499 -0.5927
11156TIP3    H254960   2.562   4.943  15.579 -0.0196  0.7206 -0.0840
11157TIP3   OH254961   0.782   6.292   0.735  0.0565 -0.1512  0.2909
11157TIP3    H154962   0.747   6.244   0.660  1.5601 -0.8704  0.0039
11157TIP3    H254963   0.740   6.377   0.731  0.6840  0.1287 -1.8746
11158TIP3   OH254964   1.146   3.946  16.702  0.1069 -0.6562 -0.3443
11158TIP3    H154965   1.136   3.851  16.706  1.1165 -0.9656 -3.1390
11158TIP3    H254966   1.240   3.961  16.709  0.0411  0.0545 -0.9102
11159TIP3   OH254967   4.667   1.676  11.296 -0.3056 -0.0526  0.3542
11159TIP3    H154968   4.660   1.582  11.276  0.5013 -0.1447  0.4705
11159TIP3    H254969   4.657   1.719  11.212  1.5983 -0.3629 -0.0611
11160TIP3   OH254970   3.050   6.116  14.092  0.1683 -0.2951 -0.2513
11160TIP3    H154971   2.991   6.106  14.167  0.9186  0.6403  0.4816
11160TIP3    H254972   3.135   6.136  14.131  0.7467 -0.5810 -1.3329
11161TIP3   OH254973   1.031   4.758  13.339 -0.0393 -0.2422 -0.4047
11161TIP3    H154974   1.121   4.769  13.369 -0.4005  0.7533  0.3391
11161TIP3    H254975   1.037   4.764  13.243  0.3839  2.4069 -0.2763
11162TIP3   OH254976   1.458   5.154   3.279  0.0038  0.6899 -0.1763
11162TIP3    H154977   1.519   5.199   3.220  0.5177  1.4816  0.9285
11162TIP3    H254978   1.372   5.170   3.241  0.4222 -0.2960 -1.6691
11163TIP3   OH254979   6.318   6.517  15.443  0.3502 -0.1418  0.3281
11163TIP3    H154980   6.279   6.601  15.420  0.8783 -0.3594 -1.4974
11163TIP3    H254981   6.270   6.453  15.390  1.7900 -0.6523 -0.3909
11164TIP3   OH254982   0.791   3.018  15.901 -0.1918 -0.1124 -0.1901
11164TIP3    H154983   0.718   3.059  15.948  1.0700  0.0182  1.8082
11164TIP3    H254984   0.756   2.997  15.815 -2.4838  0.2151  0.5951
11165TIP3   OH254985   6.440   2.272   4.627  0.0053 -0.1796 -0.3784
11165TIP3    H154986   6.506   2.226   4.679  0.6302  0.0441 -0.9672
11165TIP3    H254987   6.432   2.358   4.669 -1.8259 -1.0844  1.2838
11166TIP3   OH254988   6.700   5.320   1.911  0.4737 -0.2876 -0.1857
11166TIP3    H154989   6.784   5.274   1.909 -0.3362 -1.8509  0.5194
11166TIP3    H254990   6.713   5.395   1.853  3.0592  0.7850  1.5714
11167TIP3   OH254991   0.976   6.265  14.303 -0.4022  0.7141 -0.1580
11167TIP3    H154992   0.986   6.216  14.384  1.1814 -0.4652 -1.0027
11167TIP3    H254993   1.056   6.318  14.296 -0.8130  1.2871 -0.6283
11168TIP3   OH254994   6.593   6.626   1.746  0.0570 -0.0298 -0.1411
11168TIP3    H154995   6.547   6.554   1.788 -0.7927  0.9070  0.6069
11168TIP3    H254996   6.683   6.620   1.778 -0.2858 -0.0759  0.8500
11169TIP3   OH254997   0.889   0.733  12.930 -0.0228  0.0331  0.4379
11169TIP3    H154998   0.923   0.710  12.843  0.2804 -1.2133  0.8727
11169TIP3    H254999   0.795   0.714  12.924 -0.0999  0.4735  0.2160
11170TIP3   OH255000   4.504   3.972  11.404  0.1520  0.2588  0.0033
11170TIP3    H155001   4.588   3.990  11.361 -0.3089  0.6626 -0.7385
11170TIP3    H255002   4.529   3.929  11.486  1.1042  0.7626 -0.0012
11171TIP3   OH255003   4.824   3.962   4.171 -0.0247  0.0557 -0.5697
11171TIP3    H155004   4.888   3.990   4.236  0.6031  0.5487 -1.3821
11171TIP3    H255005   4.740   3.995   4.205  0.5358  1.9994 -0.9172
11172TIP3   OH255006   6.239   4.815   1.898  0.0236 -0.6572  0.6124
11172TIP3    H155007   6.259   4.854   1.813  0.4135  0.8848  1.3800
11172TIP3    H255008   6.307   4.846   1.957 -0.1660 -1.7970  1.4931
11173TIP3   OH255009   1.484   6.666   3.750 -0.0620  0.0720 -0.5115
11173TIP3    H155010   1.415   6.732   3.745  1.0535  1.1949 -3.1970
11173TIP3    H255011   1.552   6.706   3.803 -0.1234  0.3621 -0.6480
11174TIP3   OH255012   1.242   0.626  16.746 -0.6951  0.4565  0.0262
11174TIP3    H155013   1.286   0.635  16.830 -1.7647 -0.2460  0.6834
11174TIP3    H255014   1.303   0.577  16.691  0.3078  1.5425  0.1388
11175TIP3   OH255015   3.631   0.722  16.832 -0.2043  0.3371  0.1223
11175TIP3    H155016   3.630   0.651  16.897 -0.7057 -0.2652 -0.5285
11175TIP3    H255017   3.656   0.800  16.882  0.3336 -0.2908  0.8545
11176TIP3   OH255018   3.045   1.719   0.614 -0.1838 -0.1119 -0.0186
11176TIP3    H155019   2.959   1.677   0.616  0.1224 -0.7200  0.6304
11176TIP3    H255020   3.102   1.653   0.574 -0.0411  0.3571 -0.6150
11177TIP3   OH255021   4.101   1.083   6.047  0.1200  0.2575 -0.2711
11177TIP3    H155022   4.131   1.133   6.123  2.0598  0.0918 -0.8746
11177TIP3    H255023   4.027   1.132   6.013  0.5406  1.4564  0.4982
11178TIP3   OH255024   2.823   2.866   3.318 -0.5047  0.1274  0.8766
11178TIP3    H155025   2.918   2.871   3.307 -0.5577 -1.3380 -0.6737
11178TIP3    H255026   2.800   2.948   3.361  1.3037  1.1409  0.0327
11179TIP3   OH255027   6.500   4.596  15.745 -0.4983 -0.7760 -0.4897
11179TIP3    H155028   6.526   4.670  15.800 -2.8993 -0.1139 -0.1398
11179TIP3    H255029   6.531   4.621  15.657  1.0839 -0.6491  0.0646
11180TIP3   OH255030   3.623   5.876  10.942  0.2156  0.2020  0.1795
11180TIP3    H155031   3.648   5.962  10.906  1.2430  0.2953  1.0592
11180TIP3    H255032   3.663   5.813  10.883  0.1000  0.3266 -0.0352
11181TIP3   OH255033   6.054   4.648  11.251 -0.4598 -0.4386  0.4916
11181TIP3    H155034   5.964   4.646  11.284 -0.8316  1.5136 -0.2522
11181TIP3    H255035   6.046   4.636  11.157 -0.1095  0.9728  0.2498
11182TIP3   OH255036   5.663   4.429  11.641 -0.7098  0.1802  0.2698
11182TIP3    H155037   5.680   4.479  11.561 -0.3676 -0.8948 -0.3500
11182TIP3    H255038   5.573   4.453  11.664 -0.7971  0.5478 -0.4022
11183TIP3   OH255039   5.108   5.585   5.976 -0.1137  0.0478  0.1897
11183TIP3    H155040   5.101   5.500   6.018 -1.1859  0.9259  1.9133
11183TIP3    H255041   5.040   5.585   5.909 -0.2879 -0.3604  0.3647
11184TIP3   OH255042   4.906   2.587   4.178 -0.1007  0.2973  0.3683
11184TIP3    H155043   4.937   2.667   4.136 -0.2676  0.2582  0.1689
11184TIP3    H255044   4.935   2.595   4.269 -0.2396  0.6471  0.3831
11185TIP3   OH255045   3.992   6.644   0.656  0.1006 -0.2791 -0.0076
11185TIP3    H155046   4.063   6.635   0.593  1.1667 -1.2615  1.2734
11185TIP3    H255047   3.925   6.696   0.610  0.5803 -1.4322 -2.1167
11186TIP3   OH255048   4.758   5.691   2.360 -0.3766 -0.0454  0.4201
11186TIP3    H155049   4.847   5.666   2.384 -0.2423 -1.6513 -1.4293
11186TIP3    H255050   4.705   5.669   2.437  0.7225  0.3616  1.3165
11187TIP3   OH255051   6.093   4.804   3.635 -0.4742  0.7902 -0.2651
11187TIP3    H155052   6.066   4.851   3.715 -2.3141 -1.2498  0.4002
11187TIP3    H255053   6.023   4.740   3.620  0.6251  0.0461 -2.6409
11188TIP3   OH255054   2.874   5.038  11.464 -0.7648 -0.2473  0.7138
11188TIP3    H155055   2.795   5.085  11.491 -0.6544  0.2716  0.1460
11188TIP3    H255056   2.946   5.096  11.490 -0.6715  0.7119 -1.4468
11189TIP3   OH255057   0.277   0.185  15.848  0.2535  0.1655 -0.0001
11189TIP3    H155058   0.352   0.148  15.895  0.0334 -0.3053 -0.0152
11189TIP3    H255059   0.315   0.253  15.793  1.0475 -1.6749 -1.8446
11190TIP3   OH255060   0.948   4.745  15.990 -0.2742 -0.0092  0.6064
11190TIP3    H155061   1.006   4.783  16.056  0.3985 -0.7259  0.4399
11190TIP3    H255062   0.884   4.694  16.040  0.7497 -1.2651  0.7025
11191TIP3   OH255063   0.756   2.690   6.259  0.0318 -0.7566  0.2319
11191TIP3    H155064   0.698   2.693   6.335 -0.4572  0.7075 -0.1814
11191TIP3    H255065   0.827   2.751   6.280  0.6915 -1.4661  0.1241
11192TIP3   OH255066   6.635   2.897  17.128  0.2627  0.4476 -0.2440
11192TIP3    H155067   6.580   2.955  17.076  0.2176  0.4829 -0.1578
11192TIP3    H255068   6.593   2.812  17.122 -0.2647  0.6424  0.4888
11193TIP3   OH255069   5.330   4.103   1.953 -0.0122  0.4098 -0.6058
11193TIP3    H155070   5.239   4.129   1.937 -0.0088  0.9009  0.1264
11193TIP3    H255071   5.324   4.032   2.018  0.0851 -0.1750 -1.2243
11194TIP3   OH255072   0.731   1.356  11.143  0.2320 -0.1768  0.2874
11194TIP3    H155073   0.809   1.316  11.105  0.5893  1.3190 -0.6533
11194TIP3    H255074   0.663   1.346  11.077  0.5724  1.5097 -0.3699
11195TIP3   OH255075   4.052   1.756   1.144 -0.1921 -0.5233  0.1068
11195TIP3    H155076   4.054   1.680   1.202 -3.0348  0.0902  1.1971
11195TIP3    H255077   3.960   1.783   1.143  0.3417  1.5958 -1.9885
11196TIP3   OH255078   5.209   1.984   2.894  0.5398  0.1039 -0.6656
11196TIP3    H155079   5.127   1.944   2.864  0.4643  0.4957 -0.9793
11196TIP3    H255080   5.277   1.942   2.841  0.7903 -1.7532  0.9948
11197TIP3   OH255081   5.898   3.966  14.230 -0.0988 -0.2975  0.0754
11197TIP3    H155082   5.924   3.875  14.222  2.5058  0.3680  0.1917
11197TIP3    H255083   5.936   3.995  14.313 -1.7928  0.6490  0.5745
11198TIP3   OH255084   6.662   3.989   2.200 -0.0099 -0.0064  0.6616
11198TIP3    H155085   6.720   4.065   2.207 -0.3637  0.3363  0.0430
11198TIP3    H255086   6.616   4.003   2.117 -0.2869 -0.7525  0.6879
11199TIP3   OH255087   2.687   1.695   5.033 -0.3868  0.0034 -0.5315
11199TIP3    H155088   2.701   1.744   5.115 -1.3538  3.5757 -2.3011
11199TIP3    H255089   2.772   1.696   4.990 -0.1994 -0.7329 -0.2057
11200TIP3   OH255090   2.967   1.361  12.811 -1.1455 -0.2862 -0.0534
11200TIP3    H155091   2.981   1.433  12.750  0.6364 -0.3757  0.1969
11200TIP3    H255092   3.025   1.291  12.780 -1.1650 -0.7931  0.9922
11201TIP3   OH255093   5.216   2.700   0.152  0.0804  0.1049 -0.1064
11201TIP3    H155094   5.294   2.741   0.189  0.7901  0.3409 -1.7562
11201TIP3    H255095   5.192   2.758   0.080 -0.7091 -0.7852 -0.5735
11202TIP3   OH255096   6.695   5.866  16.793 -0.0897  0.1085  0.3657
11202TIP3    H155097   6.694   5.824  16.879 -1.6199  0.8289  0.7376
11202TIP3    H255098   6.663   5.799  16.733  1.6261 -0.6158  0.2141
11203TIP3   OH255099   5.889   0.286   5.967  0.1559 -0.0041 -0.0074
11203TIP3    H155100   5.882   0.202   6.013 -0.7410 -0.1378 -0.3766
11203TIP3    H255101   5.973   0.321   5.995  0.7963 -1.2711 -0.2586
11204TIP3   OH255102   4.898   0.161   0.017 -0.4336  0.4457  0.0553
11204TIP3    H155103   4.963   0.128  -0.045 -0.8894  0.3009 -0.3550
11204TIP3    H255104   4.938   0.151   0.103  0.1398  0.4930 -0.2043
11205TIP3   OH255105   0.871   3.770  12.511 -0.2762  0.5050 -0.1231
11205TIP3    H155106   0.897   3.751  12.420  0.8540 -1.2875  0.5134
11205TIP3    H255107   0.954   3.769  12.560 -1.0560 -0.7210  1.2539
11206TIP3   OH255108   3.957   6.830  10.889  0.1768 -0.4255  0.4575
11206TIP3    H155109   3.995   6.752  10.931  1.4262 -0.0221  0.1213
11206TIP3    H255110   4.014   6.846  10.814  0.7526  1.6077  1.2769
11207TIP3   OH255111   5.736   2.949  13.940 -0.0565  0.1497 -0.6028
11207TIP3    H155112   5.705   2.861  13.962 -1.0382  0.0150 -2.3703
11207TIP3    H255113   5.831   2.938  13.929  0.0868 -0.3006  0.8464
11208TIP3   OH255114   5.371   1.161  12.884  0.0577 -0.1421 -0.1633
11208TIP3    H155115   5.365   1.111  12.803 -0.3852 -1.6248  0.7525
11208TIP3    H255116   5.459   1.144  12.916  0.7239  1.5472 -0.9893
11209TIP3   OH255117   4.996   4.859   4.066 -0.2191 -0.3452  0.6872
11209TIP3    H155118   5.018   4.949   4.093  0.4860 -0.6102  1.0249
11209TIP3    H255119   5.007   4.860   3.971  0.9253 -0.3600  0.8006
11210TIP3   OH255120   6.417   6.120  13.003  0.2613 -1.3845 -0.3353
11210TIP3    H155121   6.464   6.037  12.996  1.6496 -0.6107 -0.4736
11210TIP3    H255122   6.485   6.187  13.001 -0.9144 -0.1544 -1.5699
11211TIP3   OH255123   0.663   0.291   1.895 -0.2854 -0.0942 -0.1596
11211TIP3    H155124   0.633   0.381   1.906  0.1668 -0.0833  1.2730
11211TIP3    H255125   0.711   0.290   1.812  2.0798  1.6759  1.0803
11212TIP3   OH255126   2.701   5.645  12.458  0.1815  0.3471 -0.0250
11212TIP3    H155127   2.652   5.572  12.495 -0.5869  0.0366 -1.5639
11212TIP3    H255128   2.637   5.692  12.403  1.4283  0.2147 -1.6851
11213TIP3   OH255129   0.464   4.103  12.665 -0.1836  0.3232  0.4207
11213TIP3    H155130   0.547   4.080  12.706 -0.2261  0.8977  0.8413
11213TIP3    H255131   0.456   4.043  12.591  0.5323  0.1654  0.4681
11214TIP3   OH255132   4.059   2.894  11.182  0.0488  0.8900  0.4680
11214TIP3    H155133   4.068   2.853  11.268 -0.7454  1.0154  0.6157
11214TIP3    H255134   3.965   2.905  11.170  0.1622  1.0034 -0.3602
11215TIP3   OH255135   6.688   3.689  11.802 -0.5777 -0.4146 -0.2095
11215TIP3    H155136   6.780   3.717  11.805 -0.7787  0.2190  0.2740
11215TIP3    H255137   6.641   3.766  11.771 -0.7316 -1.3410 -2.5118
11216TIP3   OH255138   4.290   6.017  14.606 -0.6120  0.2048 -0.2425
11216TIP3    H155139   4.230   6.069  14.660 -0.6735 -1.5496  1.4734
11216TIP3    H255140   4.377   6.040  14.639 -0.5623  0.1233 -0.3176
11217TIP3   OH255141   1.146   6.474  16.592  0.4437  0.3651 -0.7163
11217TIP3    H155142   1.091   6.544  16.625  0.8608  0.1705  0.4232
11217TIP3    H255143   1.103   6.393  16.620  0.2715  0.1622 -1.5242
11218TIP3   OH255144   0.959   6.360  15.745 -0.0148 -0.1720 -0.0343
11218TIP3    H155145   0.868   6.356  15.773  0.1090 -0.2996  0.3580
11218TIP3    H255146   0.984   6.269  15.732 -0.2929 -0.0744 -1.3049
11219TIP3   OH255147   0.046   0.704   3.664  0.7555 -0.2962 -0.4823
11219TIP3    H155148   0.077   0.791   3.690 -1.0006 -0.2557  1.8562
11219TIP3    H255149   0.053   0.704   3.569  1.7698  2.0271 -0.4869
11220TIP3   OH255150   2.354   6.375   5.692  0.0385 -0.2909  0.0297
11220TIP3    H155151   2.336   6.421   5.774  1.5775  0.4200  0.0081
11220TIP3    H255152   2.350   6.444   5.625 -0.6543 -0.7652 -0.4275
11221TIP3   OH255153   1.564   3.788  15.848  0.1637 -0.3759  0.3281
11221TIP3    H155154   1.567   3.842  15.769 -1.3443  1.0811  1.2149
11221TIP3    H255155   1.471   3.774  15.864  0.2437  1.5573  3.2356
11222TIP3   OH255156   4.065   2.109  15.350  0.4595  0.0726 -0.4922
11222TIP3    H155157   4.081   2.167  15.425  0.3303 -1.2485  0.5974
11222TIP3    H255158   3.984   2.063  15.373 -1.4954  1.9713 -2.9618
11223TIP3   OH255159   6.541   2.381  14.372  0.1212  0.0831  0.2298
11223TIP3    H155160   6.635   2.395  14.375 -0.0542  1.1869  1.0364
11223TIP3    H255161   6.504   2.467  14.350 -0.7294 -0.1764  0.5767
11224TIP3   OH255162   2.375   1.264   1.521  0.3436  0.3181  0.4426
11224TIP3    H155163   2.363   1.350   1.481 -0.8901  0.0200  0.1176
11224TIP3    H255164   2.287   1.226   1.522  1.1728 -1.9983 -1.8577
11225TIP3   OH255165   0.782   5.678  13.988 -0.0658  0.0833  0.1134
11225TIP3    H155166   0.874   5.688  14.011 -0.0165  0.7703 -0.3393
11225TIP3    H255167   0.736   5.734  14.051 -0.1903 -0.3440  0.4093
11226TIP3   OH255168   4.924   5.223  10.474  0.9739  0.2259 -0.9820
11226TIP3    H155169   4.983   5.164  10.521 -2.0104 -1.5532  0.8392
11226TIP3    H255170   4.965   5.309  10.481  2.9495 -0.7683  0.8348
11227TIP3   OH255171   0.909   1.559  10.923 -0.4857  0.3819 -0.3179
11227TIP3    H155172   0.848   1.632  10.909  1.7354  2.4177 -0.0010
11227TIP3    H255173   0.937   1.535  10.835 -3.9517 -2.7870 -0.8061
11228TIP3   OH255174   2.323   4.290  14.714  0.0653 -0.1974 -0.1058
11228TIP3    H155175   2.337   4.306  14.808 -1.2378 -0.5827  0.1719
11228TIP3    H255176   2.349   4.199  14.701  0.5344 -0.0527 -0.1790
11229TIP3   OH255177   4.542   1.104   4.171 -0.1057  0.0450  0.1328
11229TIP3    H155178   4.497   1.121   4.253 -0.0847 -0.3471  0.2298
11229TIP3    H255179   4.531   1.184   4.120 -2.8195 -0.7930 -0.7266
11230TIP3   OH255180   2.435   1.145   0.316  0.0748  0.7813 -0.2285
11230TIP3    H155181   2.422   1.228   0.270  1.8950  1.2871  0.1083
11230TIP3    H255182   2.394   1.080   0.259 -0.0840  1.7261 -1.2315
11231TIP3   OH255183   5.693   1.863  16.101 -0.2011  0.1258  0.1288
11231TIP3    H155184   5.777   1.835  16.137  1.7770  3.3757 -1.4741
11231TIP3    H255185   5.679   1.950  16.139 -2.9465 -0.3451  0.3937
11232TIP3   OH255186   0.338   6.753   3.327 -0.4205  0.1992 -0.1808
11232TIP3    H155187   0.275   6.726   3.260 -0.3479 -0.4875  0.0177
11232TIP3    H255188   0.343   6.678   3.386 -0.9674  1.0201  0.9612
11233TIP3   OH255189   5.071   0.850  12.063 -0.0726 -0.1041 -0.7195
11233TIP3    H155190   5.123   0.900  12.126  0.1653 -1.9399  0.6145
11233TIP3    H255191   5.030   0.917  12.008  0.9595  1.5113  0.3769
11234TIP3   OH255192   3.938   1.301  16.371 -0.6331  0.0930 -0.2617
11234TIP3    H155193   3.999   1.373  16.386 -0.3633 -0.0160 -0.7990
11234TIP3    H255194   3.994   1.224  16.362 -0.8933 -0.1159 -0.1109
11235TIP3   OH255195   3.493   1.685  12.085 -0.2720  0.3192  0.1130
11235TIP3    H155196   3.424   1.743  12.117 -1.0712  0.1674 -1.2527
11235TIP3    H255197   3.495   1.613  12.147 -0.5538  0.8802  0.7932
11236TIP3   OH255198   0.056   2.719   4.413  0.7370 -0.0690 -0.0945
11236TIP3    H155199   0.109   2.798   4.421  2.0106 -1.0370  1.7399
11236TIP3    H255200   0.118   2.651   4.388 -0.0843 -0.7873 -0.2460
11237TIP3   OH255201   3.128   0.517  13.970  0.5280 -0.3392 -0.0426
11237TIP3    H155202   3.091   0.531  14.057  0.0005 -2.3550  0.1030
11237TIP3    H255203   3.221   0.537  13.979  0.3089  0.3792  0.7256
11238TIP3   OH255204   1.369   4.566  16.419 -0.5382 -0.4811 -0.7960
11238TIP3    H155205   1.444   4.548  16.475 -1.5315 -0.7553  0.5055
11238TIP3    H255206   1.362   4.662  16.418  0.4269 -0.4144 -1.7624
11239TIP3   OH255207   1.925   4.242  11.078 -0.1534  0.3112  0.1879
11239TIP3    H155208   1.904   4.323  11.033  0.8489  0.7059  0.4066
11239TIP3    H255209   1.862   4.178  11.045 -0.8773  1.1501 -0.0638
11240TIP3   OH255210   4.325   4.964   1.612  0.3409  0.3470 -0.5555
11240TIP3    H155211   4.337   5.051   1.576  0.5567  0.3727 -0.4190
11240TIP3    H255212   4.258   4.975   1.681  0.7332  0.4949 -0.1956
11241TIP3   OH255213   1.618   5.438   0.818 -0.5672  0.1698 -0.0806
11241TIP3    H155214   1.670   5.466   0.893 -0.6452  0.6819 -0.2139
11241TIP3    H255215   1.678   5.382   0.768 -0.4150  0.0808  0.1993
11242TIP3   OH255216   1.017   2.125   0.253  0.2188  0.1087 -0.0841
11242TIP3    H155217   1.092   2.171   0.215 -0.2372  0.4437 -0.6032
11242TIP3    H255218   0.982   2.186   0.318  0.1980  0.0961 -0.0834
11243TIP3   OH255219   3.925   6.449  15.422 -0.4643  0.4298 -0.2958
11243TIP3    H155220   3.917   6.532  15.470 -0.0781  0.2879  0.0150
11243TIP3    H255221   3.976   6.393  15.480  0.2579  0.3467 -1.0023
11244TIP3   OH255222   2.724   1.420   5.340 -0.2101  0.5453 -0.7729
11244TIP3    H155223   2.693   1.459   5.259 -0.5088  0.5996 -0.6332
11244TIP3    H255224   2.709   1.326   5.330  0.8883  0.4051 -1.2771
11245TIP3   OH255225   6.426   0.064  11.402 -0.3724  0.0937 -0.5821
11245TIP3    H155226   6.358   0.093  11.463 -0.3986 -1.0277 -0.0546
11245TIP3    H255227   6.491   0.134  11.403  0.1538 -0.3654  1.5808
11246TIP3   OH255228   2.821   4.903  13.382 -0.5078 -0.6147  0.3041
11246TIP3    H155229   2.902   4.866  13.348 -1.5931 -1.2077 -1.7989
11246TIP3    H255230   2.822   4.882  13.476  1.5365 -0.9664  0.2376
11247TIP3   OH255231   1.562   4.547  12.999  0.5694  0.3181  0.1015
11247TIP3    H155232   1.572   4.452  13.008 -1.3607 -0.0326 -0.8831
11247TIP3    H255233   1.651   4.582  13.007  1.6981 -1.8016 -2.1473
11248TIP3   OH255234   3.694   1.064   6.252 -0.3203 -1.2836  0.3192
11248TIP3    H155235   3.714   0.994   6.190 -0.2281 -0.8882 -0.1098
11248TIP3    H255236   3.665   1.137   6.196 -0.2068 -0.9100  0.7426
11249TIP3   OH255237   4.764   4.604   0.078 -0.0092  0.1162  0.0287
11249TIP3    H155238   4.754   4.509   0.071  1.9109 -0.0158 -2.3518
11249TIP3    H255239   4.684   4.634   0.122  0.0504 -2.6964  2.3402
11250TIP3   OH255240   6.165   2.479   5.144  0.8128 -0.2386  0.1714
11250TIP3    H155241   6.124   2.531   5.214  1.5619 -0.4798  0.8071
11250TIP3    H255242   6.093   2.460   5.083  0.6342  2.0672 -0.4278
11251TIP3   OH255243   5.985   0.863   5.400  0.1442 -0.2142 -0.2061
11251TIP3    H155244   6.037   0.921   5.456  0.1757  0.6944 -1.1334
11251TIP3    H255245   6.027   0.778   5.408  0.7048  0.1060  0.4249
11252TIP3   OH255246   3.296   4.235  14.957  0.8210 -0.5699 -0.0023
11252TIP3    H155247   3.323   4.282  14.878  1.2553  1.1144  1.1144
11252TIP3    H255248   3.349   4.272  15.027 -2.9478  1.5736  2.0281
11253TIP3   OH255249   3.506   5.110   6.195 -0.2004 -0.2927 -0.3772
11253TIP3    H155250   3.485   5.198   6.225 -0.2625 -0.2579 -0.5201
11253TIP3    H255251   3.601   5.103   6.204 -0.3493 -0.7335  1.0337
11254TIP3   OH255252   4.574   4.039   6.754  0.0300  0.0498 -0.0820
11254TIP3    H155253   4.600   3.988   6.677  0.6753 -0.0243  0.1759
11254TIP3    H255254   4.511   3.983   6.799  1.7652 -1.1953  0.9517
11255TIP3   OH255255   3.471   2.822   4.828 -0.5890  0.1746  0.3754
11255TIP3    H155256   3.461   2.731   4.855 -3.3646 -0.3085 -1.8407
11255TIP3    H255257   3.560   2.827   4.793 -0.1129 -1.4380  1.2345
11256TIP3   OH255258   4.045   4.008   0.396  0.1492  0.0602 -0.8138
11256TIP3    H155259   4.051   3.913   0.386  1.3155 -0.2798  2.0606
11256TIP3    H255260   4.105   4.043   0.330 -0.6179 -1.1508 -2.1956
11257TIP3   OH255261   1.110   3.824   5.556  0.2617  0.3223 -0.4180
11257TIP3    H155262   1.045   3.853   5.621 -0.7482  1.5440 -1.9268
11257TIP3    H255263   1.077   3.739   5.527  0.2274  0.1888 -0.0004
11258TIP3   OH255264   5.363   5.296  14.847 -0.3687  0.3978 -0.4129
11258TIP3    H155265   5.429   5.364  14.833  0.1885  0.0758  0.5099
11258TIP3    H255266   5.279   5.340  14.833 -0.0016  1.1655 -0.2416
11259TIP3   OH255267   0.873   6.300  14.674  0.3935  0.0075 -0.1943
11259TIP3    H155268   0.864   6.292  14.769  0.5340 -2.0006 -0.3073
11259TIP3    H255269   0.838   6.218  14.639  1.3138  0.2531 -1.8138
11260TIP3   OH255270   2.709   5.723  16.191 -0.3452  0.5575  0.2359
11260TIP3    H155271   2.771   5.697  16.259  0.9745  0.6488 -0.8854
11260TIP3    H255272   2.633   5.755  16.239 -0.4946 -1.7349  1.6585
11261TIP3   OH255273   2.509   5.161   2.366 -0.1334 -0.0059  0.3533
11261TIP3    H155274   2.599   5.168   2.398  0.1870 -2.6761  0.2725
11261TIP3    H255275   2.455   5.171   2.445 -0.0254  3.5391  0.1755
11262TIP3   OH255276   6.456   6.125   1.161 -0.3743  0.4550 -0.0841
11262TIP3    H155277   6.385   6.123   1.225  1.6355  1.5603  2.3247
11262TIP3    H255278   6.480   6.217   1.154  3.1351 -0.1290  2.0301
11263TIP3   OH255279   3.860   6.150   1.807 -0.2893 -0.3754 -0.4602
11263TIP3    H155280   3.917   6.226   1.792  0.2335 -0.7569 -0.4077
11263TIP3    H255281   3.886   6.116   1.892  0.1828 -1.2232 -0.9292
11264TIP3   OH255282   1.078   5.396  12.762 -0.0556  0.7273 -0.2038
11264TIP3    H155283   1.055   5.304  12.745 -0.8550  0.8433  0.1788
11264TIP3    H255284   1.117   5.427  12.680 -1.9844  0.7149 -1.1801
11265TIP3   OH255285   6.708   1.928  16.858 -0.0687 -0.4802 -0.2427
11265TIP3    H155286   6.780   1.897  16.803  1.0226  0.1891  0.7576
11265TIP3    H255287   6.716   1.877  16.939 -0.5314 -0.1952 -0.0136
11266TIP3   OH255288   0.320   0.940   0.972  0.0051  0.1966 -0.0746
11266TIP3    H155289   0.317   0.845   0.979 -0.9946 -0.1242 -3.1946
11266TIP3    H255290   0.229   0.968   0.980  0.2023  0.8194  0.0727
11267TIP3   OH255291   6.540   3.770   1.769  0.1683 -0.0080  0.0814
11267TIP3    H155292   6.629   3.802   1.753  0.6228 -1.8743 -1.4456
11267TIP3    H255293   6.551   3.678   1.794 -1.2792  0.0160  0.9259
11268TIP3   OH255294   3.213   3.190  17.157 -0.5291 -0.2581  0.0120
11268TIP3    H155295   3.302   3.222  17.171 -1.8704  3.7174  0.6559
11268TIP3    H255296   3.198   3.201  17.063  0.0136 -2.2712 -0.3613
11269TIP3   OH255297   2.075   6.626   6.041 -0.2030 -0.0654 -0.1915
11269TIP3    H155298   1.998   6.682   6.032  0.5420  0.7152 -2.3215
11269TIP3    H255299   2.130   6.670   6.106 -0.2718  0.9402 -0.7926
11270TIP3   OH255300   5.330   2.731  15.468  0.6918  0.6447 -0.2041
11270TIP3    H155301   5.384   2.795  15.423  1.5206 -0.1241 -0.3386
11270TIP3    H255302   5.365   2.726  15.556  0.2366  0.8241 -0.0106
11271TIP3   OH255303   5.109   2.933   5.806 -0.3460 -0.6847  0.1147
11271TIP3    H155304   5.054   2.901   5.734  2.0360 -0.6273 -1.8321
11271TIP3    H255305   5.115   3.027   5.792  0.1164 -0.6644  0.4322
11272TIP3   OH255306   5.819   3.092  14.507 -0.2204 -0.1927 -0.3954
11272TIP3    H155307   5.876   3.054  14.440 -0.9996  0.3797 -1.4136
11272TIP3    H255308   5.783   3.016  14.553 -0.5704 -0.6542 -1.3927
11273TIP3   OH255309   3.930   0.622   1.476  0.8319  0.0991 -0.4665
11273TIP3    H155310   3.885   0.701   1.448  0.6547  0.5151  0.9302
11273TIP3    H255311   4.015   0.652   1.506  0.2102  0.0148  1.5127
11274TIP3   OH255312   2.911   3.987   6.221  0.2057  0.0544  0.2100
11274TIP3    H155313   2.879   4.077   6.216  1.1630  0.4312  0.6800
11274TIP3    H255314   2.928   3.972   6.314 -1.1042 -1.0365  0.2911
11275TIP3   OH255315   4.431   6.486  14.492  0.1734  0.2370 -0.0712
11275TIP3    H155316   4.373   6.529  14.555  0.2547  0.3510 -0.0742
11275TIP3    H255317   4.499   6.445  14.546 -0.2733 -0.4623 -0.0203
11276TIP3   OH255318   3.961   1.369   4.537  0.5574 -0.4385  0.1611
11276TIP3    H155319   3.961   1.465   4.527 -0.2182 -0.3819  0.6626
11276TIP3    H255320   3.971   1.336   4.448  1.0661  0.1107  0.0058
11277TIP3   OH255321   5.718   2.965   5.556  0.0773  0.8467 -0.3853
11277TIP3    H155322   5.689   3.036   5.613 -0.5780 -0.5839  1.1553
11277TIP3    H255323   5.643   2.947   5.499 -0.8302 -0.4019  1.1137
11278TIP3   OH255324   0.567   3.651   4.173 -0.1703  0.0020  0.1136
11278TIP3    H155325   0.551   3.659   4.079  0.8368 -0.1060 -0.0794
11278TIP3    H255326   0.592   3.739   4.201 -0.0159 -0.0646  0.1867
11279TIP3   OH255327   4.093   5.421   0.069 -0.5318 -0.3181  0.1195
11279TIP3    H155328   4.039   5.418   0.148 -0.0720 -0.5743  0.4252
11279TIP3    H255329   4.149   5.344   0.075  0.0811  0.1095 -0.0463
11280TIP3   OH255330   5.984   3.765  16.251 -0.2563 -0.0329 -0.1404
11280TIP3    H155331   5.942   3.841  16.212 -0.4777 -0.7392 -1.3201
11280TIP3    H255332   5.929   3.691  16.227 -0.4577 -0.5112  1.6172
11281TIP3   OH255333   0.073   4.094  14.325  0.0417 -0.6565 -0.2346
11281TIP3    H155334  -0.012   4.058  14.351 -0.8526  1.4798  0.0302
11281TIP3    H255335   0.093   4.053  14.242 -0.9528 -1.6560  0.0017
11282TIP3   OH255336   1.047   4.489  15.372 -0.1331  0.2815 -0.1359
11282TIP3    H155337   0.971   4.513  15.425  0.6503  1.9821  0.2771
11282TIP3    H255338   1.106   4.564  15.379  1.1817 -0.6047 -1.2148
11283TIP3   OH255339   4.541   0.014  14.209  0.0272  0.4658 -0.6020
11283TIP3    H155340   4.572  -0.015  14.123 -1.9692  2.4929 -2.1153
11283TIP3    H255341   4.523   0.107  14.198 -0.3946  0.7818  2.0279
11284TIP3   OH255342   3.256   3.212   0.823 -0.2349 -0.3023  0.4283
11284TIP3    H155343   3.224   3.287   0.774 -0.2568 -1.6602 -1.7909
11284TIP3    H255344   3.302   3.250   0.898  0.9214  1.9783 -1.3055
11285TIP3   OH255345   2.896   5.702   4.975 -0.6177 -0.0170  0.4851
11285TIP3    H155346   2.832   5.664   4.915  1.5533 -0.6008 -1.6325
11285TIP3    H255347   2.904   5.793   4.947 -0.8455  0.1804  1.0492
11286TIP3   OH255348   2.735   3.679   5.500  0.4350 -0.1117  0.1230
11286TIP3    H155349   2.736   3.644   5.589  0.6970  2.1099  1.0631
11286TIP3    H255350   2.642   3.691   5.480  0.1715 -3.2592 -1.1158
11287TIP3   OH255351   2.439   0.637  11.546 -0.0722  0.3988  0.0425
11287TIP3    H155352   2.411   0.716  11.500  0.6700  0.6939  0.0917
11287TIP3    H255353   2.429   0.659  11.639  1.2117  0.8478  0.0870
11288TIP3   OH255354   3.982   0.949   5.746 -1.0035  0.2232 -0.8774
11288TIP3    H155355   3.982   1.029   5.798  0.6700 -0.8061  0.8599
11288TIP3    H255356   3.899   0.906   5.766 -1.5302  1.0888 -1.1598
11289TIP3   OH255357   0.368   5.825  17.072 -0.1767 -0.0164  0.7090
11289TIP3    H155358   0.422   5.796  17.145  0.3252  1.9418  1.1660
11289TIP3    H255359   0.311   5.893  17.108  0.1766  1.0965 -0.7139
11290TIP3   OH255360   5.340   2.514  16.379 -0.5330 -0.1887 -0.1676
11290TIP3    H155361   5.402   2.541  16.447 -0.3520  0.4082 -0.5648
11290TIP3    H255362   5.271   2.579  16.382  0.2538  0.7569 -1.6047
11291TIP3   OH255363   6.172   6.438   1.200 -0.2561 -0.3403  0.0717
11291TIP3    H155364   6.100   6.501   1.195  1.6314  1.9104 -0.6615
11291TIP3    H255365   6.216   6.459   1.282  0.7358 -0.2947 -0.4601
11292TIP3   OH255366   6.784   4.283  13.504 -0.0406 -0.5351  0.0539
11292TIP3    H155367   6.868   4.285  13.550  0.4277 -0.2148 -0.8015
11292TIP3    H255368   6.749   4.371  13.515 -0.1391 -0.5883  0.1738
11293TIP3   OH255369   0.014   5.195  11.711  0.1286 -0.5633 -0.0516
11293TIP3    H155370  -0.056   5.199  11.646  0.1453 -0.7622 -0.0844
11293TIP3    H255371  -0.008   5.118  11.764 -0.0477 -0.2295  0.3658
11294TIP3   OH255372   1.520   4.775  16.558 -0.4414 -0.2254 -0.1645
11294TIP3    H155373   1.519   4.826  16.477 -0.0923 -0.5784 -0.3956
11294TIP3    H255374   1.613   4.768  16.581 -0.3941 -1.6746 -0.7295
11295TIP3   OH255375   3.002   5.482   1.740 -0.2278  0.2908  0.1905
11295TIP3    H155376   3.026   5.471   1.648 -0.5872 -1.2455  0.2510
11295TIP3    H255377   3.048   5.412   1.785  0.4733  1.4268  1.3028
11296TIP3   OH255378   3.613   3.548  13.376 -0.0299 -0.4979 -0.2930
11296TIP3    H155379   3.657   3.539  13.292  0.0018  1.9444 -0.6258
11296TIP3    H255380   3.668   3.609  13.425 -1.9729  1.1266  0.0175
11297TIP3   OH255381   6.564   6.685  16.782 -0.4528  0.3778  0.1839
11297TIP3    H155382   6.646   6.726  16.755 -1.2703  1.8533 -0.1942
11297TIP3    H255383   6.498   6.721  16.722 -1.4827 -0.2648  0.8851
11298TIP3   OH255384   5.296   4.467  10.936 -0.2617 -0.7673 -0.6573
11298TIP3    H155385   5.205   4.498  10.937 -0.2804 -0.6672 -2.3618
11298TIP3    H255386   5.303   4.415  10.855  1.4295 -0.0225 -1.0359
11299TIP3   OH255387   3.098   0.529  15.371 -0.1580 -0.4069  0.0792
11299TIP3    H155388   3.084   0.517  15.465  1.6320 -0.2057  0.4136
11299TIP3    H255389   3.166   0.596  15.366 -1.8908  1.3553 -1.4385
11300TIP3   OH255390   0.100   0.661  14.365 -0.7280 -0.7129 -0.2297
11300TIP3    H155391   0.168   0.656  14.433 -0.1007 -1.2727 -0.8789
11300TIP3    H255392   0.120   0.742  14.318  0.0427 -1.3050 -0.9631
11301TIP3   OH255393   6.674   5.744   2.879  0.2582  0.6278  0.5689
11301TIP3    H155394   6.763   5.738   2.845  0.8157  0.0585  2.0452
11301TIP3    H255395   6.677   5.698   2.963 -1.3654  0.8366  0.7789
11302TIP3   OH255396   2.899   1.944   5.898 -0.1968  0.4803  0.1447
11302TIP3    H155397   2.848   1.932   5.978 -2.2369  0.5298 -1.0779
11302TIP3    H255398   2.888   1.861   5.851  2.4161 -0.2293  0.6054
11303TIP3   OH255399   2.361   5.491  12.409 -0.1586  0.4951  0.4289
11303TIP3    H155400   2.415   5.526  12.481  1.2230  0.3550 -0.4925
11303TIP3    H255401   2.425   5.466  12.342 -1.2436 -1.8372  0.1890
11304TIP3   OH255402   1.284   5.413   5.608  0.3255  0.3113 -0.5513
11304TIP3    H155403   1.256   5.504   5.619 -1.6920  0.3095 -4.1666
11304TIP3    H255404   1.223   5.362   5.661 -0.7412  0.8947 -1.1923
11305TIP3   OH255405   2.072   1.799   4.101  0.0634 -0.7688 -0.0152
11305TIP3    H155406   2.038   1.711   4.083 -1.0129  0.1518 -3.1934
11305TIP3    H255407   2.018   1.857   4.048  1.8643  1.6432  0.6121
11306TIP3   OH255408   2.720   3.930   3.012  0.3350 -0.1880 -0.2920
11306TIP3    H155409   2.719   3.838   2.987 -0.2966  0.4412 -2.9583
11306TIP3    H255410   2.785   3.936   3.082  2.1000 -2.3231 -1.6185
11307TIP3   OH255411   4.595   0.059  12.978 -0.3704 -0.2829 -0.8297
11307TIP3    H155412   4.569   0.006  12.903  0.0241 -0.8887 -0.5511
11307TIP3    H255413   4.687   0.037  12.991 -0.0894  0.7804 -0.9548
11308TIP3   OH255414   6.540   1.923  17.146  0.0081  0.0379  0.2582
11308TIP3    H155415   6.619   1.877  17.174 -0.2603 -0.0052  0.9637
11308TIP3    H255416   6.551   2.012  17.180 -0.9822 -0.3952  1.8220
11309TIP3   OH255417   5.512   2.296  13.463  0.1585  0.2672 -0.3150
11309TIP3    H155418   5.503   2.349  13.384  1.6774  0.6798 -0.2540
11309TIP3    H255419   5.600   2.317  13.496  0.2187 -1.1755  0.5371
11310TIP3   OH255420   2.055   5.386  12.664  0.9128 -1.1183 -0.2981
11310TIP3    H155421   2.095   5.406  12.749  0.6683 -0.3451 -0.3533
11310TIP3    H255422   2.119   5.330  12.620  1.8589 -0.0799 -0.3007
11311TIP3   OH255423   1.053   6.802   0.656 -0.0366  0.2161 -0.1262
11311TIP3    H155424   1.042   6.849   0.573  1.4859  2.7174  0.9679
11311TIP3    H255425   1.116   6.855   0.705 -0.9268 -1.1436  2.6732
11312TIP3   OH255426   6.345   3.689   3.777  0.2742  0.2714  0.0830
11312TIP3    H155427   6.368   3.780   3.760 -0.1976  0.4450  0.3334
11312TIP3    H255428   6.354   3.645   3.693 -0.9365  0.8689 -0.3828
11313TIP3   OH255429   2.548   6.684  11.223  0.0669 -0.0109  0.4916
11313TIP3    H155430   2.606   6.711  11.152 -0.9378 -0.4555 -0.5247
11313TIP3    H255431   2.507   6.604  11.192  0.0719 -0.5743  1.8497
11314TIP3   OH255432   4.497   4.495   6.286  0.0606  0.0176 -0.6059
11314TIP3    H155433   4.587   4.481   6.317 -0.3676 -0.2833  0.5877
11314TIP3    H255434   4.450   4.527   6.363 -0.6983  0.8890 -1.4027
11315TIP3   OH255435   5.680   0.514   0.361 -0.4739 -0.4397 -0.8142
11315TIP3    H155436   5.620   0.472   0.300 -0.8710 -0.6408 -0.3003
11315TIP3    H255437   5.759   0.530   0.310 -1.3061  0.7538 -1.7809
11316TIP3   OH255438   5.156   0.092   0.715  0.3931 -0.2495 -0.0478
11316TIP3    H155439   5.125   0.182   0.712 -1.3380 -0.8144 -0.7059
11316TIP3    H255440   5.250   0.099   0.727  0.4037  1.6675 -0.8874
11317TIP3   OH255441   3.412   3.742  15.812  0.0788  0.3012 -0.2188
11317TIP3    H155442   3.387   3.832  15.793 -0.1949  0.1353 -0.6329
11317TIP3    H255443   3.340   3.708  15.865  0.8758  0.7914  1.2734
11318TIP3   OH255444   4.921   6.819  16.239  0.0515  0.5531  0.3042
11318TIP3    H155445   4.991   6.757  16.219  0.7384  0.4676  2.6718
11318TIP3    H255446   4.949   6.901  16.198  1.2995  0.3843  0.7771
11319TIP3   OH255447   6.308   3.068   2.237 -0.3995 -0.7540 -0.2973
11319TIP3    H155448   6.320   3.111   2.152 -1.0753  1.3490  0.5854
11319TIP3    H255449   6.228   3.016   2.227  0.0829 -1.3253 -1.2344
11320TIP3   OH255450   5.023   5.622   2.457 -0.0073 -0.2365  0.0445
11320TIP3    H155451   5.101   5.678   2.455 -0.5897  0.5877 -1.8769
11320TIP3    H255452   5.019   5.590   2.547  2.3675 -0.0643  0.2967
11321TIP3   OH255453   6.622   5.268   0.118  0.6362 -0.5430  0.3105
11321TIP3    H155454   6.624   5.199   0.053  0.3079  1.3133 -1.7963
11321TIP3    H255455   6.657   5.228   0.198  1.9076 -2.6664 -1.2251
11322TIP3   OH255456   3.146   0.194  14.657 -0.2364 -0.2159 -0.0445
11322TIP3    H155457   3.206   0.267  14.672  0.3240 -0.8909  1.0855
11322TIP3    H255458   3.194   0.135  14.599 -0.6660  0.2543 -0.9072
11323TIP3   OH255459   5.062   2.504  10.956 -0.8173  0.2288  0.1294
11323TIP3    H155460   5.039   2.588  10.994  2.0999  0.7443  1.0589
11323TIP3    H255461   5.153   2.490  10.984 -1.6740 -4.0316  1.4594
11324TIP3   OH255462   0.436   6.564  16.797  0.0333  0.0412 -0.7718
11324TIP3    H155463   0.472   6.586  16.882 -1.4425 -0.6472  0.0728
11324TIP3    H255464   0.462   6.473  16.783 -1.0497 -0.3636 -0.2915
11325TIP3   OH255465   1.400   1.713   1.486 -0.6188 -0.3750  0.1446
11325TIP3    H155466   1.350   1.631   1.491  1.3577 -1.6037  0.9656
11325TIP3    H255467   1.406   1.731   1.392 -3.9559  0.7879  0.0122
11326TIP3   OH255468   0.817   4.988   4.864 -0.1703 -0.3595 -0.6823
11326TIP3    H155469   0.743   5.005   4.805  1.3728  1.4602 -2.2240
11326TIP3    H255470   0.874   4.929   4.815  0.5150  0.1400 -0.5027
11327TIP3   OH255471   2.577   2.331   0.414 -0.8423 -0.1270 -0.6897
11327TIP3    H155472   2.568   2.316   0.320 -2.6898 -1.2561 -0.4048
11327TIP3    H255473   2.492   2.367   0.441  0.2332  1.8302  0.3095
11328TIP3   OH255474   2.127   1.655   3.278  0.2035  0.1021 -0.0502
11328TIP3    H155475   2.178   1.727   3.240 -1.3238  1.7211  0.8176
11328TIP3    H255476   2.192   1.602   3.324  1.3846  0.9284 -0.7032
11329TIP3   OH255477   2.225   5.653  14.579  0.7314 -0.4611 -0.3411
11329TIP3    H155478   2.259   5.710  14.511  1.9482 -2.5481 -1.5660
11329TIP3    H255479   2.290   5.583  14.588 -0.4727 -1.4555  1.3749
11330TIP3   OH255480   0.332   0.321  11.773 -0.6541 -0.1243 -0.6376
11330TIP3    H155481   0.353   0.243  11.722 -0.2266 -1.1000  0.9669
11330TIP3    H255482   0.368   0.393  11.722 -0.8686 -0.9742 -2.0594
11331TIP3   OH255483   6.147   6.314   2.074  0.0032  0.3493  0.0987
11331TIP3    H155484   6.206   6.243   2.098  0.1363  0.7474  1.0109
11331TIP3    H255485   6.159   6.325   1.980 -0.0588 -0.8630 -0.0622
11332TIP3   OH255486   1.701   3.222   1.634  0.1028 -0.3117  0.7542
11332TIP3    H155487   1.642   3.268   1.694 -1.3170 -0.9304 -0.1131
11332TIP3    H255488   1.651   3.144   1.607  0.5982  0.0505 -1.3836
11333TIP3   OH255489   2.077   4.288   2.881 -0.0952 -0.2399 -0.8263
11333TIP3    H155490   2.079   4.195   2.904  1.2095 -0.2223 -0.7479
11333TIP3    H255491   2.005   4.324   2.932  1.8043 -0.4542  2.3424
11334TIP3   OH255492   2.556   1.324  13.992  0.3844  0.4930  0.3166
11334TIP3    H155493   2.560   1.229  14.001 -1.3486  0.4272  0.7051
11334TIP3    H255494   2.575   1.340  13.899 -0.3522 -0.3119  0.0144
11335TIP3   OH255495   5.703   0.768   5.111 -0.0445  0.3330  0.6584
11335TIP3    H155496   5.744   0.689   5.148  0.3280 -0.8085 -1.9970
11335TIP3    H255497   5.621   0.777   5.160  0.2089 -1.3411  1.4565
11336TIP3   OH255498   1.975   0.099  15.393  0.1856 -0.1405  0.0373
11336TIP3    H155499   1.994   0.075  15.483 -0.8026 -0.2663  0.2242
11336TIP3    H255500   1.981   0.016  15.344 -1.8000 -0.5634  0.4375
11337TIP3   OH255501   0.884   3.668   5.918 -0.2497 -0.2740 -0.0454
11337TIP3    H155502   0.979   3.662   5.915 -0.2589 -0.0076 -1.4933
11337TIP3    H255503   0.866   3.721   5.996  0.8345  0.4521 -0.2653
11338TIP3   OH255504   2.148   4.134  13.906  0.2258  0.1879 -0.1023
11338TIP3    H155505   2.122   4.052  13.949 -0.4668  0.6182  0.3202
11338TIP3    H255506   2.191   4.184  13.975 -0.3073  0.6133 -0.0714
11339TIP3   OH255507   1.234   0.115  13.695  0.0503  0.3024  0.4177
11339TIP3    H155508   1.294   0.116  13.769  0.2619 -0.7406  0.2699
11339TIP3    H255509   1.212   0.023  13.683  1.3385  0.2279 -1.8656
11340TIP3   OH255510   2.669   1.235   3.129  0.2330 -0.5901 -0.2746
11340TIP3    H155511   2.705   1.312   3.174 -0.1860 -1.0001  0.7935
11340TIP3    H255512   2.618   1.272   3.057  1.0787  0.0765 -0.5517
11341TIP3   OH255513   5.632   4.878  12.512  0.0438  0.5145 -0.3631
11341TIP3    H155514   5.712   4.897  12.462  1.3401  0.1515  1.4676
11341TIP3    H255515   5.634   4.783  12.526  1.5162  0.9147  3.0893
11342TIP3   OH255516   3.797   3.155   3.633 -0.1388  0.5301  0.2023
11342TIP3    H155517   3.703   3.164   3.648 -0.5354 -1.1160 -0.9803
11342TIP3    H255518   3.816   3.064   3.657  0.3131 -0.4169 -3.1503
11343TIP3   OH255519   3.304   3.452  13.144 -0.1508  1.1064 -0.1739
11343TIP3    H155520   3.394   3.441  13.112 -0.5288 -2.0932 -0.4574
11343TIP3    H255521   3.249   3.422  13.072 -1.4510  2.2627  0.2911
11344TIP3   OH255522   0.742   5.727  13.622  0.0095  0.0133 -0.1858
11344TIP3    H155523   0.782   5.672  13.689 -0.0727 -1.6285 -1.4196
11344TIP3    H255524   0.812   5.787  13.595  0.8571 -1.0805 -0.4695
11345TIP3   OH255525   2.824   6.127   0.761  0.8930  0.2654 -0.4875
11345TIP3    H155526   2.896   6.101   0.704  0.1352 -2.0104 -0.5468
11345TIP3    H255527   2.819   6.057   0.826 -0.6453  0.8584  0.0788
11346TIP3   OH255528   4.809   0.897  12.855  0.0589 -0.3605  0.8236
11346TIP3    H155529   4.873   0.849  12.802 -1.0364 -0.7750 -0.1738
11346TIP3    H255530   4.762   0.830  12.903  0.1176 -0.0886  1.2646
11347TIP3   OH255531   6.473   3.521  13.838 -0.0982  0.2193  0.0895
11347TIP3    H155532   6.498   3.597  13.891 -0.4898  0.6985 -0.4031
11347TIP3    H255533   6.379   3.530  13.826 -0.0488 -0.0113 -0.4970
11348TIP3   OH255534   6.633   1.175   4.008  0.2869 -0.4138  0.0535
11348TIP3    H155535   6.690   1.224   3.949  0.4312  0.4778  0.9116
11348TIP3    H255536   6.587   1.241   4.058  1.3582 -1.0956  2.0837
11349TIP3   OH255537   6.006   6.673  15.396 -0.7727  0.4341  0.4616
11349TIP3    H155538   6.028   6.592  15.351  0.5385 -0.1331  2.0080
11349TIP3    H255539   5.914   6.688  15.376 -0.2689  0.2446 -2.3440
11350TIP3   OH255540   2.344   1.098   4.428 -0.5958  0.5529  0.2155
11350TIP3    H155541   2.436   1.076   4.444 -0.3310  2.1385  1.1443
11350TIP3    H255542   2.323   1.160   4.498 -2.8249 -0.9069  0.9100
11351TIP3   OH255543   3.135   6.221  13.668 -0.3755  0.4837 -0.0701
11351TIP3    H155544   3.086   6.249  13.591 -0.8162 -0.8549 -0.3030
11351TIP3    H255545   3.073   6.171  13.720  0.3982 -0.1505  0.2674
11352TIP3   OH255546   1.152   5.804   3.625  0.1145 -0.5524 -0.4139
11352TIP3    H155547   1.230   5.771   3.582  0.1854  0.0666 -0.7770
11352TIP3    H255548   1.091   5.822   3.554 -0.8251 -2.1812 -0.0526
11353TIP3   OH255549   6.208   3.413  14.150  0.4331 -0.4123  0.4054
11353TIP3    H155550   6.270   3.416  14.224  0.5481 -0.1709  0.2988
11353TIP3    H255551   6.189   3.320  14.139 -0.3648 -0.3933  1.3915
11354TIP3   OH255552   5.256   0.770  13.456  0.1757  0.3472  0.2219
11354TIP3    H155553   5.226   0.860  13.443  0.4105  0.6927  1.8181
11354TIP3    H255554   5.177   0.719  13.471  0.1318  0.5613  0.7279
11355TIP3   OH255555   0.063   2.323  15.842  0.2879  0.0211  0.3054
11355TIP3    H155556   0.050   2.414  15.815 -0.4363  0.0822  0.8381
11355TIP3    H255557   0.152   2.302  15.813  0.8907  1.2494  1.1421
11356TIP3   OH255558   3.580   4.857  11.903 -0.1497  0.2517  0.1894
11356TIP3    H155559   3.646   4.926  11.898  1.2274 -0.9500  0.9068
11356TIP3    H255560   3.505   4.898  11.945  0.7784  1.2257  0.9432
11357TIP3   OH255561   5.931   3.800   0.681 -0.8582  0.3252  0.3275
11357TIP3    H155562   5.962   3.744   0.752 -0.9207  0.9995  0.9063
11357TIP3    H255563   6.004   3.860   0.664 -0.6249 -0.1965 -0.5880
11358TIP3   OH255564   3.155   1.302   3.311 -1.0509 -0.0324  0.3098
11358TIP3    H155565   3.197   1.273   3.229 -2.6526  0.3841 -0.7072
11358TIP3    H255566   3.096   1.373   3.284 -1.3493  0.3515  1.8929
11359TIP3   OH255567   4.293   3.860  11.693  0.5324  0.0717  0.0749
11359TIP3    H155568   4.208   3.902  11.709  0.2761  0.2895 -1.6744
11359TIP3    H255569   4.296   3.847  11.598  1.5285 -1.9125  0.3260
11360TIP3   OH255570   1.265   2.664  16.975  0.0340  0.0991  0.8867
11360TIP3    H155571   1.351   2.655  16.936 -0.0700  1.3712  0.3166
11360TIP3    H255572   1.208   2.610  16.921  0.3495 -0.2141  0.8619
11361TIP3   OH255573   6.819   6.380  13.418 -0.2152 -0.0263  0.4437
11361TIP3    H155574   6.747   6.432  13.384 -2.2733 -1.0905  2.8559
11361TIP3    H255575   6.893   6.401  13.361 -1.7735  2.9304 -0.6927
11362TIP3   OH255576   1.143   3.460   5.152  0.3630  0.0698 -0.3667
11362TIP3    H155577   1.103   3.375   5.137  2.9876 -1.2839 -0.3001
11362TIP3    H255578   1.195   3.476   5.073  0.9476  0.9756  0.1766
11363TIP3   OH255579   2.227   4.646   1.409  0.3772  0.3047  0.6148
11363TIP3    H155580   2.154   4.681   1.358 -1.4439 -0.9183  2.2450
11363TIP3    H255581   2.290   4.617   1.343 -0.2841  1.9466 -0.8271
11364TIP3   OH255582   4.731   5.560  13.627  0.5221 -0.1154  0.2390
11364TIP3    H155583   4.716   5.466  13.612 -1.6706  0.2032  0.0432
11364TIP3    H255584   4.748   5.566  13.721  0.7832 -0.7182  0.2395
11365TIP3   OH255585   4.083   3.256   3.075  0.2768 -0.5363 -0.0370
11365TIP3    H155586   4.131   3.251   3.157  1.5840  0.9886 -0.6657
11365TIP3    H255587   3.991   3.248   3.101  0.7632 -2.3656  1.3021
11366TIP3   OH255588   4.955   1.217   5.692  0.0486 -0.0707 -0.8216
11366TIP3    H155589   5.007   1.139   5.708  1.4292  0.7776 -1.0318
11366TIP3    H255590   5.006   1.289   5.730 -1.3465  0.7064 -0.3239
11367TIP3   OH255591   0.783   1.338  15.573  0.0436 -0.6145  0.0709
11367TIP3    H155592   0.837   1.335  15.495 -1.8867  1.2866 -1.4654
11367TIP3    H255593   0.771   1.431  15.590 -1.8059 -0.9753  0.9821
11368TIP3   OH255594   2.273   0.394  14.891 -0.0446  0.0238  0.2611
11368TIP3    H155595   2.341   0.459  14.875 -0.5888  0.6546  0.4745
11368TIP3    H255596   2.193   0.433  14.856 -1.1038  1.0473  3.4740
11369TIP3   OH255597   0.219   1.664  14.305  0.3559  0.3128  0.0501
11369TIP3    H155598   0.199   1.756  14.291 -0.4574  0.2850  0.9239
11369TIP3    H255599   0.273   1.639  14.230  0.1085  1.3489 -0.4842
11370TIP3   OH255600   1.286   2.156  12.791 -0.7759 -0.0157  0.1924
11370TIP3    H155601   1.320   2.134  12.705  0.1064 -1.9634  0.9894
11370TIP3    H255602   1.266   2.072  12.832 -1.1198  0.8498  1.9279
11371TIP3   OH255603   5.359   6.102   5.038  0.0962  0.2794 -0.2656
11371TIP3    H155604   5.416   6.160   5.087 -0.2758  0.2957  0.1448
11371TIP3    H255605   5.299   6.065   5.103  0.4160 -0.6711 -0.4892
11372TIP3   OH255606   1.017   0.169  11.857 -0.9046 -0.7846 -0.1516
11372TIP3    H155607   1.004   0.210  11.772  2.2922  1.0752  0.0974
11372TIP3    H255608   1.061   0.086  11.838 -1.2869 -0.9488 -0.3340
11373TIP3   OH255609   1.430   3.496   3.906  0.1697  0.2436 -0.2673
11373TIP3    H155610   1.461   3.503   3.996  1.6941 -1.2817 -0.6008
11373TIP3    H255611   1.397   3.406   3.899 -0.7220  0.6083 -1.0235
11374TIP3   OH255612   3.362   4.642  14.209 -0.3543 -0.7317  0.1292
11374TIP3    H155613   3.306   4.568  14.183  0.3784 -2.1815  2.3725
11374TIP3    H255614   3.330   4.667  14.295  1.4302 -0.5652  0.7781
11375TIP3   OH255615   6.797   6.687  12.683 -0.1311  0.1910 -0.2031
11375TIP3    H155616   6.865   6.622  12.701  1.3942  1.3793 -1.3868
11375TIP3    H255617   6.719   6.653  12.727  0.2475 -3.0360 -1.7557
11376TIP3   OH255618   4.096   6.392   4.057  0.5913  0.7967 -0.5856
11376TIP3    H155619   4.129   6.470   4.011  3.5213 -1.6911 -3.1634
11376TIP3    H255620   4.173   6.358   4.103 -0.8663 -0.1265  1.3050
11377TIP3   OH255621   1.323   2.964  13.993  0.0292  0.0989  0.1476
11377TIP3    H155622   1.279   3.045  13.966  0.5895 -0.3184 -2.2103
11377TIP3    H255623   1.252   2.906  14.018 -0.7396  0.0058 -2.0109
11378TIP3   OH255624   4.920   1.298  12.318 -0.5691 -0.4920 -0.4981
11378TIP3    H155625   4.942   1.236  12.387 -1.2092  0.8312  0.9499
11378TIP3    H255626   5.003   1.340  12.295 -0.7392  1.2030  1.6741
11379TIP3   OH255627   3.003   1.687   3.983 -0.1873  0.2414 -0.1053
11379TIP3    H155628   2.941   1.618   3.959  0.3951 -0.9696  1.6540
11379TIP3    H255629   2.964   1.729   4.060  1.1821 -0.6385  1.1200
11380TIP3   OH255630   2.600   2.925  13.982 -0.1915 -0.4963 -0.5334
11380TIP3    H155631   2.616   3.019  13.981 -1.0861 -0.3223  0.1134
11380TIP3    H255632   2.575   2.904  13.892 -0.4015 -0.0394 -0.5859
11381TIP3   OH255633   4.065   4.200  16.798 -0.1169 -0.2421  0.1034
11381TIP3    H155634   4.143   4.145  16.788  0.7769  1.0226 -0.1731
11381TIP3    H255635   4.007   4.150  16.856  0.9387 -1.1766  0.3833
11382TIP3   OH255636   5.230   1.093  11.365 -0.7550  0.1915  0.0475
11382TIP3    H155637   5.277   1.150  11.426  0.8886  0.0380 -1.0062
11382TIP3    H255638   5.289   1.084  11.290 -2.0633 -0.8488 -0.9136
11383TIP3   OH255639   6.169   3.852   4.133  0.5002  0.3735 -0.6505
11383TIP3    H155640   6.253   3.837   4.177  0.2905  1.8626  0.3461
11383TIP3    H255641   6.143   3.766   4.099 -0.3988 -1.4991  4.0480
11384TIP3   OH255642   1.924   3.837  13.842 -0.2114 -0.4921 -0.0611
11384TIP3    H155643   1.917   3.784  13.921 -0.1661 -0.4854 -0.0525
11384TIP3    H255644   1.981   3.788  13.784  0.6702  0.0351  0.3455
11385TIP3   OH255645   2.584   1.058  17.138  0.6696 -0.3400 -0.1641
11385TIP3    H155646   2.593   1.008  17.219 -0.1213 -0.5583 -0.1997
11385TIP3    H255647   2.581   0.991  17.069  1.1891 -0.1639 -0.3591
11386TIP3   OH255648   0.232   6.328   2.691  0.4413 -0.1367 -0.4804
11386TIP3    H155649   0.318   6.288   2.709  1.5553  2.4185  0.4199
11386TIP3    H255650   0.216   6.309   2.599  2.3547 -0.1127 -0.8771
11387TIP3   OH255651   0.029   0.271  11.012  0.2168  0.2271 -0.1515
11387TIP3    H155652   0.029   0.320  10.930 -2.4667 -1.3557 -1.2090
11387TIP3    H255653  -0.039   0.205  11.001 -0.2021 -0.1108  3.3548
11388TIP3   OH255654   3.357   1.745   0.143 -0.0578  0.2988  0.1422
11388TIP3    H155655   3.385   1.821   0.091  0.7592 -0.0012  0.1277
11388TIP3    H255656   3.264   1.761   0.161  0.4488  2.1310  1.5259
11389TIP3   OH255657   2.626   1.654   0.695  0.5442 -0.6731  0.4319
11389TIP3    H155658   2.576   1.584   0.652  0.5454 -1.2297  1.3193
11389TIP3    H255659   2.689   1.682   0.628  0.5175 -1.4937  0.0486
11390TIP3   OH255660   6.657   4.321  15.468 -0.2534 -1.1843 -0.0015
11390TIP3    H155661   6.672   4.376  15.391  0.7294  0.8777  1.5664
11390TIP3    H255662   6.576   4.356  15.506  1.5654  0.8837  2.2756
11391TIP3   OH255663   1.920   0.885   4.673  0.1687  0.4305 -0.3330
11391TIP3    H155664   1.950   0.857   4.587 -0.9579  1.4237 -1.0849
11391TIP3    H255665   1.997   0.880   4.729  1.2792  1.1725 -1.7533
11392TIP3   OH255666   2.413   5.117  15.309  0.4558  0.3757 -0.0338
11392TIP3    H155667   2.478   5.172  15.266  1.4215 -0.0732  0.8099
11392TIP3    H255668   2.453   5.094  15.393 -0.0365 -1.4016 -0.2644
11393TIP3   OH255669   1.455   1.060   1.752  0.2412 -0.2190  0.8677
11393TIP3    H155670   1.498   1.022   1.675  1.7812 -0.1315  1.6436
11393TIP3    H255671   1.404   0.988   1.789  0.5493 -0.6316  0.5084
11394TIP3   OH255672   0.366   1.165   3.893 -0.1361  0.6846 -0.2772
11394TIP3    H155673   0.382   1.206   3.978  1.6329 -0.8691  0.2001
11394TIP3    H255674   0.360   1.072   3.912  3.9342 -0.1624 -2.1542
11395TIP3   OH255675   3.736   5.810   1.850 -0.0453  0.3773 -0.1858
11395TIP3    H155676   3.689   5.729   1.873  0.0472 -0.0827 -1.5193
11395TIP3    H255677   3.680   5.852   1.784 -0.8543  2.2059  1.5689
11396TIP3   OH255678   6.750   5.390  13.405  0.0112 -0.7544 -0.1964
11396TIP3    H155679   6.767   5.482  13.427 -0.0412 -1.0994  1.3215
11396TIP3    H255680   6.832   5.359  13.367 -0.0960  0.0163 -1.0909
11397TIP3   OH255681   2.835   2.947  15.122  0.6666 -0.4225  0.0700
11397TIP3    H155682   2.850   2.873  15.063  0.1619  0.3952 -1.1253
11397TIP3    H255683   2.917   2.997  15.120  1.3492 -1.4027  1.6082
11398TIP3   OH255684   5.295   4.201  15.183 -0.3120  0.0251 -0.0799
11398TIP3    H155685   5.265   4.249  15.260 -1.9156 -0.7157 -0.2009
11398TIP3    H255686   5.230   4.132  15.171  1.1467 -1.2802 -0.7785
11399TIP3   OH255687   0.692   0.840   1.912 -0.1073 -0.2508  0.2042
11399TIP3    H155688   0.694   0.876   1.823  0.1690  2.6246  1.2744
11399TIP3    H255689   0.607   0.866   1.947  0.1255 -0.6174  1.0829
11400TIP3   OH255690   0.676   0.809   2.721 -0.5774  0.3970 -0.2888
11400TIP3    H155691   0.761   0.853   2.721  1.8891 -3.7107  1.7417
11400TIP3    H255692   0.641   0.824   2.809 -1.1372  0.6419 -0.5474
11401TIP3   OH255693   4.446   4.865  17.012 -0.3036 -0.2039 -0.1102
11401TIP3    H155694   4.520   4.924  17.002 -0.1889 -0.5813 -1.9470
11401TIP3    H255695   4.482   4.788  17.056  0.5493 -0.5810 -1.4050
11402TIP3   OH255696   4.614   0.347  16.348 -0.8921 -0.4682 -0.4812
11402TIP3    H155697   4.520   0.360  16.335 -0.8213 -0.1464 -0.6644
11402TIP3    H255698   4.638   0.413  16.413 -1.1093 -1.6029  0.8058
11403TIP3   OH255699   3.293   2.617  16.036  0.1911 -0.2436 -0.0171
11403TIP3    H155700   3.233   2.571  16.095  0.7472 -1.3371 -0.2808
11403TIP3    H255701   3.367   2.558  16.026  1.8161  1.4676  1.0720
11404TIP3   OH255702   0.572   5.116   3.326 -0.3676 -0.1381  0.3900
11404TIP3    H155703   0.478   5.112   3.344 -0.6106  0.7599 -0.5984
11404TIP3    H255704   0.580   5.171   3.248  1.0057  0.0732  0.6447
11405TIP3   OH255705   0.107   0.667   5.844  0.0775  0.3873  0.2522
11405TIP3    H155706   0.132   0.622   5.763  0.5996 -1.3786  1.3377
11405TIP3    H255707   0.149   0.753   5.837 -1.4807  1.0381 -2.1793
11406TIP3   OH255708   5.900   2.164  13.563  0.3169 -0.0040 -0.2667
11406TIP3    H155709   5.891   2.144  13.656  0.9022 -2.3385 -0.6635
11406TIP3    H255710   5.941   2.251  13.561 -0.3248  0.3785  1.6246
11407TIP3   OH255711   3.986   3.006   2.637 -0.4529 -0.3077  0.2976
11407TIP3    H155712   3.910   2.949   2.624  0.8725 -1.8487 -1.3996
11407TIP3    H255713   4.032   3.003   2.552  1.4655  0.5710  1.2425
11408TIP3   OH255714   2.114   4.366   1.788  0.8271 -0.0825  0.0137
11408TIP3    H155715   2.078   4.327   1.868  0.3631 -2.2202 -1.1619
11408TIP3    H255716   2.155   4.292   1.742 -0.0404  0.8101 -2.3136
11409TIP3   OH255717   4.851   2.557   5.950 -0.6218  0.5205 -0.7371
11409TIP3    H155718   4.926   2.609   5.921 -0.2876  0.6907  0.3897
11409TIP3    H255719   4.831   2.500   5.875 -0.3804  1.5717 -1.6335
11410TIP3   OH255720   2.211   3.713  12.948 -0.3480  0.2504  0.2135
11410TIP3    H155721   2.144   3.728  12.881 -1.4937 -0.9564  1.0276
11410TIP3    H255722   2.195   3.623  12.978  1.3840  0.0764  0.7480
11411TIP3   OH255723   0.477   5.751   2.524  1.0293  0.1431  0.7951
11411TIP3    H155724   0.444   5.782   2.609  1.0795  0.6853  0.6217
11411TIP3    H255725   0.399   5.734   2.472  1.0102  0.9003  0.5691
11412TIP3   OH255726   1.919   0.250   5.383  0.0565 -0.1226 -0.5170
11412TIP3    H155727   1.844   0.224   5.437 -0.7229 -2.1781 -2.4502
11412TIP3    H255728   1.963   0.168   5.361  0.4865  0.6388 -2.7599
11413TIP3   OH255729   2.645   0.870   2.413  0.0757  0.1436  0.6529
11413TIP3    H155730   2.570   0.903   2.462 -1.1671  0.6303 -1.4443
11413TIP3    H255731   2.661   0.783   2.449 -1.0096  0.3248  1.6385
11414TIP3   OH255732   0.336   2.600   1.095  0.1060 -0.3320 -0.5557
11414TIP3    H155733   0.287   2.541   1.038 -2.5658  0.2233  1.0251
11414TIP3    H255734   0.404   2.545   1.134 -0.0668 -1.4780 -1.7991
11415TIP3   OH255735   1.690   5.777   3.686  0.1020  0.2152  0.5877
11415TIP3    H155736   1.700   5.694   3.640  1.1540  0.1470  0.9137
11415TIP3    H255737   1.642   5.833   3.624  2.0097  0.3235 -0.9087
11416TIP3   OH255738   5.081   0.606   5.636  0.1928  0.2912 -0.0852
11416TIP3    H155739   5.145   0.535   5.629  0.4962  0.6550 -1.3118
11416TIP3    H255740   5.007   0.577   5.582 -0.3523  0.2314  0.6757
11417TIP3   OH255741   5.482   3.943   0.434  0.0948  0.0094 -0.4828
11417TIP3    H155742   5.526   3.984   0.508 -0.3261  0.2010 -0.3426
11417TIP3    H255743   5.455   3.857   0.467  0.9818 -0.4017 -0.7780
11418TIP3   OH255744   5.976   6.564  15.833  0.1341 -1.0139  0.5202
11418TIP3    H155745   5.901   6.604  15.877  0.5817  1.4549 -0.8484
11418TIP3    H255746   6.049   6.576  15.894  0.1597 -0.1890  0.3284
11419TIP3   OH255747   1.876   3.524   3.624 -0.4668  0.0839 -0.1818
11419TIP3    H155748   1.841   3.446   3.668  1.1505  0.2228  1.4757
11419TIP3    H255749   1.907   3.580   3.695  1.7309  0.6132 -1.4536
11420TIP3   OH255750   5.373   6.437  12.620 -0.4970  0.3439 -0.0690
11420TIP3    H155751   5.363   6.407  12.530 -1.6784 -3.7346  1.2034
11420TIP3    H255752   5.319   6.515  12.626  0.1489  1.1134 -2.9941
11421TIP3   OH255753   6.018   2.577   0.242 -0.3194 -0.1339  0.4974
11421TIP3    H155754   6.096   2.634   0.236 -0.3238 -0.2655 -1.0662
11421TIP3    H255755   5.999   2.575   0.336  0.6500  1.1423  0.7697
11422TIP3   OH255756   0.648   2.875   1.098  0.5790 -0.6109  0.3197
11422TIP3    H155757   0.665   2.807   1.034  1.0775  0.6213 -0.9102
11422TIP3    H255758   0.614   2.949   1.047  2.8199  1.1044  1.1242
11423TIP3   OH255759   6.397   5.284  15.491  0.3870 -0.4579  0.3708
11423TIP3    H155760   6.311   5.269  15.451  0.0004 -0.7995  1.3069
11423TIP3    H255761   6.458   5.285  15.417 -0.2603 -1.4365 -0.1944
11424TIP3   OH255762   1.185   3.704  15.550  0.5558  0.0955 -0.0526
11424TIP3    H155763   1.216   3.614  15.536  1.4596  0.3152  0.4656
11424TIP3    H255764   1.170   3.738  15.462 -1.6442 -1.1653 -0.2350
11425TIP3   OH255765   3.911   6.643   2.745  0.0133  0.0550 -0.1429
11425TIP3    H155766   3.935   6.562   2.789 -0.8012  0.0766  0.3548
11425TIP3    H255767   3.902   6.619   2.653  0.7522 -0.1969 -0.1576
11426TIP3   OH255768   4.073   5.838   1.735  0.3003  0.4080 -0.0341
11426TIP3    H155769   4.050   5.855   1.644  1.3852  1.9815 -0.0571
11426TIP3    H255770   3.994   5.800   1.774 -0.3546  0.2520 -1.4766
11427TIP3   OH255771   0.682   6.719   5.458  0.0920  0.0642  0.3216
11427TIP3    H155772   0.728   6.636   5.449 -0.5189 -0.2883  0.4307
11427TIP3    H255773   0.595   6.695   5.489 -0.6922  0.6057 -1.3586
11428TIP3   OH255774   6.498   5.941  16.022  0.2357  0.1748  0.2229
11428TIP3    H155775   6.438   5.969  15.953 -0.7080  0.2090  1.0374
11428TIP3    H255776   6.574   5.998  16.013  0.7344 -0.6934 -1.6383
11429TIP3   OH255777   5.950   0.967  16.845  0.4532  0.4117  0.0313
11429TIP3    H155778   5.992   0.995  16.763 -0.1824  0.3759 -0.3188
11429TIP3    H255779   5.867   1.014  16.846  0.3016  0.1392  0.4853
11430TIP3   OH255780   4.839   3.614  16.224 -0.2737 -0.0261  0.0090
11430TIP3    H155781   4.766   3.633  16.282 -0.8821 -0.3958 -0.6080
11430TIP3    H255782   4.799   3.570  16.149  0.7945 -1.9203  0.4680
11431TIP3   OH255783   0.397   2.183   6.524  0.4284 -0.0982  0.2218
11431TIP3    H155784   0.339   2.197   6.449 -0.4842 -0.2199  0.8794
11431TIP3    H255785   0.443   2.102   6.503 -1.0869 -1.0893  0.5276
11432TIP3   OH255786   0.020   5.562   5.606  0.0993  0.0936  0.7894
11432TIP3    H155787   0.110   5.577   5.578  0.2726 -1.5442  0.3909
11432TIP3    H255788  -0.020   5.513   5.535 -1.5421  1.9199  0.3554
11433TIP3   OH255789   4.489   5.199   1.059  0.3191  0.0723  0.2911
11433TIP3    H155790   4.452   5.216   1.145 -1.9809 -0.2379 -0.5710
11433TIP3    H255791   4.421   5.151   1.012  1.8861 -0.6636 -1.3936
11434TIP3   OH255792   3.399   2.443   2.360 -0.0226  0.3355  0.3988
11434TIP3    H155793   3.383   2.381   2.288 -0.4157  1.1773 -0.2547
11434TIP3    H255794   3.457   2.396   2.419 -0.8350 -0.9122  0.2516
11435TIP3   OH255795   2.350   0.958  13.980  0.2521 -0.0226  0.1118
11435TIP3    H155796   2.281   1.011  13.940  1.3580  2.4119  1.2908
11435TIP3    H255797   2.337   0.871  13.942 -1.8597  0.9539 -1.6354
11436TIP3   OH255798   3.270   4.703   0.628 -0.6095 -0.1479 -0.1869
11436TIP3    H155799   3.282   4.766   0.557  0.1621  0.4682  0.4681
11436TIP3    H255800   3.183   4.665   0.612 -1.0064  0.9375 -0.7091
11437TIP3   OH255801   4.026   2.009   7.048 -0.3048 -0.8086 -0.2674
11437TIP3    H155802   3.988   1.924   7.025  1.5303 -1.7506 -0.0385
11437TIP3    H255803   4.039   2.052   6.964 -0.0853 -1.2966 -0.4913
11438TIP3   OH255804   0.699   0.003  12.473 -0.1465 -0.1530 -0.4465
11438TIP3    H155805   0.673  -0.041  12.392  0.0379 -0.3350 -0.4060
11438TIP3    H255806   0.750   0.079  12.444  0.1868 -0.3923 -0.4925
11439TIP3   OH255807   1.605   0.370   5.495  0.1911 -0.0881 -0.1510
11439TIP3    H155808   1.534   0.308   5.513 -2.4612  1.4560 -3.8304
11439TIP3    H255809   1.601   0.433   5.567 -1.2794 -0.8181  0.4483
11440TIP3   OH255810   1.001   1.716   0.923  0.2808 -0.0401 -0.5508
11440TIP3    H155811   1.076   1.688   0.975 -0.4442 -0.7198  0.1670
11440TIP3    H255812   1.037   1.777   0.859  1.2752  0.4723  0.4562
11441TIP3   OH255813   5.800   0.572   1.531 -0.0280 -0.4321 -0.1495
11441TIP3    H155814   5.867   0.523   1.482  1.0956  0.7508  0.1533
11441TIP3    H255815   5.796   0.529   1.616 -0.2926 -1.0359 -0.4562
11442TIP3   OH255816   1.570   6.341   4.751  0.5803 -0.0976 -0.2051
11442TIP3    H155817   1.524   6.425   4.754 -1.0722 -0.9806  0.6032
11442TIP3    H255818   1.508   6.282   4.710  1.1342 -1.2651  0.5971
11443TIP3   OH255819   4.927   4.528  13.228  0.2861  1.0304  0.2069
11443TIP3    H155820   4.936   4.554  13.320  0.6559  1.4302  0.0543
11443TIP3    H255821   4.984   4.452  13.219  1.4483  1.9260 -0.0794
11444TIP3   OH255822   3.874   3.124   4.634  0.0223  0.4207  0.4844
11444TIP3    H155823   3.918   3.209   4.626  0.3224  0.0914 -1.9539
11444TIP3    H255824   3.787   3.139   4.598 -0.0956 -0.1798  0.5091
11445TIP3   OH255825   2.351   2.226   1.566  0.0271  0.4311  0.4530
11445TIP3    H155826   2.258   2.231   1.545 -0.1649  1.0512  1.3475
11445TIP3    H255827   2.389   2.172   1.497 -1.4127 -1.9962  1.4242
11446TIP3   OH255828   2.927   3.422  16.460 -0.1147  0.2376 -0.0156
11446TIP3    H155829   2.964   3.336  16.478 -0.0683  0.2695  0.0440
11446TIP3    H255830   2.993   3.466  16.406 -0.5100 -0.0659 -0.7528
11447TIP3   OH255831   5.614   4.029  14.812  0.2137 -0.0669 -0.0194
11447TIP3    H155832   5.534   3.975  14.811  0.1419  0.0309 -1.1899
11447TIP3    H255833   5.657   4.007  14.895 -1.1807  0.1173  0.7992
11448TIP3   OH255834   1.126   0.636   3.252 -0.4089 -0.4228  0.2568
11448TIP3    H155835   1.142   0.569   3.185 -0.6493 -0.2569  0.0324
11448TIP3    H255836   1.055   0.600   3.305 -1.3676  0.1787 -0.5948
11449TIP3   OH255837   3.907   2.911  16.821 -0.4664  0.4180  0.5170
11449TIP3    H155838   3.861   2.956  16.751 -1.6522 -0.8503  0.4268
11449TIP3    H255839   3.988   2.880  16.781 -0.4944  0.8858  0.0916
11450TIP3   OH255840   4.385   3.367   4.281 -0.1745  0.0987  0.3026
11450TIP3    H155841   4.339   3.451   4.284  0.4228  0.3864  1.9686
11450TIP3    H255842   4.442   3.375   4.205 -1.2121  0.5974 -0.4602
11451TIP3   OH255843   3.316   3.395   4.632  0.7030 -0.5998  0.2896
11451TIP3    H155844   3.347   3.430   4.549  0.6292  1.8091  1.1958
11451TIP3    H255845   3.384   3.335   4.661  2.5985  1.4191  0.2459
11452TIP3   OH255846   2.256   0.813   1.804  0.2298 -0.3229  0.0089
11452TIP3    H155847   2.191   0.795   1.873  0.6391 -1.5853  0.0821
11452TIP3    H255848   2.329   0.755   1.824  1.0496  0.4849 -0.5628
11453TIP3   OH255849   3.772   0.583   2.403  0.2748  0.2279 -0.3439
11453TIP3    H155850   3.713   0.631   2.462  1.5061  1.1227  0.1945
11453TIP3    H255851   3.713   0.533   2.347 -0.9732  0.1601  0.9568
11454TIP3   OH255852   0.490   5.859  15.436 -0.6456 -0.1422  0.2030
11454TIP3    H155853   0.486   5.805  15.516  0.8836 -1.7361 -0.7349
11454TIP3    H255854   0.411   5.834  15.387 -1.1461  0.2084  0.8191
11455TIP3   OH255855   2.905   5.234  13.648 -0.5908 -0.1796  0.0417
11455TIP3    H155856   2.870   5.297  13.585 -0.3917  1.3258  1.3804
11455TIP3    H255857   3.000   5.245  13.643 -0.6022  0.6600  1.2576
11456TIP3   OH255858   2.749   1.166   4.850 -0.2233  0.0429  0.5315
11456TIP3    H155859   2.717   1.160   4.940  0.5687 -0.6740  0.7800
11456TIP3    H255860   2.774   1.258   4.840 -0.1799  0.0976  1.0969
11457TIP3   OH255861   3.926   2.804   2.082 -0.5679  0.1519  0.2332
11457TIP3    H155862   3.855   2.792   2.145 -0.5566  1.4860  0.5376
11457TIP3    H255863   4.002   2.825   2.135 -0.1545 -0.3633 -0.1453
11458TIP3   OH255864   0.551   1.411   1.093 -0.3167  0.6513 -0.2980
11458TIP3    H155865   0.516   1.327   1.062 -1.6727  0.7313  0.8873
11458TIP3    H255866   0.511   1.422   1.180  2.0139  1.2131  0.7686
11459TIP3   OH255867   6.677   2.515  16.354 -0.4109  0.0774 -0.2457
11459TIP3    H155868   6.678   2.420  16.340  1.3077 -0.1052  0.8523
11459TIP3    H255869   6.742   2.549  16.292  1.3981  0.1369  1.6122
11460TIP3   OH255870   2.014   3.186   3.800  0.0220  0.4122  0.0751
11460TIP3    H155871   2.045   3.169   3.889 -0.3251 -1.9651 -0.1826
11460TIP3    H255872   2.082   3.150   3.744 -1.0810 -0.8179 -0.5402
11461TIP3   OH255873   5.340   2.252   1.121  0.3728 -0.1837  0.1323
11461TIP3    H155874   5.272   2.232   1.185  1.4695  0.7486  1.6645
11461TIP3    H255875   5.294   2.254   1.037 -1.4306  0.2025  1.0774
11462TIP3   OH255876   3.415   4.886  15.392  0.3792  0.2904 -0.1860
11462TIP3    H155877   3.498   4.935  15.391  0.3802  0.3098  0.4178
11462TIP3    H255878   3.351   4.947  15.428  0.5144 -0.3343  1.1926
11463TIP3   OH255879   5.016   6.045  14.034 -0.1578  0.4284 -0.1015
11463TIP3    H155880   5.066   5.988  14.093  0.9902  2.8640  1.4174
11463TIP3    H255881   5.062   6.038  13.950  0.6537 -0.0104  0.3686
11464TIP3   OH255882   2.003   2.618   2.595 -0.1363  0.1177 -0.2000
11464TIP3    H155883   1.924   2.662   2.564 -1.0408 -1.9180 -0.9619
11464TIP3    H255884   1.975   2.570   2.673  0.6509  0.3628  0.2424
11465TIP3   OH255885   2.572   3.803   4.869 -0.2385 -0.1500  0.2780
11465TIP3    H155886   2.542   3.713   4.872  3.6219 -1.6526 -0.1982
11465TIP3    H255887   2.535   3.839   4.789  1.0338 -2.5871 -1.5304
11466TIP3   OH255888   2.478   2.574  12.581 -0.5433 -0.3768  0.5702
11466TIP3    H155889   2.505   2.633  12.651 -0.3868 -0.1861  0.3460
11466TIP3    H255890   2.499   2.620  12.500  0.6967 -1.2384  0.3853
11467TIP3   OH255891   1.861   2.028  12.510  0.1553 -0.2325  0.0035
11467TIP3    H155892   1.829   2.110  12.472 -1.0339 -0.6714  0.0149
11467TIP3    H255893   1.915   2.055  12.584  0.8630  0.5675 -0.7807
11468TIP3   OH255894   2.155   4.322  11.202  0.2001 -0.0815 -0.7569
11468TIP3    H155895   2.161   4.384  11.130 -1.2420  2.1368  0.8889
11468TIP3    H255896   2.083   4.263  11.178  1.0173 -0.6339 -1.9489
11469TIP3   OH255897   6.311   6.399  14.848 -0.0707  0.7367  0.7139
11469TIP3    H155898   6.314   6.495  14.855  4.4430  1.2122 -2.6684
11469TIP3    H255899   6.401   6.372  14.867 -0.3716 -2.4121 -1.6335
11470TIP3   OH255900   5.986   5.733   3.749 -0.3136  0.2027 -0.3902
11470TIP3    H155901   6.052   5.728   3.681 -0.3836 -0.6243 -0.4179
11470TIP3    H255902   6.033   5.709   3.830 -0.4765  0.0608 -0.3367
11471TIP3   OH255903   4.191   5.005   5.011  0.3932  0.1006 -0.2439
11471TIP3    H155904   4.181   4.947   5.087 -0.8416  0.5770 -0.0140
11471TIP3    H255905   4.285   5.020   5.005  0.8464 -2.3972 -0.6741
11472TIP3   OH255906   3.565   1.343  11.370  0.0812 -0.0444 -0.4174
11472TIP3    H155907   3.481   1.377  11.337  0.1340  2.6297  1.8401
11472TIP3    H255908   3.541   1.289  11.446  0.2298 -2.9361 -2.2682
11473TIP3   OH255909   6.818   0.885  12.218  0.0669  0.1265  0.0495
11473TIP3    H155910   6.884   0.919  12.156 -0.2789  0.5995 -0.0661
11473TIP3    H255911   6.856   0.900  12.304  0.6734 -0.7862 -0.0438
11474TIP3   OH255912   4.221   3.666   1.475  0.7132  0.2821 -0.2365
11474TIP3    H155913   4.257   3.586   1.513  1.7777  1.4257  1.3003
11474TIP3    H255914   4.275   3.736   1.512 -0.0626  1.6991 -1.6955
11475TIP3   OH255915   1.667   3.975   2.638  0.6906 -0.4558 -0.4897
11475TIP3    H155916   1.665   4.013   2.550 -0.4087  1.0016  0.1364
11475TIP3    H255917   1.693   4.047   2.695 -2.0970 -0.3706  0.8244
11476TIP3   OH255918   1.158   4.350   4.118  0.3790 -0.4146 -0.3689
11476TIP3    H155919   1.066   4.348   4.145  0.3220  1.0004 -0.4094
11476TIP3    H255920   1.192   4.432   4.154  1.5903 -0.8355 -0.5009
11477TIP3   OH255921   2.327   0.749  16.100 -0.1903 -0.1508 -0.0838
11477TIP3    H155922   2.329   0.722  16.191  1.9172  0.6131  0.1485
11477TIP3    H255923   2.407   0.711  16.062 -2.0195 -2.1960 -2.1820
11478TIP3   OH255924   4.898   5.894  13.651 -0.8605  0.1972 -0.1564
11478TIP3    H155925   4.955   5.828  13.691  0.1698  1.4594  0.5290
11478TIP3    H255926   4.823   5.900  13.710 -0.3691  0.5102  0.4427
11479TIP3   OH255927   1.185   0.916   5.134 -0.3189 -0.1950  0.3481
11479TIP3    H155928   1.138   0.924   5.217 -1.4390 -0.2028 -0.2604
11479TIP3    H255929   1.138   0.974   5.074  0.6806  0.0746 -0.1972
11480TIP3   OH255930   2.647   6.165  17.187  0.0378 -0.2888  0.0917
11480TIP3    H155931   2.578   6.120  17.237 -0.3461  0.9640  0.7254
11480TIP3    H255932   2.616   6.163  17.096 -2.8066  3.4180  0.7136
11481TIP3   OH255933   6.150   0.286  10.648 -0.5164 -0.4309  0.4063
11481TIP3    H155934   6.208   0.311  10.576 -0.8297  1.2099  0.6997
11481TIP3    H255935   6.193   0.209  10.686  0.8184 -0.0059 -0.1580
11482TIP3   OH255936   5.839   2.259   2.234  0.8588  1.3802 -0.1273
11482TIP3    H155937   5.846   2.166   2.214 -0.4171  1.1263  0.4938
11482TIP3    H255938   5.929   2.290   2.236  1.2492  0.4827 -1.7480
11483TIP3   OH255939   4.598   6.559  12.896  0.1158  0.0016  0.3947
11483TIP3    H155940   4.594   6.490  12.963  2.6095 -2.5067 -1.7564
11483TIP3    H255941   4.508   6.568  12.867 -0.6332 -0.6949  2.3029
11484TIP3   OH255942   1.273   3.994   4.966  0.5739 -0.0690 -0.1678
11484TIP3    H155943   1.320   4.013   5.047 -0.3642 -0.1299  0.4092
11484TIP3    H255944   1.240   3.905   4.976 -0.2171  0.1973 -0.2668
11485TIP3   OH255945   5.506   4.657   2.781  0.0452 -0.1738 -0.1426
11485TIP3    H155946   5.509   4.566   2.811  1.0805 -0.1461 -0.1462
11485TIP3    H255947   5.597   4.680   2.762 -0.1700  0.9322  0.0716
11486TIP3   OH255948   5.433   1.101   5.410 -0.3203  0.2453 -0.5446
11486TIP3    H155949   5.520   1.125   5.378  0.9137  0.1257  2.4067
11486TIP3    H255950   5.420   1.011   5.379  1.4655 -0.4248  0.5183
11487TIP3   OH255951   2.187   1.736  14.781  0.4172  0.7506 -0.1644
11487TIP3    H155952   2.160   1.645  14.795  1.4506  0.3145 -0.9296
11487TIP3    H255953   2.159   1.756  14.692 -1.0346  1.6592  0.4484
11488TIP3   OH255954   2.234   5.259  16.858 -0.1838 -0.0926 -0.0611
11488TIP3    H155955   2.326   5.235  16.846 -0.6362 -1.4460 -1.1535
11488TIP3    H255956   2.224   5.341  16.811  0.3835 -0.1444 -0.2826
11489TIP3   OH255957   0.142   5.456   5.103 -0.4975  0.2965 -0.4673
11489TIP3    H155958   0.112   5.369   5.078 -0.3538  0.2266 -0.3975
11489TIP3    H255959   0.238   5.452   5.097 -0.4268  0.1017  0.6646
11490TIP3   OH255960   0.468   6.458   6.105 -0.0719 -0.1991  0.1731
11490TIP3    H155961   0.422   6.526   6.056  0.3088  0.2202  0.3916
11490TIP3    H255962   0.561   6.479   6.094  0.0303 -0.3066  0.7683
11491TIP3   OH255963   0.086   4.804   2.496  0.3121 -0.0490 -0.5241
11491TIP3    H155964   0.173   4.824   2.461  0.8840 -0.7186  0.4565
11491TIP3    H255965   0.103   4.761   2.580 -0.9849  1.6014  0.6816
11492TIP3   OH255966   3.394   4.020   3.618  0.0977  0.0187  0.4915
11492TIP3    H155967   3.407   3.990   3.708 -0.2128  0.4907  0.6999
11492TIP3    H255968   3.317   4.077   3.623  0.1678  0.1609 -0.0432
11493TIP3   OH255969   0.054   5.837   2.710 -1.3314  0.3229  0.1631
11493TIP3    H155970   0.149   5.839   2.693 -1.3737  1.4593 -0.0341
11493TIP3    H255971   0.026   5.927   2.695 -2.5150 -0.0888 -0.1358
11494TIP3   OH255972   2.857   6.641   1.929 -0.7187  0.1214 -0.3614
11494TIP3    H155973   2.815   6.557   1.946 -1.9342  1.0530  1.7760
11494TIP3    H255974   2.865   6.646   1.834 -0.7414 -2.3221 -0.5312
11495TIP3   OH255975   3.410   1.275   0.054  0.6569  0.2564 -0.6102
11495TIP3    H155976   3.412   1.353   0.110  1.3683  0.5445 -1.0158
11495TIP3    H255977   3.418   1.202   0.114 -0.9448  0.4331 -0.1384
11496TIP3   OH255978   0.377   4.275   5.140  0.2477 -0.1586  0.0646
11496TIP3    H155979   0.348   4.272   5.231 -1.0832 -0.1006 -0.3354
11496TIP3    H255980   0.451   4.215   5.136  0.7965  0.3944  1.3405
11497TIP3   OH255981   4.667   5.680  14.050  0.2065 -0.0569  0.3712
11497TIP3    H155982   4.700   5.745  14.113  3.1034 -0.0111 -1.0208
11497TIP3    H255983   4.594   5.724  14.006  0.7122  1.4104  0.9459
11498TIP3   OH255984   3.938   2.673   2.878  0.2102 -0.0711  0.3039
11498TIP3    H155985   3.949   2.753   2.930 -1.2240  0.5356 -0.2762
11498TIP3    H255986   3.880   2.618   2.930 -0.7247  0.2805 -0.3262
11499TIP3   OH255987   0.591   4.850   0.466  0.1331  0.2673  0.0772
11499TIP3    H155988   0.678   4.820   0.494  0.0184  0.2659  0.4336
11499TIP3    H255989   0.551   4.885   0.545 -0.0265  0.6710 -0.1792
11500TIP3   OH255990   0.995   5.060  14.990 -0.5180  0.3433  0.1438
11500TIP3    H155991   0.913   5.054  15.040 -0.2827  1.7074  0.7132
11500TIP3    H255992   0.977   5.126  14.923  0.2579  0.9461  0.5323
11501TIP3   OH255993   3.396   2.472  14.423  0.0857 -0.3736 -0.0921
11501TIP3    H155994   3.414   2.445  14.513  1.4014 -0.0010 -0.2146
11501TIP3    H255995   3.306   2.444  14.407  0.2646 -1.6193  0.9005
11502TIP3   OH255996   4.705   5.598  11.931  0.0430  0.1271  0.5953
11502TIP3    H155997   4.656   5.652  11.869 -0.7358  0.6405  1.6404
11502TIP3    H255998   4.691   5.508  11.900  1.3774  0.4605 -1.1819
11503TIP3   OH255999   3.056   1.294  15.246  0.6229  0.2647  0.1558
11503TIP3    H156000   3.051   1.262  15.156  0.1064 -0.3754  0.4045
11503TIP3    H256001   3.066   1.215  15.299 -0.5596  0.5052  0.7698
11504TIP3   OH256002   2.309   3.541  15.026  0.2527  0.0630  0.5682
11504TIP3    H156003   2.375   3.589  14.976 -1.8326  0.2816 -2.2263
11504TIP3    H256004   2.356   3.465  15.060  2.3065  1.0686  0.1779
11505TIP3   OH256005   0.460   2.091  12.066  0.1909 -0.5268  0.0657
11505TIP3    H156006   0.489   2.033  12.137  0.5484 -0.8572 -0.3466
11505TIP3    H256007   0.442   2.174  12.109  0.2970 -0.7589  0.5651
11506TIP3   OH256008   4.557   6.686  11.702  0.5955 -0.3364  0.2007
11506TIP3    H156009   4.554   6.601  11.658  0.8059 -0.9963  1.4325
11506TIP3    H256010   4.512   6.745  11.642  1.5507 -1.0375 -1.2690
11507TIP3   OH256011   5.054   4.683   1.233  0.5934  0.7092 -0.1508
11507TIP3    H156012   5.000   4.611   1.200  2.5995 -0.1717 -1.7983
11507TIP3    H256013   5.021   4.700   1.321 -1.9686 -0.0907 -0.8779
11508TIP3   OH256014   2.711   1.811  14.742 -0.1050  0.1898  0.3589
11508TIP3    H156015   2.745   1.801  14.652 -1.5409  2.2050 -0.4771
11508TIP3    H256016   2.622   1.775  14.738 -0.0516 -0.0418  1.1050
11509TIP3   OH256017   1.058   5.647  14.041  0.1021 -0.1783 -0.1181
11509TIP3    H156018   1.116   5.571  14.049 -0.6711 -0.7970 -0.2351
11509TIP3    H256019   1.037   5.671  14.131 -2.7038 -2.5402  0.0432
11510TIP3   OH256020   0.882   3.486   4.435  0.0286 -0.0262  0.6204
11510TIP3    H156021   0.904   3.559   4.378 -0.9502  0.7774  1.2427
11510TIP3    H256022   0.792   3.465   4.414 -0.2443  0.0728  1.6357
11511TIP3   OH256023   4.656   5.846  14.852 -0.3565 -0.0500  0.5199
11511TIP3    H156024   4.728   5.834  14.791  1.5147 -1.7941  2.8781
11511TIP3    H256025   4.619   5.758  14.864 -2.6853  0.7333 -0.3144
11512TIP3   OH256026   4.134   3.801  16.493 -0.5324 -0.4313  0.3913
11512TIP3    H156027   4.108   3.823  16.582 -1.2247  2.1446 -0.3573
11512TIP3    H256028   4.191   3.873  16.466 -2.6693  0.4447 -2.1808
11513TIP3   OH256029   0.072   0.912   3.088  0.2815 -0.0464  0.0683
11513TIP3    H156030   0.125   0.982   3.125  0.6018 -0.0631 -0.3470
11513TIP3    H256031   0.049   0.857   3.163  1.7150 -0.6040  0.1409
11514TIP3   OH256032   6.813   2.264   2.031  0.0227 -0.3036 -0.1457
11514TIP3    H156033   6.860   2.210   2.095  0.1249 -0.9254 -0.7299
11514TIP3    H256034   6.740   2.302   2.081  1.3611  1.0239  0.8681
11515TIP3   OH256035   5.655   0.871  16.657 -0.7983 -0.3029  0.2386
11515TIP3    H156036   5.707   0.899  16.732  0.2139 -1.0407 -0.1794
11515TIP3    H256037   5.633   0.953  16.612  3.9653 -0.0253 -2.2188
11516TIP3   OH256038   6.068   4.288  15.212  0.5645  0.3857  0.2730
11516TIP3    H156039   6.148   4.295  15.160 -0.3882 -0.9391 -1.4291
11516TIP3    H256040   6.002   4.256  15.152 -0.9980  0.3198  1.9339
11517TIP3   OH256041   0.969   6.544   0.646  0.1304 -0.3554  0.2130
11517TIP3    H156042   0.880   6.551   0.610 -0.8673  0.9753  2.6484
11517TIP3    H256043   1.001   6.634   0.648  0.0235 -0.2913  2.6765
11518TIP3   OH256044   3.548   1.975  16.921 -0.3482  0.0480 -0.0382
11518TIP3    H156045   3.507   2.044  16.975 -0.9329 -0.0044 -0.3991
11518TIP3    H256046   3.619   2.020  16.875 -0.4797  0.3225  0.0223
11519TIP3   OH256047   6.362   6.341  15.213  0.6544 -0.5200  0.4531
11519TIP3    H156048   6.338   6.252  15.238  3.1506 -0.9266  1.7491
11519TIP3    H256049   6.455   6.335  15.190  0.9627  1.8017  0.8086
11520TIP3   OH256050   1.118   5.576   2.955 -0.0487 -0.3813 -0.3267
11520TIP3    H156051   1.094   5.609   3.042  2.8091  0.6470  0.2040
11520TIP3    H256052   1.044   5.596   2.899 -0.9555  1.2541  1.3652
11521TIP3   OH256053   0.373   0.284   4.640 -0.0267 -0.2309  0.1323
11521TIP3    H156054   0.345   0.347   4.707 -0.2178 -1.2950  1.0920
11521TIP3    H256055   0.314   0.299   4.566 -0.8452 -0.0651  0.8039
11522TIP3   OH256056   3.432   0.632   1.718 -0.6710 -0.5803  0.6474
11522TIP3    H156057   3.413   0.541   1.739  1.5696 -0.9354  1.4452
11522TIP3    H256058   3.527   0.634   1.706 -0.6951  1.6241  0.4706
11523TIP3   OH256059   6.004   0.365   1.002  0.3649  0.3741  0.2166
11523TIP3    H156060   6.047   0.303   1.060 -0.8016 -0.0146  0.7063
11523TIP3    H256061   5.917   0.378   1.041 -0.6088 -0.1851 -1.6335
11524TIP3   OH256062   6.517   3.038  16.081 -0.4625  0.1538 -0.1099
11524TIP3    H156063   6.560   3.002  16.159  0.3499  1.2872 -0.0063
11524TIP3    H256064   6.577   3.105  16.049 -0.4327 -0.7842 -2.1683
11525TIP3   OH256065   2.752   6.302   4.370  0.1973  0.2864  0.3313
11525TIP3    H156066   2.821   6.311   4.305  2.1468 -0.1359  2.2159
11525TIP3    H256067   2.771   6.371   4.434 -1.8201  0.8871  0.3396
11526TIP3   OH256068   5.393   5.732   0.802  0.6014  0.8168  0.2950
11526TIP3    H156069   5.303   5.756   0.822 -0.0340  0.6967 -2.1063
11526TIP3    H256070   5.439   5.815   0.792  1.0535  0.8843  2.4619
11527TIP3   OH256071   4.433   3.522  13.528 -0.6590 -0.3960 -0.3280
11527TIP3    H156072   4.391   3.551  13.447 -0.9752 -0.7955 -0.3082
11527TIP3    H256073   4.493   3.594  13.551 -0.1276 -0.5480 -1.2287
11528TIP3   OH256074   5.015   5.839   3.414  0.2427  0.5270 -0.4275
11528TIP3    H156075   4.945   5.896   3.383  0.1885  0.5194 -0.3180
11528TIP3    H256076   4.987   5.811   3.501  0.2018  0.2177 -0.5424
11529TIP3   OH256077   1.230   2.358   4.043  0.1199  0.1292 -0.3172
11529TIP3    H156078   1.244   2.452   4.029  0.3688 -0.0854 -1.5872
11529TIP3    H256079   1.142   2.352   4.079 -0.5432  0.7412 -1.7813
11530TIP3   OH256080   4.251   5.160   2.713  0.1465  0.0196 -0.9464
11530TIP3    H156081   4.242   5.252   2.739 -0.8406 -0.5343  0.8104
11530TIP3    H256082   4.343   5.140   2.729  0.0575  0.3272 -0.0244
11531TIP3   OH256083   6.438   4.967  13.073 -0.2006 -0.4891 -0.5070
11531TIP3    H156084   6.482   4.897  13.025 -1.6203 -1.1572 -0.8943
11531TIP3    H256085   6.353   4.929  13.098 -1.2778  1.2831 -1.2646
11532TIP3   OH256086   5.276   3.075  14.307 -0.6687  0.2536  0.0711
11532TIP3    H156087   5.226   3.030  14.375  1.1629 -2.1145 -0.0050
11532TIP3    H256088   5.316   3.149  14.352 -1.0119 -0.1668  1.0989
11533TIP3   OH256089   5.276   4.734  14.246  0.3896  0.4991 -0.2712
11533TIP3    H156090   5.220   4.689  14.183  1.8646  0.3007 -1.4962
11533TIP3    H256091   5.216   4.765  14.314 -0.7373 -3.4769  0.8169
11534TIP3   OH256092   0.148   3.878  12.112 -0.0815  0.2248 -0.3141
11534TIP3    H156093   0.138   3.958  12.060  0.1174 -0.1271 -0.8983
11534TIP3    H256094   0.240   3.878  12.137 -0.0924  0.1984 -0.2744
11535TIP3   OH256095   1.015   4.338   1.914 -0.2606 -0.0286  0.1574
11535TIP3    H156096   1.037   4.421   1.957 -1.8934  0.0024  1.0246
11535TIP3    H256097   1.043   4.271   1.976  1.4605 -0.1953 -0.7322
11536TIP3   OH256098   3.892   2.203   1.209 -0.5668  0.2962  0.0649
11536TIP3    H156099   3.897   2.243   1.295 -2.2100  0.5592  0.0729
11536TIP3    H256100   3.956   2.251   1.156 -0.3842  0.9191  0.8399
11537TIP3   OH256101   0.537   4.003   1.534 -0.0859 -0.0843 -0.2556
11537TIP3    H156102   0.456   3.966   1.496 -0.1613 -1.8650  1.4565
11537TIP3    H256103   0.607   3.962   1.483 -0.2261 -0.8532  0.1497
11538TIP3   OH256104   4.286   1.578   5.713 -0.5976  0.2312 -0.2348
11538TIP3    H156105   4.196   1.566   5.683 -0.4155 -0.2068 -0.6240
11538TIP3    H256106   4.297   1.513   5.782 -0.3715 -0.1913 -0.6606
11539TIP3   OH256107   5.171   3.181   4.440 -0.0398 -0.0266  0.0688
11539TIP3    H156108   5.184   3.276   4.430  1.0275 -0.1035  0.6190
11539TIP3    H256109   5.151   3.170   4.532 -2.4557 -0.1236 -0.3934
11540TIP3   OH256110   6.339   1.720  15.205 -0.0608  0.1336 -0.1408
11540TIP3    H156111   6.397   1.691  15.135  2.0193  1.5931  0.8787
11540TIP3    H256112   6.329   1.814  15.190 -1.2511  0.1223  0.4066
11541TIP3   OH256113   2.218   3.266   4.795 -0.2971 -0.7475  0.3294
11541TIP3    H156114   2.134   3.279   4.752 -1.5263  1.3084  3.0576
11541TIP3    H256115   2.283   3.281   4.726 -2.1127  1.4169 -1.0484
11542TIP3   OH256116   2.656   0.911  16.141  0.1758 -0.0982  0.0272
11542TIP3    H156117   2.598   0.904  16.065 -0.6544 -1.1248  0.7198
11542TIP3    H256118   2.667   0.820  16.171  0.7050  0.2619  0.9700
11543TIP3   OH256119   4.771   2.905   6.041 -0.2443  0.4596  0.8607
11543TIP3    H156120   4.767   2.811   6.025  2.2841  0.4360 -0.1220
11543TIP3    H256121   4.782   2.913   6.136  3.3959 -0.5658  0.6691
11544TIP3   OH256122   6.801   5.046   0.593  0.3534  0.2088  0.0584
11544TIP3    H156123   6.758   4.965   0.568  3.0265 -1.3403  0.1314
11544TIP3    H256124   6.866   5.020   0.657  2.0591  2.2087 -0.7359
11545TIP3   OH256125   0.492   0.365  16.379  0.3899  0.5447  0.3252
11545TIP3    H156126   0.488   0.425  16.454  1.2640  0.2157  0.6492
11545TIP3    H256127   0.585   0.353  16.363  0.2170  1.3970 -1.4710
11546TIP3   OH256128   1.663   2.764  11.167  0.0456 -0.0947 -0.2684
11546TIP3    H156129   1.738   2.772  11.226 -0.2970 -0.9930  0.3029
11546TIP3    H256130   1.656   2.671  11.149  0.8083  0.2428 -2.6316
11547TIP3   OH256131   4.948   4.641   6.267  0.3108 -0.0640  0.0784
11547TIP3    H156132   4.957   4.605   6.178  0.7824 -0.9453  0.4711
11547TIP3    H256133   4.856   4.626   6.289  0.7870 -2.3148  0.7442
11548TIP3   OH256134   2.262   4.268   6.101  0.6081  0.1754  0.1666
11548TIP3    H156135   2.250   4.306   6.188  1.2689  1.3968 -0.2372
11548TIP3    H256136   2.232   4.178   6.109 -2.5883  1.1752  0.7811
11549TIP3   OH256137   1.736   2.625  17.064  0.0616  0.3793  0.9397
11549TIP3    H156138   1.756   2.652  16.974  0.2825 -1.9621  0.2153
11549TIP3    H256139   1.747   2.704  17.116  2.5356  1.2574 -0.7196
11550TIP3   OH256140   3.446   6.347  16.862  0.2818  0.0205  0.6520
11550TIP3    H156141   3.486   6.331  16.947 -0.7679  2.1366  1.6397
11550TIP3    H256142   3.384   6.275  16.850  0.7466 -0.5260  1.4909
11551TIP3   OH256143   0.024   4.021  13.202 -0.4562 -0.3281  0.6948
11551TIP3    H156144   0.078   3.978  13.135 -1.7817  0.5595 -1.0350
11551TIP3    H256145  -0.030   3.951  13.237 -0.5431 -0.6193  0.0055
11552TIP3   OH256146   3.348   2.333  15.935  0.7452  0.1275  0.2809
11552TIP3    H156147   3.363   2.239  15.945 -3.0702 -0.7675 -0.8048
11552TIP3    H256148   3.386   2.354  15.850  1.1626 -0.5556  0.2895
11553TIP3   OH256149   0.665   1.807  12.068  0.1711 -0.0007  0.1858
11553TIP3    H156150   0.645   1.841  12.155 -2.3025  0.9288 -0.6649
11553TIP3    H256151   0.696   1.883  12.019  1.4628 -0.5025  0.1753
11554TIP3   OH256152   1.907   2.971  14.844 -0.0198  0.2806 -0.0245
11554TIP3    H156153   1.917   2.897  14.904  3.4510  1.1294  0.6232
11554TIP3    H256154   1.841   3.026  14.886 -0.2021 -0.7980  1.1898
11555TIP3   OH256155   0.841   0.581   0.842  0.5430  0.0263 -0.4983
11555TIP3    H156156   0.897   0.562   0.767 -0.4685 -1.2920 -0.9651
11555TIP3    H256157   0.855   0.674   0.860  1.4904  0.1426 -1.7365
11556TIP3   OH256158   0.668   3.336   3.249  0.5983  0.3163 -0.1254
11556TIP3    H156159   0.591   3.281   3.235  0.3265  0.2503  1.4400
11556TIP3    H256160   0.656   3.410   3.190 -0.6363  0.2638  0.0398
11557TIP3   OH256161   0.870   3.148  12.645 -0.2543  0.0313  0.3613
11557TIP3    H156162   0.905   3.236  12.651  1.6688 -0.7220  0.9899
11557TIP3    H256163   0.780   3.155  12.676 -0.4963  1.9446 -0.6555
11558TIP3   OH256164   2.759   2.966  13.540  0.1435  0.8259  0.3027
11558TIP3    H156165   2.800   2.964  13.626  1.1962 -1.3081 -0.1765
11558TIP3    H256166   2.682   2.911  13.549  0.7539 -0.1595 -0.3129
11559TIP3   OH256167   2.963   1.897  15.885  0.0742  0.0195 -0.2730
11559TIP3    H156168   2.946   1.918  15.977  1.2434 -1.4382  0.3140
11559TIP3    H256169   2.998   1.808  15.887 -2.1774 -1.0265 -2.3752
11560TIP3   OH256170   4.370   5.595  13.178 -0.5708  0.1239  0.3776
11560TIP3    H156171   4.362   5.687  13.154 -1.2450 -0.1335 -0.4293
11560TIP3    H256172   4.462   5.573  13.158 -1.3044 -0.3528 -3.1713
11561TIP3   OH256173   0.476   6.329  14.798  0.3711  0.6873 -0.6873
11561TIP3    H156174   0.386   6.310  14.774  0.3866  0.2592 -0.4132
11561TIP3    H256175   0.483   6.425  14.792  0.1004  0.6648 -1.4002
11562TIP3   OH256176   3.482   6.812   1.106 -0.3683 -0.0554  0.6214
11562TIP3    H156177   3.528   6.819   1.190  3.1326  2.7481 -1.2505
11562TIP3    H256178   3.455   6.902   1.087 -0.1566 -0.4271 -1.6927
11563TIP3   OH256179   1.451   1.844  15.085 -0.4317 -0.6569 -0.0178
11563TIP3    H156180   1.514   1.814  15.151 -1.4947 -1.8678  0.5044
11563TIP3    H256181   1.387   1.773  15.080 -1.8089  0.5701 -0.4483
11564TIP3   OH256182   3.873   2.874  16.321  0.4660  0.1338 -0.5099
11564TIP3    H156183   3.852   2.897  16.412  0.2656  0.6972 -0.6933
11564TIP3    H256184   3.855   2.954  16.272  1.0972  0.0040 -0.9668
11565TIP3   OH256185   1.620   3.510  13.730  0.1923  0.0852 -0.3913
11565TIP3    H156186   1.580   3.428  13.700  1.4251 -0.6653 -0.0586
11565TIP3    H256187   1.549   3.573  13.727 -1.3867 -1.4757  1.3892
11566TIP3   OH256188   2.328   1.702  16.005  0.5235 -0.2149  0.1605
11566TIP3    H156189   2.327   1.614  16.043  1.4347  0.1652  1.0937
11566TIP3    H256190   2.287   1.757  16.072 -2.4199 -0.2743 -1.4286
11567TIP3   OH256191   3.183   2.020  14.926  0.2337  0.1605 -0.0254
11567TIP3    H156192   3.255   1.992  14.982  0.7356 -0.6195 -1.0397
11567TIP3    H256193   3.104   1.999  14.977  0.6858 -0.3883  0.4607
11568TIP3   OH256194   4.766   2.771   1.954 -0.4316  0.2886 -0.2975
11568TIP3    H156195   4.729   2.715   2.022  0.5445 -0.3347 -0.2661
11568TIP3    H256196   4.716   2.749   1.876  1.3059 -2.2564 -0.8154
11569TIP3   OH256197   3.003   1.955   6.454 -0.0902 -0.4405  0.2286
11569TIP3    H156198   3.058   1.893   6.502 -0.6749  0.1112  1.6408
11569TIP3    H256199   2.935   1.901   6.415 -0.0238 -0.8101  0.6121
11570TIP3   OH256200   4.459   6.761   3.853 -0.3908  0.5008  0.7186
11570TIP3    H156201   4.391   6.710   3.896  0.1021 -1.1745 -0.3807
11570TIP3    H256202   4.490   6.705   3.781 -0.1888  2.5705 -0.9168
11571TIP3   OH256203   3.381   0.948  14.671  0.3632  0.0442 -0.1186
11571TIP3    H156204   3.473   0.974  14.676  0.1716  0.6332  0.6484
11571TIP3    H256205   3.332   1.030  14.680 -0.2425 -0.1460 -1.4369
11572TIP3   OH256206   4.270   4.218   5.605  0.4089  0.5572  0.1580
11572TIP3    H156207   4.323   4.235   5.683 -1.2801  0.4252  1.3902
11572TIP3    H256208   4.238   4.128   5.617 -0.1007  0.6420 -0.5392
11573TIP3   OH256209   5.800   3.273  15.737  0.4245  0.1155 -0.0638
11573TIP3    H156210   5.835   3.208  15.676 -0.1338  1.1643 -1.5745
11573TIP3    H256211   5.873   3.332  15.753  0.6426 -0.3020  0.4882
11574TIP3   OH256212   6.716   1.739  12.807  0.7740  0.3822 -0.0263
11574TIP3    H156213   6.704   1.821  12.854  2.1293  0.8427 -0.4587
11574TIP3    H256214   6.706   1.762  12.715 -1.0215 -0.3637 -0.0664
11575TIP3   OH256215   5.777   1.382   4.670  0.4658 -0.5298 -0.4059
11575TIP3    H156216   5.795   1.424   4.586  0.1792  0.2650 -0.0720
11575TIP3    H256217   5.863   1.358   4.703  0.5219 -1.9552 -1.4724
11576TIP3   OH256218   1.345   1.707   4.492  0.5489  0.1678 -0.1691
11576TIP3    H156219   1.286   1.774   4.458  1.1741  0.1326 -1.3421
11576TIP3    H256220   1.425   1.754   4.515  0.4495  0.0507  0.4467
11577TIP3   OH256221   5.298   5.732   4.959  0.1229  0.3286 -0.1006
11577TIP3    H156222   5.338   5.770   5.037 -0.2742  0.5988 -0.0231
11577TIP3    H256223   5.243   5.661   4.993  0.3337  0.1300 -0.1800
11578TIP3   OH256224   4.213   0.241   6.185  0.3287 -0.6815 -0.0586
11578TIP3    H156225   4.300   0.203   6.192  0.6336 -0.1450 -0.8673
11578TIP3    H256226   4.154   0.166   6.188  0.7546 -1.0032  1.2369
11579TIP3   OH256227   3.660   5.395   4.672  0.4560  0.3631 -0.4166
11579TIP3    H156228   3.679   5.301   4.678  2.4805  0.7786  1.0551
11579TIP3    H256229   3.580   5.400   4.621 -0.8322 -2.3039  1.0698
11580TIP3   OH256230   4.550   4.169   3.628 -0.3790 -0.8409  1.1439
11580TIP3    H156231   4.544   4.256   3.668  1.1178  0.0963 -0.5327
11580TIP3    H256232   4.625   4.174   3.569 -1.2546 -2.7638 -0.2687
11581TIP3   OH256233   1.584   6.341   5.512  0.5852 -0.4386 -0.3496
11581TIP3    H156234   1.619   6.336   5.423  1.5431 -0.5611  0.0304
11581TIP3    H256235   1.656   6.374   5.565 -0.4034  0.9620  0.1676
11582TIP3   OH256236   6.727   3.936  16.639 -0.4271  0.2244 -0.4621
11582TIP3    H156237   6.679   4.005  16.593  2.5978  2.9594  0.1634
11582TIP3    H256238   6.728   3.964  16.730  0.7446 -0.7562 -0.1541
11583TIP3   OH256239   1.413   6.782  11.293  0.2478  0.1235  0.4686
11583TIP3    H156240   1.425   6.804  11.200 -1.5960 -1.7594 -0.3094
11583TIP3    H256241   1.373   6.861  11.331 -2.9059 -0.3790 -1.3839
11584TIP3   OH256242   2.385   6.501   0.794 -0.0927 -0.4256  0.1984
11584TIP3    H156243   2.343   6.561   0.856 -0.0786 -0.2977  0.0852
11584TIP3    H256244   2.316   6.481   0.730 -0.9452 -2.6466  1.6951
11585TIP3   OH256245   0.404   6.140  14.566  0.0381  0.1488  0.6502
11585TIP3    H156246   0.485   6.192  14.561 -0.1044  0.5205  1.7957
11585TIP3    H256247   0.335   6.199  14.537  0.1068  0.0027  0.1843
11586TIP3   OH256248   3.252   6.230  12.068  0.3031  0.4749 -0.5361
11586TIP3    H156249   3.344   6.223  12.041  0.6866  3.1871 -0.2349
11586TIP3    H256250   3.203   6.204  11.990  1.3586  1.0538 -1.4376
11587TIP3   OH256251   3.124   2.682   5.907  0.4285  0.3166  0.6747
11587TIP3    H156252   3.163   2.610   5.858 -0.8616  0.4890 -0.6650
11587TIP3    H256253   3.165   2.761   5.871 -2.0905  0.6267 -1.8429
11588TIP3   OH256254   0.068   4.501   4.153 -0.3542 -0.5525  0.0557
11588TIP3    H156255   0.026   4.415   4.160  0.9698 -1.3335 -1.0058
11588TIP3    H256256   0.024   4.542   4.078 -0.4245 -0.6428  0.0466
11589TIP3   OH256257   5.682   3.770   1.231 -0.5238  0.0170 -0.2115
11589TIP3    H156258   5.590   3.796   1.241 -0.8423 -0.9203 -0.5270
11589TIP3    H256259   5.680   3.702   1.163  0.5809  0.9065 -1.1714
11590TIP3   OH256260   3.156   3.446  14.554 -0.4797 -0.0714 -0.1217
11590TIP3    H156261   3.169   3.387  14.628 -3.7548 -1.2305 -0.3155
11590TIP3    H256262   3.156   3.388  14.477 -0.8874  0.5866 -0.6235
11591TIP3   OH256263   4.829   6.611  11.099  0.0947  0.5684  0.0145
11591TIP3    H156264   4.842   6.547  11.168  0.7343  0.7251  0.0412
11591TIP3    H256265   4.752   6.580  11.051  1.6290 -1.3820 -1.3063
11592TIP3   OH256266   1.781   5.866  16.143 -0.0451  0.1481 -0.2585
11592TIP3    H156267   1.866   5.831  16.169  0.0934  0.8344  0.2067
11592TIP3    H256268   1.761   5.933  16.207 -1.4444 -0.7324  0.2687
11593TIP3   OH256269   3.227   1.670  16.647 -0.2240  0.1166  0.5222
11593TIP3    H156270   3.200   1.761  16.636 -0.5036  0.0134  0.3542
11593TIP3    H256271   3.156   1.618  16.610 -0.3588 -0.1904  1.1927
11594TIP3   OH256272   0.210   3.716   6.228 -0.2859 -0.2551 -0.5926
11594TIP3    H156273   0.193   3.665   6.307 -1.3997  2.4446  1.0692
11594TIP3    H256274   0.271   3.784   6.256  0.5713 -0.1807 -2.4937
11595TIP3   OH256275   4.832   6.774  10.705  0.2301 -0.8029 -0.6727
11595TIP3    H156276   4.748   6.735  10.682 -0.8782  1.4095 -0.6851
11595TIP3    H256277   4.812   6.834  10.776  1.7877 -0.1263 -0.7582
11596TIP3   OH256278   5.228   4.432   4.568  0.0152  0.6641 -0.1747
11596TIP3    H156279   5.295   4.404   4.506  0.8077  1.0349  0.5052
11596TIP3    H256280   5.232   4.368   4.639 -0.0028  0.9659  0.1037
11597TIP3   OH256281   5.608   6.572  15.783  0.5063 -0.3915  0.0442
11597TIP3    H156282   5.676   6.521  15.739  0.4562 -0.3790 -0.0489
11597TIP3    H256283   5.542   6.507  15.808  0.3891 -0.3590 -0.1751
11598TIP3   OH256284   4.010   6.537  16.304 -0.1694  0.5124  0.5422
11598TIP3    H156285   4.063   6.467  16.343 -0.4064  0.7578  1.3377
11598TIP3    H256286   4.059   6.617  16.324  0.4679  0.5296 -0.9856
11599TIP3   OH256287   4.267   6.434   0.756  0.6096 -0.7993 -0.1800
11599TIP3    H156288   4.302   6.478   0.678 -0.5127 -0.2860 -0.4298
11599TIP3    H256289   4.326   6.459   0.827  0.7874 -0.0147 -0.5937
11600TIP3   OH256290   3.894   2.856   1.154  0.0240 -0.0111  0.3630
11600TIP3    H156291   3.823   2.881   1.213 -1.3861 -3.9083  0.5701
11600TIP3    H256292   3.963   2.824   1.211  0.1655 -0.3131  0.0266
11601TIP3   OH256293   5.121   0.775  11.760  0.1987 -0.1293  0.4611
11601TIP3    H156294   5.166   0.853  11.726 -0.3407 -0.3357 -0.7858
11601TIP3    H256295   5.035   0.807  11.787 -0.9675 -0.6304 -2.3097
11602TIP3   OH256296   0.731   1.817   1.415  0.0784  0.3672  0.1202
11602TIP3    H156297   0.751   1.784   1.328  0.0386 -0.8270  0.5512
11602TIP3    H256298   0.662   1.882   1.400  0.3287  0.4462 -0.7647
11603TIP3   OH256299   6.232   1.473   4.701 -0.7254  0.5121 -0.0481
11603TIP3    H156300   6.243   1.534   4.628 -2.3948  2.6562  1.3703
11603TIP3    H256301   6.321   1.444   4.721  0.1830  2.6671 -0.6823
11604TIP3   OH256302   2.357   6.083  12.079  0.2065  0.5613  0.1052
11604TIP3    H156303   2.399   6.118  12.158 -1.1693  1.0487  0.6413
11604TIP3    H256304   2.417   6.106  12.008  1.1599  0.6669  0.9169
11605TIP3   OH256305   1.767   1.756   0.095  0.0820  0.0321  0.5018
11605TIP3    H156306   1.673   1.749   0.110  0.3484 -1.3911  1.7249
11605TIP3    H256307   1.775   1.782   0.003 -1.4991  0.5700  0.4955
11606TIP3   OH256308   4.472   4.100   5.749 -0.0508  0.2777  0.0709
11606TIP3    H156309   4.459   4.014   5.789 -2.0467  0.0261 -0.9853
11606TIP3    H256310   4.505   4.081   5.661  0.4829  0.6475  0.1893
11607TIP3   OH256311   6.071   5.033  16.658  0.3349  0.8660  0.2408
11607TIP3    H156312   6.123   5.113  16.672  1.4001  0.2343  0.0184
11607TIP3    H256313   6.130   4.974  16.611 -0.4354 -0.0520  0.3961
11608TIP3   OH256314   4.412   1.081   5.311 -0.1143  0.6563  0.5824
11608TIP3    H156315   4.407   1.149   5.379 -2.4376  0.7431  0.3938
11608TIP3    H256316   4.321   1.058   5.293  0.4950 -0.3929 -1.5022
11609TIP3   OH256317   1.862   2.227   5.581  0.7629  0.0639  0.1123
11609TIP3    H156318   1.825   2.297   5.527 -1.9006 -0.7924  0.6789
11609TIP3    H256319   1.872   2.265   5.668 -1.7784 -0.4629  0.7124
11610TIP3   OH256320   1.547   2.346   5.762  0.2251 -0.4464  0.1155
11610TIP3    H156321   1.577   2.349   5.671 -0.6472 -1.4077 -0.2232
11610TIP3    H256322   1.603   2.280   5.803 -1.5156 -2.4660 -0.5930
11611TIP3   OH256323   2.413   5.659   4.923 -0.0445  0.4654 -0.2434
11611TIP3    H156324   2.449   5.720   4.988  1.4007 -1.5491  0.9802
11611TIP3    H256325   2.319   5.657   4.942  0.1654  0.8821  0.9671
11612TIP3   OH256326   2.940   1.823   2.377  0.3208 -0.3003 -0.5498
11612TIP3    H156327   3.006   1.822   2.446 -0.7607 -1.7481  0.5278
11612TIP3    H256328   2.962   1.899   2.323  1.1691  0.9173  1.4136
11613TIP3   OH256329   0.265   1.241  14.543 -0.4145 -0.2362 -0.4458
11613TIP3    H156330   0.312   1.321  14.567  0.2365 -0.5228 -0.7740
11613TIP3    H256331   0.276   1.233  14.449 -1.0010 -0.3864 -0.5069
11614TIP3   OH256332   4.686   3.041  16.747 -1.1306 -0.2989 -0.1273
11614TIP3    H156333   4.735   3.002  16.819 -0.2780 -1.8104 -1.4433
11614TIP3    H256334   4.675   2.969  16.684 -0.3052  1.3456 -2.2725
11615TIP3   OH256335   0.490   2.414  14.771  0.3396 -0.0131  0.0277
11615TIP3    H156336   0.466   2.478  14.704 -0.1719  0.3742  0.5715
11615TIP3    H256337   0.556   2.359  14.729 -1.1637 -0.8553 -1.3881
11616TIP3   OH256338   5.129   1.890  12.993 -0.4502  0.0570 -0.4950
11616TIP3    H156339   5.147   1.828  12.922  1.2290  1.6373 -1.5392
11616TIP3    H256340   5.070   1.954  12.955  0.3715  0.8514 -0.4808
11617TIP3   OH256341   3.393   1.063  17.094  0.1244  0.0648  0.0237
11617TIP3    H156342   3.428   1.137  17.144  1.3943 -0.0414 -0.6576
11617TIP3    H256343   3.298   1.076  17.096  0.3416  2.7941 -1.6310
11618TIP3   OH256344   0.345   4.603  16.147  0.0233 -0.5231  0.3546
11618TIP3    H156345   0.338   4.691  16.110 -1.0041 -0.7353  0.0036
11618TIP3    H256346   0.261   4.588  16.190  0.1615 -1.3541  0.3589
11619TIP3   OH256347   6.474   0.157   0.901 -0.2039 -0.4087  0.7716
11619TIP3    H156348   6.382   0.131   0.901  0.1835 -1.8979  0.4069
11619TIP3    H256349   6.507   0.132   0.987 -0.0840 -0.1364  0.8047
11620TIP3   OH256350   1.201   0.280   1.122  0.2883 -0.0774 -0.2099
11620TIP3    H156351   1.220   0.208   1.063 -1.7401 -0.7178 -0.1720
11620TIP3    H256352   1.201   0.240   1.209  0.9860  0.3690 -0.0027
11621TIP3   OH256353   0.873   6.091   4.823 -0.2539 -0.2608  0.2094
11621TIP3    H156354   0.860   6.013   4.878 -2.8379  1.1135  1.7442
11621TIP3    H256355   0.962   6.121   4.844 -0.0611 -1.5049  1.2929
11622TIP3   OH256356   1.847   4.339   3.590  1.1493  0.0360  0.0872
11622TIP3    H156357   1.860   4.311   3.500  0.6596  0.3065 -0.0729
11622TIP3    H256358   1.844   4.435   3.585  1.4728  0.0655  0.4379
11623TIP3   OH256359   1.481   1.686   0.034 -0.6139 -0.2703  0.3399
11623TIP3    H156360   1.481   1.597  -0.003 -3.0930 -0.6839  1.1492
11623TIP3    H256361   1.487   1.743  -0.043 -2.8849 -1.1409 -0.5895
11624TIP3   OH256362   6.321   3.487  11.454 -0.3004 -0.9087  0.2433
11624TIP3    H156363   6.236   3.472  11.413  0.0569 -1.0538 -0.4607
11624TIP3    H256364   6.376   3.523  11.384  0.9600 -3.1952 -0.0277
11625TIP3   OH256365   5.852   2.813   4.359 -0.2770  0.5105  0.0107
11625TIP3    H156366   5.900   2.880   4.407  0.8525  0.0952 -0.4982
11625TIP3    H256367   5.810   2.859   4.287  0.5005  0.6712 -0.3427
11626TIP3   OH256368   0.595   0.568   1.885 -0.1729  0.0384 -0.2457
11626TIP3    H156369   0.538   0.590   1.812 -2.6638  2.3935  2.1972
11626TIP3    H256370   0.620   0.652   1.924  2.8788 -1.0230  0.4193
11627TIP3   OH256371   1.333   5.331   5.350  0.0341 -0.1078 -0.7876
11627TIP3    H156372   1.281   5.394   5.300 -0.0059  0.4937 -0.0016
11627TIP3    H256373   1.320   5.356   5.442  0.9058 -0.5699 -0.5260
11628TIP3   OH256374   3.836   5.669  11.073  0.4495 -0.2605  0.3423
11628TIP3    H156375   3.863   5.761  11.072  0.1326 -0.1469  1.3479
11628TIP3    H256376   3.761   5.666  11.013  0.6709  0.0656  0.0431
11629TIP3   OH256377   3.046   5.886  12.758 -0.3179  0.1142 -0.5119
11629TIP3    H156378   3.139   5.883  12.737 -0.2567 -0.3237 -0.1864
11629TIP3    H256379   3.004   5.916  12.677  0.3583  3.3060  0.1841
11630TIP3   OH256380   1.630   5.329   4.907  0.2002 -0.5750 -0.4527
11630TIP3    H156381   1.659   5.242   4.879  1.0661  0.1583 -2.0116
11630TIP3    H256382   1.537   5.332   4.886 -0.0762 -1.4553  0.5670
11631TIP3   OH256383   0.478   2.419  16.467 -0.1980 -0.1326 -0.3882
11631TIP3    H156384   0.415   2.405  16.538  1.2141 -0.8997  0.7711
11631TIP3    H256385   0.535   2.342  16.470  0.5709  0.3536 -1.6559
11632TIP3   OH256386   5.590   2.961   1.557 -0.6071  0.2227 -0.1884
11632TIP3    H156387   5.558   2.914   1.635 -0.4477  0.3508 -0.0444
11632TIP3    H256388   5.685   2.963   1.569 -0.2258 -2.3616 -1.8057
11633TIP3   OH256389   5.945   3.970   1.134 -0.1835  0.1275 -0.3848
11633TIP3    H156390   5.893   3.891   1.122 -1.8969  1.3358 -1.2988
11633TIP3    H256391   6.000   3.975   1.055  0.0435 -0.2288 -0.2499
11634TIP3   OH256392   0.462   3.843   0.242 -0.6134  0.2560 -0.2460
11634TIP3    H156393   0.453   3.938   0.243 -0.5169  0.2696 -0.4422
11634TIP3    H256394   0.557   3.828   0.233 -0.8244  0.2057 -4.1151
11635TIP3   OH256395   4.177   1.223  13.745  0.3624 -0.5490  0.0581
11635TIP3    H156396   4.159   1.150  13.804  1.8945 -1.0740 -0.0807
11635TIP3    H256397   4.265   1.206  13.711  0.9340  1.5784  0.3377
11636TIP3   OH256398   0.235   2.810   6.152  0.0326  0.2340  0.1299
11636TIP3    H156399   0.163   2.850   6.104 -0.4549  0.6142  1.1674
11636TIP3    H256400   0.220   2.716   6.144  0.0638  0.2804 -0.6014
11637TIP3   OH256401   3.297   5.563   4.447 -0.3369 -0.1994  0.7439
11637TIP3    H156402   3.374   5.618   4.433  0.0657 -0.9819 -0.2197
11637TIP3    H256403   3.324   5.499   4.512  0.0088 -0.8004  0.0191
11638TIP3   OH256404   3.347   0.118  14.472  0.2397 -0.3777  0.1245
11638TIP3    H156405   3.348   0.207  14.436  3.1972 -0.4569 -0.1860
11638TIP3    H256406   3.412   0.120  14.542  1.9605 -2.7756 -1.2749
11639TIP3   OH256407   2.317   6.410   0.246  0.5765  0.0025 -1.0732
11639TIP3    H156408   2.303   6.447   0.334 -1.1102 -0.8165 -0.9805
11639TIP3    H256409   2.407   6.376   0.249  0.5521  0.0048  0.3254
11640TIP3   OH256410   2.772   0.379   5.004  0.3081 -0.1083 -0.1451
11640TIP3    H156411   2.861   0.415   4.997 -0.2774  1.7512  1.2565
11640TIP3    H256412   2.747   0.360   4.913  2.2654 -1.0456 -0.5351
11641TIP3   OH256413   1.242   1.707   0.145  0.6779 -0.4757  0.6649
11641TIP3    H156414   1.170   1.765   0.120 -0.4436 -2.1460 -0.1601
11641TIP3    H256415   1.317   1.739   0.095  0.0357  0.1244  0.0547
11642TIP3   OH256416   5.295   0.705   3.092 -0.6703  0.3521  0.5719
11642TIP3    H156417   5.227   0.767   3.119 -0.6933  0.2192  0.8189
11642TIP3    H256418   5.375   0.756   3.089 -1.1940  1.2030 -2.3412
11643TIP3   OH256419   6.539   5.857  10.536  0.0746 -0.6871 -0.0732
11643TIP3    H156420   6.547   5.876  10.443  2.8929  1.0698  0.3778
11643TIP3    H256421   6.629   5.841  10.565 -0.3798  0.9638  2.6933
11644TIP3   OH256422   5.852   3.626  13.175  0.5145  0.3851 -0.4047
11644TIP3    H156423   5.773   3.597  13.129  1.3104  0.7951 -2.0891
11644TIP3    H256424   5.883   3.702  13.126  2.0350  0.1624  0.1436
11645TIP3   OH256425   2.520   2.512   5.615  0.0840  0.1243  0.6041
11645TIP3    H156426   2.611   2.488   5.630  0.7392  1.7687 -0.3883
11645TIP3    H256427   2.514   2.602   5.646 -0.8719  0.4550 -0.4734
11646TIP3   OH256428   0.714   5.206   1.549  0.1705 -0.6121  0.2624
11646TIP3    H156429   0.653   5.166   1.487 -0.3578 -0.6808  0.8159
11646TIP3    H256430   0.774   5.135   1.571 -0.3931 -0.9440  0.7710
11647TIP3   OH256431   2.315   1.134  16.095 -0.3196  0.4932  0.2793
11647TIP3    H156432   2.248   1.077  16.132 -0.7637  0.4688 -0.5406
11647TIP3    H256433   2.393   1.118  16.149 -0.7751  0.0047  0.8004
11648TIP3   OH256434   5.556   1.120   4.275 -0.2714  0.5973  0.8210
11648TIP3    H156435   5.484   1.153   4.221  1.8750  1.5173 -1.7661
11648TIP3    H256436   5.554   1.174   4.354 -2.9186 -0.0735  1.3062
11649TIP3   OH256437   0.370   2.760   1.659 -0.0043  0.3249 -0.2430
11649TIP3    H156438   0.385   2.676   1.616  0.7591 -0.8046  2.0539
11649TIP3    H256439   0.439   2.817   1.624 -0.0353 -0.2272 -1.2484
11650TIP3   OH256440   2.904   4.393  16.625 -0.2988 -0.7054  0.1206
11650TIP3    H156441   2.859   4.461  16.575  2.0429  0.5895 -0.4110
11650TIP3    H256442   2.916   4.431  16.712  0.4270 -0.6831  0.0205
11651TIP3   OH256443   2.929   6.202   2.855 -0.3663  0.0967  0.2040
11651TIP3    H156444   2.971   6.136   2.799  1.5574  2.6152 -1.6078
11651TIP3    H256445   2.845   6.219   2.813  0.2499  0.5771 -0.9120
11652TIP3   OH256446   1.946   0.441  15.621 -0.3449  0.1762  0.6308
11652TIP3    H156447   1.918   0.465  15.532  1.0058  1.9747  0.6527
11652TIP3    H256448   1.933   0.520  15.673  0.2797 -0.4123  1.7134
11653TIP3   OH256449   1.993   3.982  13.051 -0.3257  0.1711 -0.6494
11653TIP3    H156450   2.009   3.990  12.957  1.4439  0.5455 -0.3433
11653TIP3    H256451   2.072   3.941  13.086 -2.0178 -2.5808  0.3443
11654TIP3   OH256452   2.920   6.776  16.666  0.0340 -0.2420  0.1204
11654TIP3    H156453   2.849   6.711  16.669 -0.8608  0.7356  1.8929
11654TIP3    H256454   2.881   6.850  16.618 -0.8795  1.0149  2.6366
11655TIP3   OH256455   1.917   5.420   0.364 -0.1973  0.0674  0.7283
11655TIP3    H156456   1.827   5.403   0.390 -0.0682  0.7157  1.6514
11655TIP3    H256457   1.969   5.398   0.441  0.7134 -2.5654 -0.5112
11656TIP3   OH256458   6.338   4.722   0.012  0.2403  0.1950 -0.2818
11656TIP3    H156459   6.311   4.785   0.078  0.0986  1.7690 -1.7535
11656TIP3    H256460   6.402   4.666   0.056  0.8137  1.7518  0.9335
11657TIP3   OH256461   3.353   5.445   5.285  0.3692 -0.0260  0.1368
11657TIP3    H156462   3.432   5.488   5.255  0.1598  0.0112 -0.3674
11657TIP3    H256463   3.330   5.384   5.215 -0.5440  0.6045 -0.1399
11658TIP3   OH256464   0.025   6.607   1.829 -0.3978  0.0974  0.6034
11658TIP3    H156465   0.083   6.591   1.755 -0.0831  0.0303  0.8617
11658TIP3    H256466   0.038   6.531   1.887  0.4526  0.8389  1.4187
11659TIP3   OH256467   0.048   0.598  12.092  0.2001 -0.5297 -0.4766
11659TIP3    H156468  -0.018   0.631  12.153 -1.1016 -2.5879 -0.6747
11659TIP3    H256469   0.107   0.547  12.147 -0.0225 -1.0326 -0.7038
11660TIP3   OH256470   4.026   4.748   4.673  0.1683  0.4466 -0.7955
11660TIP3    H156471   4.065   4.749   4.586  2.0369 -1.9214 -0.1000
11660TIP3    H256472   4.082   4.806   4.725 -0.3126  1.0306 -0.9234
11661TIP3   OH256473   1.136   4.825  12.219  0.0311 -0.0807  1.0497
11661TIP3    H156474   1.082   4.817  12.298  0.3089 -2.3889  1.0933
11661TIP3    H256475   1.158   4.918  12.214 -3.2399  0.8415  1.4725
11662TIP3   OH256476   0.643   4.452   0.964  0.7863 -0.0241  0.0447
11662TIP3    H156477   0.639   4.454   1.060  2.0342  1.5258  0.0985
11662TIP3    H256478   0.556   4.480   0.936  0.9896  1.4089  0.7597
11663TIP3   OH256479   3.925   5.824  14.143 -0.0960 -0.5958  0.2486
11663TIP3    H156480   3.945   5.736  14.176 -2.4979 -1.2419  0.1893
11663TIP3    H256481   3.830   5.831  14.151 -0.2853  0.9383 -2.3640
11664TIP3   OH256482   2.350   2.782   5.092  0.5018  0.3812 -0.1033
11664TIP3    H156483   2.321   2.694   5.067  1.3680  0.2780 -0.7930
11664TIP3    H256484   2.446   2.777   5.089  0.7336  0.2861  3.5571
11665TIP3   OH256485   5.251   0.002  10.814 -0.3458 -0.1284 -0.0523
11665TIP3    H156486   5.310  -0.044  10.875  0.7122  0.0376 -0.9201
11665TIP3    H256487   5.238   0.088  10.855 -0.1974 -0.2618  0.2796
11666TIP3   OH256488   1.455   6.285  12.919 -0.9003  0.4936 -0.1655
11666TIP3    H156489   1.451   6.290  13.014 -0.2578 -1.0600 -0.0306
11666TIP3    H256490   1.384   6.225  12.894 -0.9260  0.7151 -0.6471
11667TIP3   OH256491   6.517   1.601  16.277 -0.3470 -0.0586 -0.1872
11667TIP3    H156492   6.540   1.518  16.317  3.5978  0.3995 -1.0862
11667TIP3    H256493   6.523   1.586  16.182  0.1618  1.1571 -0.3713
11668TIP3   OH256494   0.179   4.464  16.355 -0.1048  0.4416  0.3070
11668TIP3    H156495   0.098   4.507  16.326 -0.9020 -0.6896  0.7662
11668TIP3    H256496   0.214   4.423  16.276 -0.4334  0.2374  0.2645
11669TIP3   OH256497   4.598   6.713   6.492  0.1098  0.1137 -0.1743
11669TIP3    H156498   4.659   6.716   6.566  0.8418 -3.5831 -0.4650
11669TIP3    H256499   4.517   6.680   6.529  0.3724 -1.4109 -0.8976
11670TIP3   OH256500   2.320   6.753  12.143 -0.3796  0.5854 -0.9441
11670TIP3    H156501   2.290   6.825  12.197 -1.2492  0.6971 -1.5579
11670TIP3    H256502   2.249   6.689  12.146  0.5369 -0.4364 -0.0873
11671TIP3   OH256503   4.366   6.103   6.659 -0.4871  0.1909  0.3977
11671TIP3    H156504   4.270   6.111   6.664 -0.7355 -0.4998 -2.0019
11671TIP3    H256505   4.397   6.194   6.659 -1.2171  0.4466  0.3173
11672TIP3   OH256506   2.355   2.687  13.449 -0.0927 -0.4980  0.0613
11672TIP3    H156507   2.388   2.718  13.364 -2.7009 -0.0295 -0.8743
11672TIP3    H256508   2.399   2.742  13.513  0.4812  0.4894 -1.1313
11673TIP3   OH256509   1.736   6.349   1.872  0.3366 -0.2649 -0.3797
11673TIP3    H156510   1.759   6.261   1.844 -1.3735 -0.9698  0.3201
11673TIP3    H256511   1.705   6.393   1.793 -0.1463 -0.7594 -0.4688
11674TIP3   OH256512   2.349   1.127   5.691 -0.3235  0.2575 -0.3324
11674TIP3    H156513   2.400   1.170   5.759 -2.4431  0.4688  1.2126
11674TIP3    H256514   2.404   1.134   5.612  1.8516  0.7153  1.1254
11675TIP3   OH256515   0.046   0.735  15.410  0.2288 -0.1741 -0.2218
11675TIP3    H156516   0.102   0.715  15.485  1.5408  0.0451 -1.0906
11675TIP3    H256517  -0.006   0.810  15.437  3.0485  2.0755 -0.5669
11676TIP3   OH256518   5.789   0.681   0.819 -0.0945 -0.2431 -0.1796
11676TIP3    H156519   5.748   0.626   0.753  0.7104 -0.2216 -0.7098
11676TIP3    H256520   5.753   0.650   0.902  1.3348 -2.4853 -0.3246
11677TIP3   OH256521   6.154   4.150   3.510  0.5694 -0.0670 -0.1427
11677TIP3    H156522   6.144   4.091   3.436  1.7558 -0.2408 -0.1814
11677TIP3    H256523   6.177   4.093   3.584 -0.0523  0.1625  0.2366
11678TIP3   OH256524   6.122   2.169   5.776  0.6541 -0.3479  0.2309
11678TIP3    H156525   6.151   2.102   5.837  2.0738 -0.9543 -1.0443
11678TIP3    H256526   6.201   2.220   5.757  0.1043  0.2153 -0.6034
11679TIP3   OH256527   3.866   0.074   3.841 -0.3662 -0.2944 -0.1270
11679TIP3    H156528   3.850   0.133   3.914 -1.2859 -0.5934 -0.0708
11679TIP3    H256529   3.870  -0.013   3.881  1.5700 -0.2595 -0.1266
11680TIP3   OH256530   3.515   6.646  15.144 -0.7350  0.4503  0.3290
11680TIP3    H156531   3.560   6.570  15.107 -1.5852  0.4818 -0.8487
11680TIP3    H256532   3.581   6.715  15.145 -0.0755 -0.1667  1.0072
11681TIP3   OH256533   3.957   0.148  12.548 -0.0435  0.5925  0.0461
11681TIP3    H156534   3.913   0.114  12.626 -0.3875  1.6371  0.3303
11681TIP3    H256535   3.919   0.236  12.536  0.5709  0.7473 -0.8390
11682TIP3   OH256536   5.322   0.116   2.012 -0.3291  0.1338 -0.0918
11682TIP3    H156537   5.357   0.062   1.942  2.2445 -0.1979  1.3020
11682TIP3    H256538   5.333   0.206   1.981 -0.0192 -0.0291 -0.4625
11683TIP3   OH256539   5.305   5.845  13.208  0.1546 -0.0430 -0.5862
11683TIP3    H156540   5.252   5.825  13.131  1.2186 -0.3812 -1.2523
11683TIP3    H256541   5.324   5.939  13.200 -0.6145  0.1510 -0.1674
11684TIP3   OH256542   4.761   1.876   3.209  0.6103  0.5749  0.1794
11684TIP3    H156543   4.782   1.962   3.173 -0.9149  0.4008 -1.2695
11684TIP3    H256544   4.698   1.839   3.147  0.1545 -1.0126  1.5135
11685TIP3   OH256545   6.615   0.237  16.560 -0.0360 -0.2781  0.3950
11685TIP3    H156546   6.646   0.222  16.471 -0.6364 -0.5294  0.2205
11685TIP3    H256547   6.541   0.177  16.570  1.1092 -1.5615  1.6689
11686TIP3   OH256548   4.922   1.569  13.410  0.4209  0.9243 -0.9464
11686TIP3    H156549   4.979   1.506  13.366 -0.4620 -1.4948  1.1365
11686TIP3    H256550   4.863   1.515  13.463 -1.8724  3.4378 -0.7200
11687TIP3   OH256551   4.724   3.266   2.056  0.3577  0.8474 -0.1220
11687TIP3    H156552   4.726   3.294   1.964 -0.3307  1.2173 -0.0258
11687TIP3    H256553   4.816   3.247   2.077  0.5171  0.7332 -0.8922
11688TIP3   OH256554   5.717   3.505   0.291  0.1953 -0.3087 -0.5560
11688TIP3    H156555   5.759   3.579   0.334 -1.4391  0.2318  0.2138
11688TIP3    H256556   5.676   3.542   0.213 -0.1569 -0.4902 -0.4624
11689TIP3   OH256557   5.283   6.449  11.369 -0.6207  0.4082  0.3732
11689TIP3    H156558   5.338   6.520  11.401 -0.5277  0.5639 -0.1190
11689TIP3    H256559   5.266   6.395  11.446 -1.1314  1.2509  0.8776
11690TIP3   OH256560   2.240   3.435  15.296  0.4804 -0.9281  0.6072
11690TIP3    H156561   2.246   3.346  15.332 -2.1111 -1.0811  0.8187
11690TIP3    H256562   2.159   3.435  15.246 -0.2897  1.6844  1.7153
11691TIP3   OH256563   3.090   0.090  16.074  0.0637 -0.4182  0.1827
11691TIP3    H156564   3.046   0.098  15.989  0.9290  0.9769 -0.1720
11691TIP3    H256565   3.084  -0.003  16.095  0.4061 -0.9261 -1.7250
11692TIP3   OH256566   5.669   0.154   2.993  0.3012  0.3721 -0.4972
11692TIP3    H156567   5.741   0.128   2.935  0.6379  2.3072 -1.0362
11692TIP3    H256568   5.690   0.112   3.077 -0.0881 -2.3177 -1.6485
11693TIP3   OH256569   0.788   0.537  16.964  0.1809 -0.0962 -0.1056
11693TIP3    H156570   0.706   0.536  17.013  0.0450 -1.1148 -0.3233
11693TIP3    H256571   0.849   0.584  17.020 -0.6138  0.9135 -0.0550
11694TIP3   OH256572   4.459   1.162   1.615  0.2698 -0.5076 -0.4374
11694TIP3    H156573   4.532   1.207   1.573  1.7134 -3.1610 -1.0224
11694TIP3    H256574   4.484   1.158   1.708  0.2106 -0.2054 -0.4104
11695TIP3   OH256575   0.041   6.452   3.402  0.0016 -0.1780  0.3749
11695TIP3    H156576   0.060   6.496   3.485  0.6487 -1.3101  0.8539
11695TIP3    H256577   0.046   6.359   3.423 -2.8232 -0.5774 -0.2449
11696TIP3   OH256578   0.732   6.167   0.489 -0.6272  0.1700  0.8107
11696TIP3    H156579   0.735   6.083   0.535  0.6986 -0.2490  0.0133
11696TIP3    H256580   0.796   6.158   0.419 -0.8826  1.6580  0.3565
11697TIP3   OH256581   4.239   4.951  13.838  0.2052  0.0370 -0.4339
11697TIP3    H156582   4.327   4.982  13.814  0.8240 -1.0377  0.3525
11697TIP3    H256583   4.203   5.020  13.894 -0.1431  1.2646 -2.0883
11698TIP3   OH256584   5.502   4.257  12.537 -0.0876  0.1020 -0.0576
11698TIP3    H156585   5.477   4.167  12.559 -2.0158  0.3191 -1.0917
11698TIP3    H256586   5.577   4.275  12.593 -0.0902 -1.9006  0.6991
11699TIP3   OH256587   6.140   4.709   6.006 -0.0971 -0.0391  0.5031
11699TIP3    H156588   6.167   4.654   6.080 -0.3545 -1.1707 -0.2289
11699TIP3    H256589   6.110   4.648   5.940 -1.6134  1.0476  0.1370
11700TIP3   OH256590   2.109   2.858   6.245  0.3013  0.3601  0.1178
11700TIP3    H156591   2.039   2.872   6.308  0.2278  1.1636 -0.1285
11700TIP3    H256592   2.137   2.767   6.259 -1.3609 -0.2545 -0.3569
11701TIP3   OH256593   0.148   6.292  14.750 -0.2292  0.2863  0.1397
11701TIP3    H156594   0.179   6.284  14.660  2.9977  1.1440  1.0574
11701TIP3    H256595   0.104   6.377  14.752 -1.4966 -0.3022 -0.8545
11702TIP3   OH256596   0.715   5.780   2.126  0.1660 -0.5396 -0.3348
11702TIP3    H156597   0.732   5.871   2.150 -0.6756 -0.2799 -0.6735
11702TIP3    H256598   0.797   5.749   2.089  0.3077  0.2448 -0.7016
11703TIP3   OH256599   4.076   6.047   1.193  0.2410  0.3377  0.5564
11703TIP3    H156600   4.026   6.106   1.136  0.1436 -0.3453 -0.0856
11703TIP3    H256601   4.166   6.080   1.188  0.5346 -0.5680 -1.2220
11704TIP3   OH256602   6.660   2.247   4.816 -0.3186  0.1568 -0.0185
11704TIP3    H156603   6.671   2.307   4.743  1.0327 -0.0848 -0.0505
11704TIP3    H256604   6.646   2.303   4.892  1.1041  0.5437 -0.0171
11705TIP3   OH256605   1.783   3.325  10.239  0.0545 -0.5292  0.0800
11705TIP3    H156606   1.827   3.280  10.167  1.9139  0.2299  0.6751
11705TIP3    H256607   1.854   3.362  10.291 -1.3183  1.9031  0.3815
11706TIP3   OH256608   0.544   0.902   5.049 -0.5766  0.8277  0.5357
11706TIP3    H156609   0.457   0.898   5.008 -0.7538  1.0238  0.8843
11706TIP3    H256610   0.591   0.827   5.013 -2.0987 -1.4856  3.0389
11707TIP3   OH256611   6.551   5.265   5.347  0.0514  0.5082  0.0260
11707TIP3    H156612   6.557   5.266   5.443  0.3275 -1.6495  0.0705
11707TIP3    H256613   6.467   5.306   5.329 -0.7218 -0.4448  1.2905
11708TIP3   OH256614   3.378   3.261  11.088  0.4109 -0.0180 -0.0625
11708TIP3    H156615   3.460   3.240  11.134  0.8437  0.2141 -0.7088
11708TIP3    H256616   3.358   3.181  11.040  1.5110  0.6493 -1.7179
11709TIP3   OH256617   3.580   1.573  16.003  0.5995 -0.4109 -0.6012
11709TIP3    H156618   3.593   1.656  15.956  2.0383 -0.6166 -0.6140
11709TIP3    H256619   3.620   1.588  16.089  1.6165 -1.3420 -0.8949
11710TIP3   OH256620   2.035   2.562  16.838  0.0123 -0.2020  0.3886
11710TIP3    H156621   1.961   2.540  16.782  1.2474  0.6286 -1.6804
11710TIP3    H256622   2.045   2.486  16.895 -1.3045 -1.1055 -0.5324
11711TIP3   OH256623   1.754   3.505  11.167 -0.1087  0.5012  0.1891
11711TIP3    H156624   1.713   3.514  11.253 -0.9702  2.1811 -0.3457
11711TIP3    H256625   1.682   3.478  11.109 -0.2568  2.2152 -0.5101
11712TIP3   OH256626   0.331   1.355  13.864  0.3530  0.4070  0.1773
11712TIP3    H156627   0.402   1.416  13.885 -0.8999  1.7294  0.7353
11712TIP3    H256628   0.269   1.407  13.813 -1.1023 -0.1899  1.2911
11713TIP3   OH256629   6.578   6.357  16.437  0.0397 -0.4454 -0.3392
11713TIP3    H156630   6.497   6.306  16.444 -2.2459  2.6127 -1.7370
11713TIP3    H256631   6.594   6.390  16.525 -0.7652 -0.4195 -0.1965
11714TIP3   OH256632   4.204   5.695  15.228 -0.1375 -0.3697  0.1252
11714TIP3    H156633   4.271   5.759  15.253  0.2495 -0.7906  0.1724
11714TIP3    H256634   4.126   5.722  15.276  0.2040 -0.3163  0.6523
11715TIP3   OH256635   4.143   1.697   6.203  0.2749 -0.1106 -0.1755
11715TIP3    H156636   4.091   1.763   6.157 -0.8358 -0.3610  0.6825
11715TIP3    H256637   4.096   1.682   6.285  0.8558 -1.4915 -0.0652
11716TIP3   OH256638   3.334   6.005   5.523 -0.9106 -0.6382 -0.9593
11716TIP3    H156639   3.290   5.945   5.583 -1.9691  1.3089  0.3151
11716TIP3    H256640   3.283   6.086   5.528  3.4772  2.3703  1.7868
11717TIP3   OH256641   0.498   2.224   0.274  0.0023  0.3535  0.3546
11717TIP3    H156642   0.570   2.170   0.304 -0.6156 -0.0718  1.0911
11717TIP3    H256643   0.531   2.314   0.278  0.5921  0.1349  0.3644
11718TIP3   OH256644   6.127   0.569  12.758 -0.1067  0.2539  0.5469
11718TIP3    H156645   6.062   0.500  12.744  0.7589 -0.6627  0.8668
11718TIP3    H256646   6.170   0.579  12.673  0.0235  0.1182  0.5958
11719TIP3   OH256647   6.204   2.010   2.801 -0.1363 -0.0170 -0.2574
11719TIP3    H156648   6.179   1.934   2.749 -0.8396 -0.6175  0.9107
11719TIP3    H256649   6.267   1.975   2.864  0.4702  0.6291 -0.5020
11720TIP3   OH256650   0.137   0.640  10.591  0.2033  0.2376 -0.1321
11720TIP3    H156651   0.123   0.733  10.609  0.3344  0.6165 -1.8396
11720TIP3    H256652   0.211   0.616  10.647  2.5493  2.1073 -2.1732
11721TIP3   OH256653   3.448   2.019  15.801  0.1492 -0.4298  0.1520
11721TIP3    H156654   3.427   1.928  15.780  2.6416 -0.8673 -0.8346
11721TIP3    H256655   3.459   2.020  15.896  1.4492 -1.5276  0.0500
11722TIP3   OH256656   3.925   2.620  14.062  0.1427  0.4143 -0.3200
11722TIP3    H156657   3.867   2.684  14.021  0.9681  0.6610 -1.1188
11722TIP3    H256658   3.940   2.554  13.995  1.1347  0.5776 -0.2789
11723TIP3   OH256659   4.350   5.540   2.662 -0.3899  0.2171  0.2266
11723TIP3    H156660   4.264   5.559   2.625 -0.3274 -0.9425 -0.5489
11723TIP3    H256661   4.331   5.502   2.748 -0.5250  3.2401  1.6646
11724TIP3   OH256662   4.790   6.462  17.035 -0.3126  0.0442  0.1028
11724TIP3    H156663   4.728   6.523  17.075 -0.2584  0.9405 -1.1401
11724TIP3    H256664   4.762   6.456  16.944 -0.4925 -2.0440  0.2525
11725TIP3   OH256665   0.850   4.061   5.134 -0.2494 -0.4059 -0.2046
11725TIP3    H156666   0.874   4.031   5.222  0.1185 -0.6434 -0.3833
11725TIP3    H256667   0.922   4.119   5.108 -0.1645 -0.6474 -0.5066
11726TIP3   OH256668   1.159   1.121   4.299 -0.2539 -0.3515 -0.5810
11726TIP3    H156669   1.172   1.028   4.284 -3.9469 -1.0853 -0.1018
11726TIP3    H256670   1.194   1.163   4.220 -0.7520 -2.3747 -1.9433
11727TIP3   OH256671   3.203   3.685  12.655  0.7787 -0.2714 -0.3960
11727TIP3    H156672   3.147   3.739  12.599  0.6006 -0.0962 -0.0551
11727TIP3    H256673   3.268   3.746  12.689  0.1017 -0.0903  0.6207
11728TIP3   OH256674   4.075   6.763  15.356 -0.2383 -0.9190 -0.1848
11728TIP3    H156675   4.087   6.706  15.279 -2.3892 -0.6399 -0.7993
11728TIP3    H256676   4.089   6.706  15.431  1.7922 -1.2273 -0.7590
11729TIP3   OH256677   1.583   2.130   3.630  0.0987  0.4648  0.1892
11729TIP3    H156678   1.670   2.097   3.606 -0.3324 -1.4393  1.0693
11729TIP3    H256679   1.545   2.160   3.548  0.3034 -1.8968 -0.8446
11730TIP3   OH256680   2.706   2.865   4.736  0.1285 -0.4049 -0.3482
11730TIP3    H156681   2.742   2.899   4.818 -1.1475  1.7136 -0.6141
11730TIP3    H256682   2.615   2.845   4.755 -0.2457  0.3144 -1.2822
11731TIP3   OH256683   5.091   4.626   6.491  0.6325 -0.1890  0.0545
11731TIP3    H156684   5.019   4.625   6.554  0.7599  0.8521  0.2415
11731TIP3    H256685   5.048   4.632   6.406  0.4738 -0.9887  0.0707
11732TIP3   OH256686   0.248   3.817  16.925 -0.1884 -0.1076  0.2513
11732TIP3    H156687   0.218   3.900  16.887 -1.0224 -0.5776 -0.1466
11732TIP3    H256688   0.182   3.796  16.991 -0.4808 -0.9027 -0.2775
11733TIP3   OH256689   1.620   0.200  11.780  0.2485  0.6372 -0.5238
11733TIP3    H156690   1.526   0.194  11.797  0.2909  1.6918  0.1728
11733TIP3    H256691   1.633   0.150  11.699 -0.7385 -0.3888 -0.0758
11734TIP3   OH256692   6.609   6.079   2.210  0.0722  0.2134 -0.5529
11734TIP3    H156693   6.602   6.054   2.302  0.4224  2.3659  0.0942
11734TIP3    H256694   6.697   6.049   2.185  0.3153  0.3952  0.0591
11735TIP3   OH256695   5.185   5.246  15.136 -0.3895  0.0301  1.0889
11735TIP3    H156696   5.184   5.272  15.228  1.6865 -0.7762  1.3886
11735TIP3    H256697   5.272   5.207  15.123  0.7886  3.1883 -2.0476
11736TIP3   OH256698   3.674   4.565   1.473  0.1936 -0.1948 -0.2417
11736TIP3    H156699   3.651   4.566   1.566  1.9607 -1.8104  0.2877
11736TIP3    H256700   3.703   4.476   1.456  0.0103  0.0849 -2.3443
11737TIP3   OH256701   0.899   2.001   2.316  0.4712  0.3129 -0.1106
11737TIP3    H156702   0.930   2.061   2.385 -0.2524 -1.1156  1.5344
11737TIP3    H256703   0.966   1.934   2.310  0.9863  0.9272 -1.5144
11738TIP3   OH256704   0.486   5.637   4.699  0.3244  0.4391 -0.6658
11738TIP3    H156705   0.473   5.652   4.606  2.0743  0.7723 -0.8928
11738TIP3    H256706   0.557   5.573   4.703 -0.5029 -0.4413  0.4320
11739TIP3   OH256707   3.962   6.595  14.583 -0.3847  0.2904  0.1329
11739TIP3    H156708   4.028   6.655  14.547  0.3872  0.9852  2.5094
11739TIP3    H256709   3.999   6.508  14.570  0.0517  0.5411 -0.3590
11740TIP3   OH256710   6.171   6.218  13.071 -0.4974 -0.3995  0.3632
11740TIP3    H156711   6.138   6.271  12.999 -1.5397 -0.6150  0.6546
11740TIP3    H256712   6.266   6.217  13.059 -0.2615  2.6744  1.1380
11741TIP3   OH256713   2.411   5.789   6.590 -0.0498 -0.0131  0.0490
11741TIP3    H156714   2.323   5.780   6.626  0.0262  2.0597  0.9354
11741TIP3    H256715   2.397   5.825   6.502 -0.1614 -3.3368 -1.4269
11742TIP3   OH256716   1.452   0.571   5.944 -0.1495 -0.7255  0.0676
11742TIP3    H156717   1.414   0.502   5.998  0.6827 -0.8325  0.5430
11742TIP3    H256718   1.477   0.639   6.006  0.6738 -0.7830 -0.1796
11743TIP3   OH256719   3.385   3.767   0.088 -0.1810 -0.2594 -0.5159
11743TIP3    H156720   3.324   3.784   0.161 -0.0837  0.4229 -0.5905
11743TIP3    H256721   3.377   3.844   0.032  0.3305 -0.4276 -0.8206
11744TIP3   OH256722   1.877   5.484  14.489 -0.1046  0.3643  0.4434
11744TIP3    H156723   1.895   5.576  14.507  1.1672  0.7692 -2.2476
11744TIP3    H256724   1.964   5.444  14.482 -0.3289  0.1488 -3.1980
11745TIP3   OH256725   2.633   1.957   0.526 -0.1999 -0.7048 -0.7653
11745TIP3    H156726   2.582   1.961   0.607  0.7635 -0.3429 -0.1631
11745TIP3    H256727   2.687   2.036   0.528 -0.7695 -0.2404 -2.1814
11746TIP3   OH256728   4.803   4.827   0.778  0.0121 -0.5242 -0.3012
11746TIP3    H156729   4.818   4.825   0.873 -0.8778  0.3133 -0.1212
11746TIP3    H256730   4.881   4.786   0.741  0.7314 -0.1879  0.7640
11747TIP3   OH256731   4.160   4.683   2.930 -0.3405  0.3470 -1.1077
11747TIP3    H156732   4.210   4.609   2.896 -0.4932 -0.7085  0.8683
11747TIP3    H256733   4.073   4.647   2.946 -0.0675  0.5496  1.1073
11748TIP3   OH256734   2.100   0.731   6.710  0.5458 -0.4543  0.0182
11748TIP3    H156735   2.141   0.782   6.640  0.8789 -0.9928 -0.1812
11748TIP3    H256736   2.043   0.794   6.755 -0.2696 -0.2823 -1.2173
11749TIP3   OH256737   1.068   0.022  14.048 -0.1128  0.6837  0.5586
11749TIP3    H156738   1.140  -0.025  14.006  0.4808  1.9217  0.1509
11749TIP3    H256739   1.094   0.030  14.140  0.0530  0.7335  0.5071
11750TIP3   OH256740   0.054   3.991   0.545 -0.2114  0.4234  0.4665
11750TIP3    H156741  -0.013   4.035   0.598 -1.3621 -1.0626  0.2971
11750TIP3    H256742   0.104   3.939   0.607  1.3444  2.0847  0.7106
11751TIP3   OH256743   1.497   0.191  12.743 -0.1431 -0.2511  0.3677
11751TIP3    H156744   1.459   0.164  12.659 -1.8380  1.7516  0.3974
11751TIP3    H256745   1.449   0.141  12.809  0.5697 -1.1646  0.2131
11752TIP3   OH256746   3.732   4.589   0.569 -0.4497  0.4315 -0.1135
11752TIP3    H156747   3.717   4.659   0.632 -1.9672 -0.8932  1.0833
11752TIP3    H256748   3.644   4.560   0.544  0.1230 -1.4623 -0.0620
11753TIP3   OH256749   4.974   6.453  14.168 -0.2833 -0.2984  0.0433
11753TIP3    H156750   5.057   6.438  14.125 -0.8929 -0.4931 -1.0993
11753TIP3    H256751   4.953   6.545  14.151 -0.2872 -0.2357  0.3659
11754TIP3   OH256752   6.647   1.209  12.335  1.1659 -0.2372 -0.5161
11754TIP3    H156753   6.577   1.171  12.389  2.7202  1.0183  2.6775
11754TIP3    H256754   6.607   1.286  12.295  0.6552  0.6241  1.4866
11755TIP3   OH256755   4.811   2.407  13.286 -0.2152 -0.4458  0.0159
11755TIP3    H156756   4.856   2.323  13.279  1.2118  0.0135  2.5724
11755TIP3    H256757   4.729   2.386  13.332 -0.6324 -0.6404 -0.7929
11756TIP3   OH256758   5.152   4.400   5.243  0.4715  0.1377  0.2816
11756TIP3    H156759   5.186   4.445   5.165  1.8511  1.6885  1.6911
11756TIP3    H256760   5.184   4.310   5.234  1.4459  0.5383 -0.4765
11757TIP3   OH256761   3.893   1.111  16.714 -0.0965 -0.3777  0.3130
11757TIP3    H156762   3.863   1.171  16.782  0.3310  0.9474 -0.6250
11757TIP3    H256763   3.845   1.138  16.636 -1.8346 -2.9400  0.3692
11758TIP3   OH256764   4.337   3.001   0.643 -0.0078  0.7243 -0.6500
11758TIP3    H156765   4.329   3.091   0.614  1.7145  0.9742 -0.4559
11758TIP3    H256766   4.409   2.965   0.591  0.2704 -0.0902  0.2618
11759TIP3   OH256767   1.562   0.646   0.298 -0.1265  0.4627 -0.3488
11759TIP3    H156768   1.544   0.615   0.387  2.7296 -1.0437 -0.1754
11759TIP3    H256769   1.518   0.583   0.241 -2.0215  1.4717 -0.0694
11760TIP3   OH256770   1.217   1.616  13.747  0.3565 -0.0296 -0.2426
11760TIP3    H156771   1.142   1.559  13.730  0.0436  0.4953 -0.6583
11760TIP3    H256772   1.230   1.665  13.665  0.8213  0.2622 -0.0045
11761TIP3   OH256773   0.659   4.644   4.335 -0.2604 -0.3804  0.0461
11761TIP3    H156774   0.660   4.554   4.367  1.0800  0.4234  2.5728
11761TIP3    H256775   0.659   4.636   4.239  3.1015 -3.1453  0.0870
11762TIP3   OH256776   4.801   6.245  14.867 -0.0097 -0.4106 -0.4208
11762TIP3    H156777   4.855   6.175  14.830  2.2551  0.2354  1.3976
11762TIP3    H256778   4.755   6.203  14.940 -0.0774 -0.4003 -0.4570
11763TIP3   OH256779   5.887   2.326   5.867  0.9083 -0.1970 -0.0326
11763TIP3    H156780   5.957   2.292   5.810  1.3374  1.0824 -0.3098
11763TIP3    H256781   5.924   2.320   5.955  0.4815 -1.6123  0.0632
11764TIP3   OH256782   0.096   2.113   1.720 -0.4074 -0.0096 -0.2767
11764TIP3    H156783   0.116   2.160   1.801 -0.8317 -1.2837  0.6081
11764TIP3    H256784   0.004   2.134   1.702  0.3105  2.2033 -1.8221
11765TIP3   OH256785   3.160   0.655   2.625 -0.3357  0.5909 -0.6060
11765TIP3    H156786   3.138   0.626   2.714 -3.8712  0.8212 -1.2689
11765TIP3    H256787   3.157   0.574   2.573  0.2082  0.6816 -0.7823
11766TIP3   OH256788   3.003   2.359   3.205  0.7373 -0.4378 -0.1924
11766TIP3    H156789   2.956   2.434   3.240 -1.4017 -1.2496 -1.1589
11766TIP3    H256790   3.095   2.378   3.222  0.1413  1.6197  1.0298
11767TIP3   OH256791   4.531   1.739   2.348  0.3724 -0.0869  0.1364
11767TIP3    H156792   4.441   1.707   2.342  0.9840 -2.0783  0.8242
11767TIP3    H256793   4.552   1.768   2.260 -0.8025  0.0385 -0.1264
11768TIP3   OH256794   4.354   4.461  12.695  0.3744  0.1779  0.0983
11768TIP3    H156795   4.383   4.470  12.604  0.5206 -0.3695  0.0846
11768TIP3    H256796   4.360   4.549  12.732 -1.0570  0.7091 -0.8352
11769TIP3   OH256797   6.387   2.657   2.244  0.3505  0.6037 -0.3271
11769TIP3    H156798   6.296   2.676   2.222 -0.1507 -1.1688  0.0439
11769TIP3    H256799   6.384   2.630   2.336  1.2949  0.8247 -0.2262
11770TIP3   OH256800   2.620   5.809   1.970  0.2430 -0.1980 -0.0676
11770TIP3    H156801   2.685   5.742   1.947  1.1586  0.5618  0.2153
11770TIP3    H256802   2.561   5.767   2.032  0.0515 -1.1115 -0.8549
11771TIP3   OH256803   5.766   5.134  14.087 -0.0228 -0.2595  0.0048
11771TIP3    H156804   5.753   5.051  14.041  0.7468 -0.0789 -0.5524
11771TIP3    H256805   5.711   5.127  14.165 -1.9108 -0.3155 -1.2563
11772TIP3   OH256806   0.148   3.002  16.082  0.0298  0.5644  0.2227
11772TIP3    H156807   0.083   2.947  16.039  0.0082  0.7374  0.0299
11772TIP3    H256808   0.110   3.090  16.077  0.0345  0.5865  0.5849
11773TIP3   OH256809   4.291   4.358   6.080 -0.2253 -0.1103 -0.5734
11773TIP3    H156810   4.205   4.325   6.056  0.2480  0.3548 -3.1124
11773TIP3    H256811   4.274   4.443   6.121 -0.9601  0.1873 -1.4795
11774TIP3   OH256812   4.852   3.840  12.351  0.0793  0.4427 -0.3399
11774TIP3    H156813   4.800   3.862  12.274 -1.0690 -0.0611  0.2614
11774TIP3    H256814   4.896   3.758  12.328 -0.5103  0.1261 -0.3554
11775TIP3   OH256815   2.834   0.208  13.193 -0.7080  0.4731  0.6517
11775TIP3    H156816   2.820   0.114  13.204 -0.0029  0.4652  1.7256
11775TIP3    H256817   2.922   0.223  13.229 -0.5437  1.4461 -0.1043
11776TIP3   OH256818   3.247   1.229   2.928 -0.3043 -0.2412  0.1719
11776TIP3    H156819   3.232   1.322   2.948 -0.6524 -0.6576  2.0023
11776TIP3    H256820   3.160   1.190   2.929 -0.6256 -0.0932 -3.9519
11777TIP3   OH256821   2.486   2.228   3.483 -0.0418 -0.0515 -0.1200
11777TIP3    H156822   2.511   2.160   3.420 -0.3979  1.9440 -2.6269
11777TIP3    H256823   2.407   2.194   3.525 -0.3738 -1.0989 -1.4911
11778TIP3   OH256824   1.455   5.153   5.509 -0.0870  0.2964 -0.4228
11778TIP3    H156825   1.489   5.165   5.598  1.5177 -1.6842 -0.6933
11778TIP3    H256826   1.372   5.199   5.509  0.7949  2.0605  1.4937
11779TIP3   OH256827   4.371   0.408  15.417 -0.1717 -0.7168  0.6191
11779TIP3    H156828   4.374   0.313  15.426  0.6321 -0.9535 -1.6343
11779TIP3    H256829   4.456   0.432  15.380 -1.7897  0.3132 -2.8915
11780TIP3   OH256830   4.433   0.880   3.058 -0.3910 -0.1391 -1.0930
11780TIP3    H156831   4.499   0.820   3.091  0.6282  0.7836 -1.3865
11780TIP3    H256832   4.366   0.881   3.126  1.0749  0.7914  0.4237
11781TIP3   OH256833   1.347   4.568  13.902  0.0123 -0.3954 -0.2971
11781TIP3    H156834   1.262   4.536  13.929  0.1102 -2.8430 -2.5554
11781TIP3    H256835   1.329   4.627  13.829  0.2442 -0.6767 -0.5829
11782TIP3   OH256836   4.441   3.247  14.794  0.2274 -0.2660 -0.2139
11782TIP3    H156837   4.355   3.234  14.835  0.3549 -1.3479 -0.2510
11782TIP3    H256838   4.421   3.288  14.710 -0.0680  1.5995  0.7061
11783TIP3   OH256839   5.909   6.590  13.986 -0.2856  0.1145 -0.1933
11783TIP3    H156840   5.939   6.615  14.073  1.5035  1.1764 -1.0699
11783TIP3    H256841   5.918   6.495  13.984 -1.9362 -0.1463  1.2925
11784TIP3   OH256842   0.244   3.878   4.168  0.0600 -0.4184 -0.3204
11784TIP3    H156843   0.228   3.925   4.251 -0.0595 -0.3676 -0.3724
11784TIP3    H256844   0.159   3.877   4.125 -0.3149 -2.0968  0.4007
11785TIP3   OH256845   3.758   2.125  12.614 -0.5420 -0.0746 -0.1788
11785TIP3    H156846   3.796   2.061  12.553 -0.0297  0.7632 -0.7580
11785TIP3    H256847   3.800   2.105  12.698  0.3717  0.1160 -0.5719
11786TIP3   OH256848   3.488   6.445  12.859 -0.3979 -0.5087  0.7945
11786TIP3    H156849   3.480   6.515  12.795 -0.5251 -0.9491  0.3241
11786TIP3    H256850   3.494   6.490  12.943  2.2364  0.2152  0.3086
11787TIP3   OH256851   6.526   6.411  11.455 -1.0962 -0.8131 -0.5535
11787TIP3    H156852   6.555   6.487  11.404 -1.9072  0.5375  0.8813
11787TIP3    H256853   6.600   6.350  11.452 -0.1968  0.2780 -1.3096
11788TIP3   OH256854   5.967   5.266   0.944 -0.2394 -0.5098 -0.0142
11788TIP3    H156855   6.018   5.346   0.954 -1.0374  0.0369 -0.1678
11788TIP3    H256856   5.901   5.270   1.013 -1.1897 -0.3026 -0.8980
11789TIP3   OH256857   5.119   2.496   0.578 -0.0242  0.1433 -0.0211
11789TIP3    H156858   5.068   2.569   0.612 -0.9296 -0.7608  0.6102
11789TIP3    H256859   5.156   2.455   0.656  0.0870 -0.3494 -0.3352
11790TIP3   OH256860   3.902   0.052   2.306  0.3016 -0.8683 -0.4316
11790TIP3    H156861   3.856  -0.031   2.301  2.3031 -1.9839 -1.4044
11790TIP3    H256862   3.993   0.029   2.324  0.7661  1.1647  0.1534
11791TIP3   OH256863   3.610   1.904   1.505  0.5978 -0.7602 -0.2868
11791TIP3    H156864   3.685   1.963   1.497 -1.0696  1.5939  0.2390
11791TIP3    H256865   3.598   1.893   1.600  1.2991 -2.6168 -0.3654
11792TIP3   OH256866   1.434   5.464   5.932 -0.3703  0.0801 -0.1089
11792TIP3    H156867   1.454   5.555   5.909 -0.3578  0.1148  0.0340
11792TIP3    H256868   1.495   5.413   5.879  0.9270  0.2327  1.1718
11793TIP3   OH256869   3.970   0.105   6.151 -0.3727  0.3988 -0.0754
11793TIP3    H156870   3.930   0.066   6.073  1.1768 -1.2238 -0.1224
11793TIP3    H256871   3.970   0.035   6.216  3.0469 -0.0436 -0.3461
11794TIP3   OH256872   2.767   2.597   0.855  0.3141 -0.1920 -0.0435
11794TIP3    H156873   2.833   2.633   0.796 -2.0608  3.2559 -0.8939
11794TIP3    H256874   2.783   2.641   0.939 -0.4401  0.1544 -0.0703
11795TIP3   OH256875   1.528   5.670   0.241 -0.7980  0.0466  0.7785
11795TIP3    H156876   1.478   5.600   0.200 -0.1299  0.0195 -0.0218
11795TIP3    H256877   1.596   5.691   0.177 -0.1514  0.4795  1.5940
11796TIP3   OH256878   1.913   1.668  14.036 -0.3915  0.5085 -0.7964
11796TIP3    H156879   1.910   1.656  14.131 -0.8369  0.5717 -0.7965
11796TIP3    H256880   1.821   1.663  14.009 -0.1477 -1.0053 -1.4132
11797TIP3   OH256881   6.762   0.078  13.650  0.1307 -0.1512  0.3189
11797TIP3    H156882   6.668   0.082  13.670 -0.4096 -2.0298 -1.5180
11797TIP3    H256883   6.799   0.026  13.722  0.0173  1.5600  1.6715
11798TIP3   OH256884   5.323   1.904   0.160  0.1471  0.4316 -0.5542
11798TIP3    H156885   5.335   1.824   0.109  1.8630 -0.6075  1.3008
11798TIP3    H256886   5.397   1.959   0.137 -0.4788  1.0667 -1.0737
11799TIP3   OH256887   5.918   3.679   0.981 -0.5693 -0.1707 -0.5855
11799TIP3    H156888   5.897   3.612   1.046  0.2145  1.7421  1.7896
11799TIP3    H256889   6.010   3.665   0.960 -0.5438 -0.1696 -0.4749
11800TIP3   OH256890   1.985   4.284  16.902 -0.8812  0.2358 -0.0860
11800TIP3    H156891   2.049   4.344  16.939 -0.3150 -0.2150 -0.3249
11800TIP3    H256892   2.033   4.234  16.836 -1.7446  0.6502 -1.0600
11801TIP3   OH256893   1.189   6.397   0.294  0.2204  0.4434  0.2110
11801TIP3    H156894   1.142   6.378   0.376  0.1141 -0.0650  0.0332
11801TIP3    H256895   1.271   6.436   0.323  0.6578 -0.7346  0.6065
11802TIP3   OH256896   0.337   2.510  15.502  0.0714  0.1691 -0.0977
11802TIP3    H156897   0.253   2.523  15.546  0.6685  0.8189  0.9026
11802TIP3    H256898   0.346   2.415  15.494 -0.1358  0.0295  1.0776
11803TIP3   OH256899   5.140   2.105   4.184 -0.1293 -0.1539 -0.0544
11803TIP3    H156900   5.128   2.171   4.115  1.5856 -0.2682 -0.5080
11803TIP3    H256901   5.232   2.080   4.177 -0.3420 -1.3879  1.2124
11804TIP3   OH256902   2.977   5.099  16.908 -0.2101  0.1975 -0.2732
11804TIP3    H156903   2.915   5.045  16.957 -0.4339 -0.1348 -0.9071
11804TIP3    H256904   3.051   5.111  16.968  0.3235 -1.7297 -0.4749
11805TIP3   OH256905   3.971   2.108  10.785 -0.3607  0.0825 -1.0106
11805TIP3    H156906   4.059   2.139  10.766 -1.2230  2.1478 -1.9640
11805TIP3    H256907   3.984   2.031  10.840  2.0271  0.1069 -1.4378
11806TIP3   OH256908   5.644   2.312   1.042 -0.4174 -0.6465 -0.4852
11806TIP3    H156909   5.553   2.289   1.059 -0.4770  0.7414  1.4968
11806TIP3    H256910   5.694   2.238   1.077 -0.7472 -1.3607 -1.4796
11807TIP3   OH256911   3.667   4.038   1.634  0.8765  0.0857 -0.0516
11807TIP3    H156912   3.677   4.092   1.713 -0.8296 -0.3490  0.5088
11807TIP3    H256913   3.577   4.055   1.605  0.7568 -1.4164 -0.6467
11808TIP3   OH256914   0.769   4.100  13.089 -0.7152  0.4315 -0.4303
11808TIP3    H156915   0.823   4.038  13.137  0.9257  0.3925 -2.2050
11808TIP3    H256916   0.785   4.184  13.132  0.1475  0.2750 -0.4272
11809TIP3   OH256917   2.864   5.929   1.014 -0.0155  0.4151 -0.2431
11809TIP3    H156918   2.923   5.854   1.017 -0.6485 -0.1399  3.5330
11809TIP3    H256919   2.885   5.979   1.092 -2.4896  1.8585 -0.4088
11810TIP3   OH256920   2.381   1.533  12.406 -0.0069 -0.3246 -0.0166
11810TIP3    H156921   2.385   1.486  12.489  1.5202 -1.5937 -0.7463
11810TIP3    H256922   2.295   1.510  12.370 -0.9266  0.7011  1.4195
11811TIP3   OH256923   0.594   2.942  13.099  0.7344 -0.2748 -0.1640
11811TIP3    H156924   0.630   2.918  13.185  0.1401  0.0877  0.1869
11811TIP3    H256925   0.590   3.037  13.101 -0.6217 -0.3149 -0.0350
11812TIP3   OH256926   0.539   1.920  12.304  0.2946 -0.1775  0.3510
11812TIP3    H156927   0.457   1.957  12.337 -0.2354 -0.7082 -0.3460
11812TIP3    H256928   0.590   1.901  12.382 -0.1623  0.3471  0.7855
11813TIP3   OH256929   6.438   5.612   0.604  0.3743  0.0075 -0.4010
11813TIP3    H156930   6.365   5.585   0.660 -0.4965 -1.4504 -2.1413
11813TIP3    H256931   6.401   5.615   0.516  1.7743  1.9265 -1.0090
11814TIP3   OH256932   6.402   1.593  15.447 -0.1058  0.0983  0.6030
11814TIP3    H156933   6.380   1.652  15.376 -1.8144  1.4478  2.1595
11814TIP3    H256934   6.323   1.541  15.461  1.1053 -2.1489 -0.2308
11815TIP3   OH256935   4.394   1.133   3.732 -0.2893  0.5519 -0.3314
11815TIP3    H156936   4.349   1.091   3.805  1.9897 -0.3444  0.6471
11815TIP3    H256937   4.450   1.198   3.773  1.2012 -0.1227 -1.2333
11816TIP3   OH256938   0.416   3.840   2.492  0.1921 -0.3495 -0.6717
11816TIP3    H156939   0.450   3.905   2.430  0.7335  0.1474  0.1125
11816TIP3    H256940   0.493   3.789   2.517 -0.4929 -2.4075 -2.5063
11817TIP3   OH256941   4.145   6.060  16.221 -0.0032 -0.3739  0.1743
11817TIP3    H156942   4.223   6.090  16.174 -0.3011 -1.3138 -1.0028
11817TIP3    H256943   4.170   5.974  16.256 -0.3237 -0.4238  0.2819
11818TIP3   OH256944   4.208   5.648   3.162  0.0473  0.1225 -0.1184
11818TIP3    H156945   4.300   5.662   3.185  0.2763 -0.3855 -0.7190
11818TIP3    H256946   4.210   5.579   3.096 -0.9048 -1.3269  1.3141
11819TIP3   OH256947   4.538   1.746  12.532  0.4966 -0.0203 -0.1146
11819TIP3    H156948   4.481   1.691  12.586 -1.6158 -1.4939 -3.5031
11819TIP3    H256949   4.537   1.832  12.575 -2.0568 -0.7556  1.4925
11820TIP3   OH256950   2.067   3.179  12.870  0.2664 -0.8627  0.0909
11820TIP3    H156951   2.019   3.141  12.796  1.8998 -2.4573 -0.2260
11820TIP3    H256952   1.999   3.205  12.932 -1.0875 -0.6943 -1.4118
11821TIP3   OH256953   0.418   2.628   5.325 -0.1118  0.6311 -0.5228
11821TIP3    H156954   0.445   2.718   5.341  1.4383 -0.1659  1.8065
11821TIP3    H256955   0.497   2.585   5.293 -0.3840 -0.2701 -0.0169
11822TIP3   OH256956   3.431   4.494   4.611 -0.2603  0.3690 -0.0589
11822TIP3    H156957   3.483   4.442   4.674 -1.0179  0.7118  0.8690
11822TIP3    H256958   3.447   4.451   4.527 -1.9112 -2.2821  0.8413
11823TIP3   OH256959   4.399   4.060   2.671  0.0563 -0.0723  0.5860
11823TIP3    H156960   4.430   3.985   2.620  0.9410  0.0166  0.9715
11823TIP3    H256961   4.471   4.123   2.666 -1.2078  1.3297 -0.8731
11824TIP3   OH256962   3.627   1.409   1.100 -0.7214  0.2899 -0.1439
11824TIP3    H156963   3.668   1.484   1.142 -0.8371  0.0270  0.4470
11824TIP3    H256964   3.537   1.409   1.134 -0.7185 -0.1225 -0.1366
11825TIP3   OH256965   5.534   3.242   1.271 -0.2155 -0.4231 -0.2753
11825TIP3    H156966   5.516   3.267   1.180 -1.8510 -2.4477 -0.5678
11825TIP3    H256967   5.564   3.152   1.266  0.8785 -0.1660  1.1183
11826TIP3   OH256968   0.775   1.630  15.550  0.0659 -0.5515  0.2740
11826TIP3    H156969   0.750   1.719  15.526 -2.1979 -1.0837  0.4677
11826TIP3    H256970   0.788   1.633  15.645 -1.7251 -0.7487  0.5603
11827TIP3   OH256971   4.081   4.027   1.802  0.0525  0.2741 -0.1023
11827TIP3    H156972   4.101   3.933   1.798  0.3526  0.3732 -1.3617
11827TIP3    H256973   4.161   4.067   1.836 -0.5447 -0.0361  1.7827
11828TIP3   OH256974   1.976   0.162  14.126 -0.1411 -0.0123  0.6459
11828TIP3    H156975   1.908   0.167  14.059 -1.0546  1.3334  1.6230
11828TIP3    H256976   2.059   0.169  14.077 -0.7539 -0.1180 -0.4276
11829TIP3   OH256977   5.248   4.026   1.444 -0.0888  0.1517 -0.0487
11829TIP3    H156978   5.297   4.050   1.523 -1.1447  1.6131  0.2002
11829TIP3    H256979   5.301   4.059   1.372  0.9067 -1.2322  0.0125
11830TIP3   OH256980   6.160   5.332   3.067 -0.1205  0.6897  0.6569
11830TIP3    H156981   6.189   5.423   3.074  0.7575  0.3770  1.1543
11830TIP3    H256982   6.176   5.295   3.153  0.8499 -0.3196  0.0632
11831TIP3   OH256983   5.486   2.953  16.524  0.2000  0.1417  0.1877
11831TIP3    H156984   5.547   2.918  16.589  1.9523  3.5693  0.6462
11831TIP3    H256985   5.522   2.927  16.439 -0.6552 -2.1536  0.4661
11832TIP3   OH256986   3.278   6.105  16.905 -0.1003  0.2759  0.0659
11832TIP3    H156987   3.243   6.116  16.994 -0.1049  2.0734 -0.1243
11832TIP3    H256988   3.341   6.033  16.913 -1.3714 -0.7579  1.1332
11833TIP3   OH256989   0.256   0.949   4.036  0.0729  0.2965  0.2042
11833TIP3    H156990   0.174   0.971   3.992 -0.2355  0.2802  0.7626
11833TIP3    H256991   0.272   0.858   4.013  1.1328  0.9262 -1.7652
11834TIP3   OH256992   6.779   4.065  11.384 -0.3439 -0.1805  0.0484
11834TIP3    H156993   6.848   4.130  11.391  1.0290 -1.7531  3.3212
11834TIP3    H256994   6.701   4.110  11.416 -0.4951  1.0463 -1.8829
11835TIP3   OH256995   3.216   1.005  13.084 -0.2842  0.8967 -0.2683
11835TIP3    H156996   3.172   1.004  13.000 -0.2088  0.0007 -0.3058
11835TIP3    H256997   3.297   0.955  13.070 -0.2010  0.8601  0.2922
11836TIP3   OH256998   6.074   5.303  11.440  0.0342  0.1600 -0.2219
11836TIP3    H156999   6.015   5.257  11.499  1.1893 -0.3375  0.5633
11836TIP3    H257000   6.016   5.353  11.383 -1.1522 -0.4884  0.3855
11837TIP3   OH257001   3.763   6.666   1.256  0.1306 -0.7102 -0.3243
11837TIP3    H157002   3.843   6.639   1.212  0.8411  0.0877  0.4526
11837TIP3    H257003   3.718   6.583   1.276  0.5699 -1.1460 -1.0878
11838TIP3   OH257004   4.288   3.759  11.424  0.0807  0.1409 -0.3633
11838TIP3    H157005   4.330   3.836  11.387  0.3790 -0.6776 -1.8138
11838TIP3    H257006   4.361   3.707  11.459  0.0513 -0.1948 -0.7896
11839TIP3   OH257007   0.641   3.663  12.322 -0.4751 -0.2765  0.0078
11839TIP3    H157008   0.628   3.606  12.247  0.1535 -0.6623  0.1859
11839TIP3    H257009   0.564   3.720  12.323 -0.5151 -0.3054 -0.8887
11840TIP3   OH257010   4.624   5.741   3.495 -0.5414 -0.1781 -0.1936
11840TIP3    H157011   4.703   5.740   3.549 -0.8538  0.6399  0.2827
11840TIP3    H257012   4.553   5.727   3.557 -0.8397 -0.0276 -0.5022
11841TIP3   OH257013   4.413   4.366  10.464  0.3759 -0.2506  0.8717
11841TIP3    H157014   4.408   4.284  10.514 -1.8818 -3.0282 -3.3726
11841TIP3    H257015   4.322   4.387  10.444  1.1261  0.4971 -2.1815
11842TIP3   OH257016   6.143   6.709  14.470 -0.2783 -0.5328  0.0574
11842TIP3    H157017   6.147   6.789  14.417  0.7139  0.1560  1.1226
11842TIP3    H257018   6.228   6.706  14.515  0.4189 -3.1039 -1.2356
11843TIP3   OH257019   6.154   0.575  13.211 -0.1292 -0.1229 -0.2680
11843TIP3    H157020   6.122   0.638  13.275  2.4340 -1.3236  2.4365
11843TIP3    H257021   6.103   0.496  13.227  0.3098 -0.3302  0.1631
11844TIP3   OH257022   2.002   4.428  14.428  0.1743  0.9354 -0.2187
11844TIP3    H157023   1.923   4.398  14.471 -0.9165  0.4897 -2.3734
11844TIP3    H257024   1.973   4.500  14.372  1.2486  0.6709 -1.1590
11845TIP3   OH257025   3.133   6.771   3.053  0.5812 -0.0120 -0.5121
11845TIP3    H157026   3.150   6.680   3.030  1.5751 -0.0206  0.2243
11845TIP3    H257027   3.197   6.792   3.121 -0.3583  0.8983  0.1357
11846TIP3   OH257028   4.100   5.289  11.446 -0.9164 -0.4123  0.0687
11846TIP3    H157029   4.026   5.343  11.474 -1.2432 -0.7925 -0.0556
11846TIP3    H257030   4.178   5.335  11.479 -1.1204  0.6890 -0.9191
11847TIP3   OH257031   1.282   6.703   4.977  0.4509  1.1912 -0.4166
11847TIP3    H157032   1.341   6.743   5.040  1.7426  1.6325 -1.8306
11847TIP3    H257033   1.236   6.777   4.937  1.5897  1.1842 -1.8248
11848TIP3   OH257034   4.506   2.520  15.843 -0.2774 -0.0427  0.3485
11848TIP3    H157035   4.479   2.611  15.856  1.6481  0.4360  1.4494
11848TIP3    H257036   4.520   2.512  15.748 -0.3966  0.8363  0.2517
11849TIP3   OH257037   5.222   2.263  16.936 -0.9150  0.3338 -0.7003
11849TIP3    H157038   5.129   2.279  16.919 -0.9464 -0.7327 -1.6455
11849TIP3    H257039   5.267   2.311  16.867 -0.6040  2.5544  0.9173
11850TIP3   OH257040   0.545   1.076  14.862  0.0608 -0.3251 -0.1698
11850TIP3    H157041   0.466   1.049  14.815  0.2549  0.2847 -0.8678
11850TIP3    H257042   0.518   1.154  14.910 -0.0909 -0.8488  0.6086
11851TIP3   OH257043   2.016   4.093   5.888 -0.2842  0.1564  0.3959
11851TIP3    H157044   1.960   4.132   5.955 -0.6393 -1.1348  0.8969
11851TIP3    H257045   2.069   4.030   5.936  2.2677  1.9368  0.0786
11852TIP3   OH257046   6.764   5.355   2.305 -0.6050 -0.0292 -0.8573
11852TIP3    H157047   6.782   5.404   2.225 -2.0650  0.0865 -1.1360
11852TIP3    H257048   6.702   5.288   2.279 -0.9864 -0.0857  0.1487
11853TIP3   OH257049   6.358   0.148   2.952  0.0827 -0.5131 -0.3884
11853TIP3    H157050   6.346   0.053   2.962 -0.4288 -0.3002  1.4238
11853TIP3    H257051   6.445   0.165   2.988  0.1176 -0.2753 -0.5860
11854TIP3   OH257052   2.321   2.338   2.216  0.4827  0.0893 -0.7290
11854TIP3    H157053   2.231   2.307   2.227  0.7032 -0.5291 -0.6281
11854TIP3    H257054   2.338   2.391   2.294 -0.2926  1.4645 -1.4589
11855TIP3   OH257055   2.414   5.452   2.352  0.7071 -0.2622  0.4320
11855TIP3    H157056   2.406   5.427   2.443  2.0389 -1.5275  0.2307
11855TIP3    H257057   2.392   5.373   2.303 -0.7765  0.6097 -0.3980
11856TIP3   OH257058   0.015   5.032  15.919 -1.0610  0.2437  0.3261
11856TIP3    H157059   0.062   4.966  15.971  0.7502  1.0110 -0.2498
11856TIP3    H257060   0.025   5.113  15.969 -0.6387  0.6730 -0.4404
11857TIP3   OH257061   4.921   2.612  15.606  0.8307 -0.0239  0.1208
11857TIP3    H157062   4.883   2.601  15.518 -0.2129  0.0886  0.5366
11857TIP3    H257063   4.915   2.706  15.623 -0.6413 -0.2347  0.9961
11858TIP3   OH257064   4.919   6.567   4.409  0.4895  0.2176  0.0450
11858TIP3    H157065   4.994   6.529   4.455 -0.3531 -1.6800 -0.0382
11858TIP3    H257066   4.935   6.544   4.317  0.4814  1.0195 -0.1582
11859TIP3   OH257067   0.021   1.299  11.737 -0.5925 -0.6539  0.3315
11859TIP3    H157068   0.096   1.287  11.679 -0.0466 -1.7617  1.2215
11859TIP3    H257069  -0.053   1.312  11.679  0.4810  2.0581 -0.5937
11860TIP3   OH257070   2.654   1.242   5.719 -0.2975  0.1410  0.3294
11860TIP3    H157071   2.679   1.222   5.810  0.9997 -0.7261 -0.1880
11860TIP3    H257072   2.648   1.337   5.716 -1.0971  0.1464  1.5037
11861TIP3   OH257073   4.714   1.340   2.370 -0.3273 -0.2627  0.1842
11861TIP3    H157074   4.647   1.297   2.424  0.8260 -0.7334  1.2801
11861TIP3    H257075   4.720   1.428   2.405  0.4716 -0.5898  0.8912
11862TIP3   OH257076   2.176   4.631  12.190  0.3016 -0.0687 -0.2195
11862TIP3    H157077   2.244   4.684  12.231 -0.5163  1.5806 -0.8994
11862TIP3    H257078   2.221   4.585  12.119  0.6327  1.6279 -1.1823
11863TIP3   OH257079   2.722   4.534  14.092 -0.1640  0.3583  0.0297
11863TIP3    H157080   2.792   4.596  14.115  1.3288 -1.6843  1.3484
11863TIP3    H257081   2.656   4.546  14.161  0.6509 -0.2774  0.9428
11864TIP3   OH257082   5.106   1.776  15.440 -0.8101 -0.0892  0.2100
11864TIP3    H157083   5.034   1.742  15.492 -1.5641  0.4586 -0.4571
11864TIP3    H257084   5.180   1.780  15.501 -1.3801 -0.5074  0.9343
11865TIP3   OH257085   1.716   5.730  11.713 -0.0495 -0.6231 -0.0359
11865TIP3    H157086   1.627   5.697  11.696 -1.0671  1.6052  0.5625
11865TIP3    H257087   1.731   5.795  11.645  1.1797 -1.0354 -0.1761
11866TIP3   OH257088   2.816   4.425  17.133 -0.4896  0.1999  0.3652
11866TIP3    H157089   2.905   4.457  17.145 -0.5235  0.1126  0.8873
11866TIP3    H257090   2.824   4.329  17.135 -0.4123  0.1547 -1.0102
11867TIP3   OH257091   3.953   3.634  10.970 -0.1510 -0.1643  0.1072
11867TIP3    H157092   3.954   3.728  10.987  1.1848 -0.0189 -0.5583
11867TIP3    H257093   3.861   3.610  10.964 -0.5008  1.0582  0.5276
11868TIP3   OH257094   2.192   1.093  13.172 -0.4665  0.4042  0.2195
11868TIP3    H157095   2.286   1.075  13.170 -0.6001 -0.3386  0.4437
11868TIP3    H257096   2.173   1.129  13.085 -0.2546 -0.9160 -0.3921
11869TIP3   OH257097   5.606   3.979   4.480 -0.3511  0.0375 -0.4053
11869TIP3    H157098   5.608   3.891   4.443  1.0645  0.0155 -0.3368
11869TIP3    H257099   5.673   3.978   4.548 -0.8239  0.9681  0.0991
11870TIP3   OH257100   2.608   2.713  12.812  0.2964 -0.5416 -0.4011
11870TIP3    H157101   2.616   2.795  12.763 -1.0740  0.0380  0.2804
11870TIP3    H257102   2.695   2.672  12.805  0.1637 -0.5021 -3.2462
11871TIP3   OH257103   3.117   6.084  17.194  0.2171  0.1942  0.4623
11871TIP3    H157104   3.136   6.099  17.287 -0.7776  1.9735  0.4192
11871TIP3    H257105   3.037   6.133  17.177 -0.2767 -1.0474 -1.0944
11872TIP3   OH257106   3.788   1.021   2.555 -0.1539  0.2691  0.0780
11872TIP3    H157107   3.851   0.950   2.555  0.6392  0.8842 -2.0246
11872TIP3    H257108   3.754   1.023   2.465  0.0050  2.6379  0.0016
11873TIP3   OH257109   1.160   0.821   2.520  0.0688 -0.5327  0.2439
11873TIP3    H157110   1.247   0.809   2.482  0.4074 -0.4515  0.9622
11873TIP3    H257111   1.176   0.821   2.615 -0.1424  3.3192  0.4263
11874TIP3   OH257112   5.695   6.246   2.689 -0.1373  0.1902  0.5796
11874TIP3    H157113   5.691   6.261   2.783 -2.8163 -1.6074  0.8383
11874TIP3    H257114   5.673   6.331   2.650  1.1348  0.9901  1.4847
11875TIP3   OH257115   5.939   2.856  12.180  0.2831 -0.3155 -0.0546
11875TIP3    H157116   5.975   2.913  12.248 -0.0596 -0.6215  0.3882
11875TIP3    H257117   5.844   2.863  12.189  0.0663  2.4401 -2.8319
11876TIP3   OH257118   1.966   2.583  12.963  0.0361  0.1737 -0.5794
11876TIP3    H157119   1.980   2.677  12.951  0.2612  0.0329 -1.5011
11876TIP3    H257120   1.911   2.576  13.041 -1.1652  1.1500 -1.3170
11877TIP3   OH257121   5.958   0.955  14.904 -0.0853 -0.3651  0.2368
11877TIP3    H157122   5.996   0.986  14.987 -3.0553  1.4175  1.0791
11877TIP3    H257123   5.999   1.011  14.838  0.3690  0.0274  0.8331
11878TIP3   OH257124   0.890   5.221  14.797  0.2946  0.1860 -0.4086
11878TIP3    H157125   0.903   5.237  14.704 -0.9274  0.2598 -0.5807
11878TIP3    H257126   0.804   5.260  14.817  0.1872 -0.5042  0.5720
11879TIP3   OH257127   1.654   1.387  14.518 -0.0098  0.3520  0.1490
11879TIP3    H157128   1.700   1.431  14.590  0.6042 -0.3516  0.2093
11879TIP3    H257129   1.586   1.448  14.491 -1.3138  0.0211  2.3910
11880TIP3   OH257130   3.619   4.550  13.650 -0.1906 -0.0471 -0.1985
11880TIP3    H157131   3.528   4.534  13.674 -0.2775  0.3791 -0.2441
11880TIP3    H257132   3.633   4.643  13.668 -0.2936  0.3261 -1.8744
11881TIP3   OH257133   2.945   6.332  14.724 -0.5409 -0.3914  0.2373
11881TIP3    H157134   2.969   6.274  14.796  0.6680  0.6006  0.6660
11881TIP3    H257135   2.875   6.387  14.759 -0.1602 -0.1103  0.5684
11882TIP3   OH257136   1.809   0.651   6.082  0.1348 -0.4591  0.1319
11882TIP3    H157137   1.882   0.665   6.142 -0.6591 -0.2038  1.0655
11882TIP3    H257138   1.752   0.589   6.128 -1.6563  1.5170  0.7186
11883TIP3   OH257139   5.322   1.861  16.055  0.2809 -0.1299  0.4578
11883TIP3    H157140   5.401   1.910  16.078 -0.6371  1.6194  0.0934
11883TIP3    H257141   5.348   1.808  15.979  1.6897 -1.3916  1.7468
11884TIP3   OH257142   2.148   6.825  12.655  0.0237  0.1253  0.2615
11884TIP3    H157143   2.078   6.807  12.593 -0.2629 -1.1219  0.9122
11884TIP3    H257144   2.119   6.904  12.701 -1.4312 -0.8651  1.1425
11885TIP3   OH257145   0.788   3.194  11.877  0.1073 -0.1544  0.3664
11885TIP3    H157146   0.767   3.282  11.845  0.5219 -0.1334  0.1441
11885TIP3    H257147   0.874   3.203  11.916 -0.8549  0.0754  2.5776
11886TIP3   OH257148   2.725   1.176   5.973 -0.1063  0.5440 -0.6401
11886TIP3    H157149   2.730   1.211   6.061 -0.2863  2.0340 -1.2003
11886TIP3    H257150   2.674   1.095   5.982 -1.5872  1.5424  0.3885
11887TIP3   OH257151   3.233   0.590   4.101  0.2775 -0.5035 -0.2438
11887TIP3    H157152   3.243   0.645   4.179  1.4289 -0.8962 -0.0795
11887TIP3    H257153   3.142   0.560   4.103 -0.3581  1.3458 -0.3290
11888TIP3   OH257154   6.435   3.649   3.523 -0.3118  0.0714  0.2823
11888TIP3    H157155   6.401   3.571   3.479  1.4299 -0.9219  0.6364
11888TIP3    H257156   6.529   3.636   3.527 -0.0029  2.0703  0.6277
11889TIP3   OH257157   3.199   6.012   4.024 -0.3446  0.3787  0.0098
11889TIP3    H157158   3.235   5.991   4.111 -2.3269 -1.2171  0.5368
11889TIP3    H257159   3.268   6.062   3.981  1.3328 -0.1285  1.9252
11890TIP3   OH257160   0.534   0.131   1.070 -0.1224  0.6425  0.5024
11890TIP3    H157161   0.581   0.067   1.016  0.2467  0.6875  0.7674
11890TIP3    H257162   0.522   0.207   1.013 -0.1095  0.5304  0.3505
11891TIP3   OH257163   2.567   4.193   1.864 -0.8802 -0.1822  0.3702
11891TIP3    H157164   2.646   4.219   1.818 -0.0881 -1.6048  0.8614
11891TIP3    H257165   2.504   4.173   1.794 -0.0184 -1.3550 -0.0946
11892TIP3   OH257166   0.547   3.880  15.079  0.3802 -0.2131  0.7636
11892TIP3    H157167   0.582   3.916  15.161  1.2969  1.1254 -0.1728
11892TIP3    H257168   0.607   3.911  15.012 -0.4882 -1.0952 -0.4603
11893TIP3   OH257169   1.805   0.520   5.829 -0.0112  0.1725 -0.4035
11893TIP3    H157170   1.807   0.570   5.911 -0.8353  0.9560 -0.8463
11893TIP3    H257171   1.716   0.486   5.824  0.9676 -2.9150  0.7670
11894TIP3   OH257172   0.903   0.169   2.393 -0.5191 -0.1662 -0.3009
11894TIP3    H157173   0.935   0.259   2.399  0.3409 -0.5278  0.8765
11894TIP3    H257174   0.808   0.176   2.398 -0.4133  0.5214  2.9279
11895TIP3   OH257175   0.418   3.080  16.088 -0.1290 -0.9981  0.2799
11895TIP3    H157176   0.397   3.170  16.111 -0.4611 -0.9339 -0.2509
11895TIP3    H257177   0.333   3.039  16.074  0.0347 -1.2841  0.1117
11896TIP3   OH257178   2.749   4.593   2.811 -0.3880  1.0801  0.5544
11896TIP3    H157179   2.691   4.520   2.791 -0.6380  1.9754 -2.5758
11896TIP3    H257180   2.837   4.554   2.815 -0.5937  0.4865 -0.4337
11897TIP3   OH257181   2.611   6.699   1.215 -0.3269  0.2302 -0.3377
11897TIP3    H157182   2.526   6.654   1.210 -0.3304  0.1860  0.0510
11897TIP3    H257183   2.668   6.648   1.157 -0.0204 -1.0049  0.9823
11898TIP3   OH257184   4.374   0.367   5.600  0.0362  0.6161 -0.9840
11898TIP3    H157185   4.324   0.298   5.555 -0.3293  0.5422 -0.4683
11898TIP3    H257186   4.313   0.402   5.665 -0.1066  2.0834 -1.8711
11899TIP3   OH257187   4.081   0.211   0.399  0.9519  0.3926  0.3258
11899TIP3    H157188   4.031   0.233   0.320 -0.8082 -1.8487  0.6869
11899TIP3    H257189   4.065   0.284   0.459  1.1933  1.4737 -0.8928
11900TIP3   OH257190   5.862   5.396  11.176 -0.4403 -0.1631 -0.4166
11900TIP3    H157191   5.942   5.424  11.132 -0.1629  1.0410  0.7835
11900TIP3    H257192   5.814   5.477  11.193 -1.0256 -0.6814  0.5332
11901TIP3   OH257193   2.115   2.002  16.981 -0.1163 -0.1034  0.1066
11901TIP3    H157194   2.181   1.933  16.986 -0.4358 -0.5040 -0.8153
11901TIP3    H257195   2.034   1.956  16.957 -0.6991  0.4014  1.0355
11902TIP3   OH257196   0.525   3.025  10.519 -0.2832  0.3366  0.0469
11902TIP3    H157197   0.560   3.110  10.491 -0.9650  1.2363  1.7780
11902TIP3    H257198   0.574   3.004  10.599 -0.3470 -0.7483 -0.1936
11903TIP3   OH257199   2.016   6.005  11.391 -0.2023 -0.0594 -0.6005
11903TIP3    H157200   2.007   6.005  11.295 -0.1705 -1.8614 -0.6438
11903TIP3    H257201   2.074   6.079  11.410 -0.2653  0.3683 -1.9611
11904TIP3   OH257202   4.682   4.499  16.341  0.5030  0.9687  0.3406
11904TIP3    H157203   4.772   4.472  16.324  0.4048  1.6763 -1.5333
11904TIP3    H257204   4.631   4.458  16.271 -0.4246  1.6923  0.5725
11905TIP3   OH257205   6.691   5.330   3.563  0.4569  0.2919 -0.2058
11905TIP3    H157206   6.703   5.235   3.558 -1.9494 -0.0165 -1.6150
11905TIP3    H257207   6.776   5.366   3.538  1.3776 -1.4727  0.1983
11906TIP3   OH257208   2.772   3.106   3.463 -0.0243 -0.2624 -0.2060
11906TIP3    H157209   2.681   3.111   3.492 -0.9079  1.1086 -2.9049
11906TIP3    H257210   2.822   3.131   3.541 -2.0157  0.1879  1.0188
11907TIP3   OH257211   1.531   4.657   5.388  0.6026  0.6902  0.5567
11907TIP3    H157212   1.488   4.738   5.414  0.3932  0.7761 -0.0441
11907TIP3    H257213   1.603   4.685   5.332 -0.9594  0.3846 -1.7572
11908TIP3   OH257214   4.359   1.014  11.755  0.1371 -0.2026 -0.0348
11908TIP3    H157215   4.406   1.075  11.812  0.1085  0.9262 -1.1728
11908TIP3    H257216   4.316   1.070  11.691 -1.9094 -1.2811  0.3274
11909TIP3   OH257217   4.045   0.852  17.095  0.6427  0.1711 -0.9058
11909TIP3    H157218   4.028   0.930  17.042  1.5722  2.9052  2.4332
11909TIP3    H257219   3.975   0.852  17.161  1.6142 -0.8436  0.1760
11910TIP3   OH257220   4.327   1.985   6.042 -0.1696  0.1851  0.0332
11910TIP3    H157221   4.314   1.962   6.133  2.5705  3.1427  1.3759
11910TIP3    H257222   4.241   2.013   6.011 -1.1276 -0.7949  1.7038
11911TIP3   OH257223   2.666   4.784  15.591 -0.6912  0.0956 -0.2023
11911TIP3    H157224   2.658   4.693  15.562  0.8126 -0.5731  1.3287
11911TIP3    H257225   2.749   4.813  15.553  0.3059 -0.1626  1.6650
11912TIP3   OH257226   5.475   0.702  12.157 -0.1025  0.2105  0.2256
11912TIP3    H157227   5.457   0.775  12.097  0.0761 -0.0877 -0.1970
11912TIP3    H257228   5.547   0.732  12.211  1.1939 -0.3036 -1.1394
11913TIP3   OH257229   5.121   0.934  14.442 -0.1087 -0.2958  0.1476
11913TIP3    H157230   5.129   0.855  14.495  3.7761 -0.1544  0.0991
11913TIP3    H257231   5.137   0.905  14.352 -0.9664  0.2341 -0.1840
11914TIP3   OH257232   3.553   5.832   5.727  0.4580 -0.6350 -0.4605
11914TIP3    H157233   3.642   5.862   5.743  0.9324 -2.4195  0.4913
11914TIP3    H257234   3.508   5.844   5.811 -0.1768  0.1534 -0.9041
11915TIP3   OH257235   0.268   4.359  16.952  0.6075  0.4972  0.7707
11915TIP3    H157236   0.330   4.321  16.890 -0.1809 -0.0982  0.3319
11915TIP3    H257237   0.319   4.423  17.001  2.0733 -1.3232  1.7498
11916TIP3   OH257238   0.945   4.478  14.226  0.4287  0.0478 -0.3639
11916TIP3    H157239   0.987   4.489  14.140 -0.4134 -1.9212 -1.0976
11916TIP3    H257240   0.882   4.550  14.232  0.6259  0.3135 -1.3188
11917TIP3   OH257241   3.146   4.856   3.999  0.1056 -0.2425 -0.2258
11917TIP3    H157242   3.217   4.793   3.988  0.1396  0.1339 -2.5406
11917TIP3    H257243   3.190   4.938   4.022  0.2400 -0.5038  0.4628
11918TIP3   OH257244   5.953   0.979   3.236 -0.1003  0.3999  0.1076
11918TIP3    H157245   5.875   1.030   3.213 -0.4978  0.0871  0.7214
11918TIP3    H257246   5.934   0.946   3.324  0.0650 -0.9766 -0.3561
11919TIP3   OH257247   2.674   5.698   2.368  0.5843 -0.0852 -0.1151
11919TIP3    H157248   2.597   5.643   2.378  1.0696 -0.8710 -0.5783
11919TIP3    H257249   2.646   5.785   2.398 -0.1579 -0.6012  0.7329
11920TIP3   OH257250   1.314   1.977   1.897 -0.6585 -0.5152  0.4158
11920TIP3    H157251   1.396   1.929   1.888 -0.8012 -0.4832 -1.7143
11920TIP3    H257252   1.267   1.933   1.967  0.9801 -0.7954  1.3949
11921TIP3   OH257253   5.945   4.981  16.066  0.0134 -0.3994 -0.1795
11921TIP3    H157254   6.032   4.968  16.030  0.3229 -0.7363  0.6618
11921TIP3    H257255   5.900   4.898  16.051  0.1844 -0.5848  0.2979
11922TIP3   OH257256   1.905   5.637   5.137 -0.4119  0.7766 -0.1690
11922TIP3    H157257   1.827   5.585   5.117 -0.0474  0.7713 -1.7383
11922TIP3    H257258   1.956   5.582   5.196  0.6437 -1.3654 -2.8874
11923TIP3   OH257259   5.133   5.833   5.208 -0.4638 -0.0918  0.3708
11923TIP3    H157260   5.145   5.907   5.268 -1.4641 -1.2522  2.0827
11923TIP3    H257261   5.221   5.800   5.192  0.1095  1.9603 -1.1520
11924TIP3   OH257262   3.538   3.328   4.222 -0.0156 -0.7211  0.3703
11924TIP3    H157263   3.497   3.393   4.279  0.3847 -0.3398  0.2268
11924TIP3    H257264   3.470   3.306   4.159  0.1581  0.3148 -0.1984
11925TIP3   OH257265   1.872   0.130  14.369 -0.0241 -0.0173 -0.0424
11925TIP3    H157266   1.888   0.040  14.399  0.6455  0.1840  0.2222
11925TIP3    H257267   1.922   0.137  14.288 -0.5290 -0.0524 -0.3604
11926TIP3   OH257268   6.491   0.264  15.341 -0.4502  0.5511 -0.5034
11926TIP3    H157269   6.439   0.339  15.371  0.5160  0.7881  0.6861
11926TIP3    H257270   6.532   0.293  15.260  0.7683  1.7447  0.4935
11927TIP3   OH257271   2.627   3.201   6.533  0.5890 -0.4563 -0.2448
11927TIP3    H157272   2.672   3.284   6.518 -1.8493  1.0178  0.0680
11927TIP3    H257273   2.539   3.226   6.561  0.3410 -3.1453  1.8097
11928TIP3   OH257274   3.489   4.824  11.318  0.3587 -0.3598 -0.1432
11928TIP3    H157275   3.416   4.879  11.346  2.5563  2.6507  0.2485
11928TIP3    H257276   3.488   4.829  11.223  0.4514  0.2402 -0.1137
11929TIP3   OH257277   1.579   0.379   2.677  0.1057 -0.1775 -0.5511
11929TIP3    H157278   1.594   0.315   2.747 -1.2839  0.4385  0.3605
11929TIP3    H257279   1.626   0.457   2.705 -0.0909 -0.0721 -0.5096
11930TIP3   OH257280   4.348   5.391  11.338  0.3346  0.0107 -0.5949
11930TIP3    H157281   4.269   5.393  11.285 -1.9088 -3.0597  2.2150
11930TIP3    H257282   4.400   5.320  11.300  0.5543  0.3395 -0.9160
11931TIP3   OH257283   3.630   5.694  16.735 -0.2407 -0.0796 -0.7043
11931TIP3    H157284   3.725   5.677  16.730 -0.4590 -1.2868 -0.9858
11931TIP3    H257285   3.590   5.607  16.738 -1.3243  0.4258  0.0268
11932TIP3   OH257286   2.283   1.399  11.215 -0.3516 -0.1783  0.0152
11932TIP3    H157287   2.331   1.366  11.290 -1.6464  0.2292  1.0642
11932TIP3    H257288   2.350   1.428  11.153  0.7787 -2.7390 -0.0462
11933TIP3   OH257289   5.273   3.205  15.078 -0.4736 -0.5301  0.0095
11933TIP3    H157290   5.224   3.212  15.160 -0.1573 -0.6865  0.2190
11933TIP3    H257291   5.326   3.284  15.075  1.0353 -1.4249  0.9922
11934TIP3   OH257292   0.372   2.188   0.852 -0.5792 -0.0978  0.1982
11934TIP3    H157293   0.348   2.114   0.795  0.8999 -0.0256 -0.5557
11934TIP3    H257294   0.431   2.150   0.916  0.2336  0.4271 -0.2264
11935TIP3   OH257295   1.380   0.792   5.692  0.7283 -0.1083  0.1043
11935TIP3    H157296   1.294   0.834   5.683  0.3611 -0.4310  1.8585
11935TIP3    H257297   1.420   0.834   5.768  2.2399  0.1696 -0.7878
11936TIP3   OH257298   2.914   3.222  12.719 -0.2229 -0.4880  0.0702
11936TIP3    H157299   2.954   3.148  12.765 -1.8372 -0.6379  1.2986
11936TIP3    H257300   2.903   3.289  12.787 -0.9387 -0.0060 -0.5075
11937TIP3   OH257301   1.547   2.662   4.625  0.1803 -0.7727 -0.0411
11937TIP3    H157302   1.547   2.727   4.555  0.3789 -1.6208 -0.8458
11937TIP3    H257303   1.551   2.714   4.706 -0.7303  0.2363 -0.6207
11938TIP3   OH257304   2.071   1.747  12.808 -0.4397  0.2371 -0.4075
11938TIP3    H157305   2.014   1.717  12.738 -0.8058  0.0027 -0.0116
11938TIP3    H257306   2.095   1.837  12.783  1.6769 -0.7481 -2.2433
11939TIP3   OH257307   6.296   0.357   4.119 -0.5699 -0.3131 -0.2157
11939TIP3    H157308   6.344   0.274   4.120 -1.9411 -1.2058 -1.9894
11939TIP3    H257309   6.228   0.345   4.186 -0.1718 -0.2282  0.2077
11940TIP3   OH257310   1.158   6.464  11.743 -0.2732  0.0316 -0.0809
11940TIP3    H157311   1.063   6.451  11.744 -0.5768  2.0224 -0.2809
11940TIP3    H257312   1.193   6.376  11.728 -2.0952 -0.6413 -0.7031
11941TIP3   OH257313   0.767   2.416  14.244 -0.3892 -0.0492  0.3607
11941TIP3    H157314   0.858   2.393  14.263  0.5749 -0.4423 -3.7391
11941TIP3    H257315   0.715   2.351  14.290  1.4927 -0.9418  1.3259
11942TIP3   OH257316   4.245   6.591  15.494 -0.3779  0.0319  0.2729
11942TIP3    H157317   4.265   6.503  15.461  0.9107  0.7270 -0.8925
11942TIP3    H257318   4.328   6.638  15.489 -1.3105  1.6979 -0.3286
11943TIP3   OH257319   6.720   6.151  16.534  0.1052 -0.2151 -0.3536
11943TIP3    H157320   6.747   6.093  16.462  0.3513 -0.3861 -0.1249
11943TIP3    H257321   6.706   6.236  16.492 -0.0189 -0.3819 -0.6510
11944TIP3   OH257322   3.657   4.745   2.129 -0.5177  0.4017 -0.4093
11944TIP3    H157323   3.673   4.806   2.057 -1.5626 -1.7711 -2.6516
11944TIP3    H257324   3.736   4.692   2.134  0.0800  1.3679  1.0085
11945TIP3   OH257325   0.271   6.142  13.829  0.1733 -0.2402 -0.0968
11945TIP3    H157326   0.225   6.181  13.755  1.6293 -0.9433 -1.4000
11945TIP3    H257327   0.281   6.214  13.892 -1.3714  0.2763 -0.4017
11946TIP3   OH257328   6.812   2.411  14.887 -0.1919 -0.0165 -0.5794
11946TIP3    H157329   6.891   2.423  14.833  0.1590  1.8875  0.2625
11946TIP3    H257330   6.744   2.389  14.824  0.9648 -1.6764 -1.3294
11947TIP3   OH257331   0.443   2.547   4.570 -0.1288 -0.1808 -0.3657
11947TIP3    H157332   0.534   2.520   4.576 -0.7343 -2.4058 -0.2074
11947TIP3    H257333   0.393   2.466   4.581 -2.1707  1.1364  0.7258
11948TIP3   OH257334   1.605   4.743  11.234 -0.2543 -0.3567  0.4759
11948TIP3    H157335   1.662   4.819  11.245  0.6857 -1.0998  0.8034
11948TIP3    H257336   1.662   4.673  11.203 -1.4703 -0.4266 -1.7766
11949TIP3   OH257337   2.059   2.030   3.162  0.1378  0.2937 -0.2200
11949TIP3    H157338   2.057   2.095   3.091  0.6958  0.6078  0.0416
11949TIP3    H257339   1.971   2.032   3.200  0.2791  1.2285  0.0777
11950TIP3   OH257340   2.618   1.682   1.700  0.4693 -0.2894 -0.3515
11950TIP3    H157341   2.632   1.591   1.674 -0.1646 -0.2181 -0.9826
11950TIP3    H257342   2.702   1.724   1.686  0.4854 -0.5459 -1.1130
11951TIP3   OH257343   0.145   2.364   1.858  0.4776  0.2505 -0.2649
11951TIP3    H157344   0.072   2.346   1.916 -0.4749  1.9629 -0.8560
11951TIP3    H257345   0.217   2.387   1.916  0.7285 -1.8122  0.3374
11952TIP3   OH257346   5.593   2.858  16.741  0.0124 -0.3844 -0.4659
11952TIP3    H157347   5.673   2.910  16.734  1.0067 -1.2441  2.9641
11952TIP3    H257348   5.538   2.907  16.802 -1.4070 -0.7005 -1.4334
11953TIP3   OH257349   3.084   4.748   5.076 -0.7909 -0.3385  0.0458
11953TIP3    H157350   3.008   4.751   5.135 -0.7662 -0.4966  0.0848
11953TIP3    H257351   3.110   4.840   5.067 -0.2027 -0.3944  1.0527
11954TIP3   OH257352   0.953   2.573  13.794  0.0316 -0.5695  0.3671
11954TIP3    H157353   0.906   2.548  13.715  1.5411  0.1515 -0.8008
11954TIP3    H257354   0.910   2.523  13.864 -2.6761  0.3413 -0.5346
11955TIP3   OH257355   0.474   1.971  15.369 -0.1267 -0.1098 -0.0326
11955TIP3    H157356   0.473   2.066  15.382  0.3124 -0.0226 -0.5896
11955TIP3    H257357   0.392   1.941  15.407 -0.0189  0.4229  0.6568
11956TIP3   OH257358   2.451   2.357  14.308 -0.5151 -0.0715 -0.2233
11956TIP3    H157359   2.538   2.380  14.276 -0.7140  2.4581  0.8213
11956TIP3    H257360   2.402   2.439  14.307 -2.6676 -1.2671 -0.0269
11957TIP3   OH257361   3.980   6.785  11.202 -0.1106 -0.7645 -0.6527
11957TIP3    H157362   3.910   6.836  11.162  0.4305 -0.5784 -1.3769
11957TIP3    H257363   3.994   6.712  11.141 -0.6704 -1.6395  0.2170
11958TIP3   OH257364   3.782   0.311   4.262  0.3032  0.0189  0.8351
11958TIP3    H157365   3.782   0.355   4.347 -0.9642  1.8072 -0.0315
11958TIP3    H257366   3.791   0.218   4.283 -0.6872  0.3509  2.9616
11959TIP3   OH257367   6.554   2.306   2.496  0.1541  0.1244  0.4730
11959TIP3    H157368   6.532   2.360   2.572 -2.8206  1.2073 -1.0040
11959TIP3    H257369   6.638   2.342   2.465 -0.0537  1.6168  1.5238
11960TIP3   OH257370   3.641   1.102  14.196 -0.0960 -0.1311  0.6371
11960TIP3    H157371   3.688   1.169  14.246 -0.8005  0.7203  0.1873
11960TIP3    H257372   3.691   1.093  14.115 -0.5938  0.6509  0.2316
11961TIP3   OH257373   4.558   2.797   3.536  0.4946  0.2170 -0.0411
11961TIP3    H157374   4.492   2.728   3.533  0.0816  0.5997  0.1824
11961TIP3    H257375   4.634   2.755   3.577 -0.4717  0.4799  2.1426
11962TIP3   OH257376   0.535   1.607  15.092  0.4089  0.3799  0.3999
11962TIP3    H157377   0.576   1.654  15.019  1.4863  1.5036  1.6499
11962TIP3    H257378   0.443   1.630  15.087  0.3054 -0.2593 -1.0929
11963TIP3   OH257379   0.358   3.456   2.989  0.2669  0.0830 -0.1956
11963TIP3    H157380   0.343   3.471   3.082  0.5239  0.3607 -0.1970
11963TIP3    H257381   0.443   3.497   2.971  2.1421 -3.2193  0.2882
11964TIP3   OH257382   1.622   2.114   1.697  0.4151  0.6505 -0.1447
11964TIP3    H157383   1.682   2.175   1.653 -0.3677  1.6242  0.0908
11964TIP3    H257384   1.567   2.080   1.627  0.6995  0.3940 -0.2446
11965TIP3   OH257385   6.704   0.519  10.546  0.0145 -0.2918 -0.7204
11965TIP3    H157386   6.775   0.546  10.488 -0.6268  0.2440 -1.2725
11965TIP3    H257387   6.656   0.600  10.564  0.7867 -0.2405  1.3887
11966TIP3   OH257388   6.187   3.244  16.364 -0.0956  0.0383 -0.4951
11966TIP3    H157389   6.138   3.255  16.283  0.4602  0.0513 -0.8338
11966TIP3    H257390   6.273   3.212  16.336 -0.8612 -3.0414  0.2648
11967TIP3   OH257391   1.630   1.028   4.321 -0.1928  0.1741  0.1525
11967TIP3    H157392   1.635   0.937   4.290 -1.7189  0.3901 -0.8660
11967TIP3    H257393   1.548   1.031   4.371 -0.9238  1.3147 -1.0642
11968TIP3   OH257394   0.271   1.154   0.243 -0.0251  0.0369  0.2902
11968TIP3    H157395   0.225   1.172   0.161 -1.1995  3.6255  1.5522
11968TIP3    H257396   0.358   1.190   0.230 -0.1168  0.3398  0.5092
11969TIP3   OH257397   5.786   5.874   5.336 -0.1964  0.0578  0.1387
11969TIP3    H157398   5.874   5.891   5.302  1.2627 -2.1518  2.4429
11969TIP3    H257399   5.783   5.779   5.346 -3.6074 -0.1598 -1.5941
11970TIP3   OH257400   2.977   6.812  14.960 -0.6974 -0.0719  0.0279
11970TIP3    H157401   2.914   6.772  15.019 -1.1885  0.6110 -0.0245
11970TIP3    H257402   2.952   6.781  14.873  0.0652 -1.1285  0.1699
11971TIP3   OH257403   0.592   3.497  16.876 -0.4765  0.0620  0.2112
11971TIP3    H157404   0.569   3.405  16.887 -1.0464  0.3451  1.6375
11971TIP3    H257405   0.624   3.524  16.962 -0.6146  1.2728 -0.1015
11972TIP3   OH257406   4.892   6.158  13.392  0.1670  0.2489  0.2509
11972TIP3    H157407   4.974   6.156  13.343  0.4723 -0.3838  0.7640
11972TIP3    H257408   4.883   6.249  13.419  0.4185  0.4346 -0.2795
11973TIP3   OH257409   3.398   0.307  17.195  0.3691  0.1840 -0.2745
11973TIP3    H157410   3.486   0.345  17.204  1.2919 -1.1710 -2.6731
11973TIP3    H257411   3.404   0.250  17.119 -2.0426 -1.6272  0.7582
11974TIP3   OH257412   6.074   3.710  15.093 -0.2073 -0.0711  0.0077
11974TIP3    H157413   6.050   3.740  15.005  0.5260 -0.9704 -0.5073
11974TIP3    H257414   6.016   3.635  15.109  0.7986 -0.9593 -0.4044
11975TIP3   OH257415   5.343   0.148   5.582 -0.2659 -0.1948 -0.3154
11975TIP3    H157416   5.309   0.230   5.546  0.8583  0.4310  0.0236
11975TIP3    H257417   5.265   0.101   5.612 -0.7821  1.8244  1.7353
11976TIP3   OH257418   3.029   5.406  14.499  0.1138  0.2439 -0.4818
11976TIP3    H157419   3.000   5.359  14.577 -0.3063  0.4626 -0.5081
11976TIP3    H257420   3.117   5.370  14.481 -0.1087 -0.3703 -0.3724
11977TIP3   OH257421   5.257   4.755   4.526  0.3497 -0.4187 -0.5802
11977TIP3    H157422   5.223   4.668   4.506 -3.6074  1.1516 -1.7759
11977TIP3    H257423   5.295   4.786   4.444 -0.4717 -0.2037 -0.8979
11978TIP3   OH257424   4.697   4.780  10.917  0.3461 -0.0126 -0.2627
11978TIP3    H157425   4.716   4.863  10.873  1.0312 -0.3801 -0.6634
11978TIP3    H257426   4.731   4.713  10.859 -1.2605 -0.6586 -0.5062
11979TIP3   OH257427   5.534   6.219  11.504  0.4866 -0.1192 -0.3792
11979TIP3    H157428   5.517   6.126  11.520 -0.8384  0.0713 -0.5751
11979TIP3    H257429   5.468   6.265  11.556 -0.4746  0.6255 -2.1718
11980TIP3   OH257430   2.231   0.507   4.897  0.2133 -0.1864 -0.6211
11980TIP3    H157431   2.152   0.453   4.898  0.2291 -0.2038  0.2450
11980TIP3    H257432   2.244   0.532   4.988  0.3581  1.0630 -0.9640
11981TIP3   OH257433   5.158   5.740   6.356 -0.2359 -0.6392 -1.2001
11981TIP3    H157434   5.158   5.764   6.449 -1.6736  2.4843 -1.8579
11981TIP3    H257435   5.124   5.651   6.355  0.5080 -1.0523  1.2880
11982TIP3   OH257436   5.436   0.086  11.262  0.2222  0.4259  0.5963
11982TIP3    H157437   5.495   0.060  11.191 -1.6218 -1.1952 -0.4263
11982TIP3    H257438   5.391   0.164  11.229  0.0327  0.2173  0.3627
11983TIP3   OH257439   2.977   6.296  15.236 -0.3820  0.3716 -0.4014
11983TIP3    H157440   3.007   6.205  15.239  1.6670  1.0389  1.3927
11983TIP3    H257441   3.018   6.333  15.158  1.5588  0.6013  0.6807
11984TIP3   OH257442   4.952   2.372   4.020 -0.4668 -0.3042  0.0796
11984TIP3    H157443   5.046   2.357   4.026 -0.7592 -2.0778  0.9483
11984TIP3    H257444   4.938   2.454   4.067  0.7792  0.7337 -1.2741
11985TIP3   OH257445   4.287   3.598  15.714 -0.5372 -0.1470  0.3324
11985TIP3    H157446   4.257   3.609  15.624 -1.1473  2.0812  0.7322
11985TIP3    H257447   4.382   3.589  15.708 -0.7989 -3.8451 -0.7214
11986TIP3   OH257448   0.250   0.268   2.333 -0.2066  0.2437 -0.0966
11986TIP3    H157449   0.211   0.239   2.250 -2.0710 -1.8927  1.3940
11986TIP3    H257450   0.311   0.197   2.356  0.1561  0.7314  0.4560
11987TIP3   OH257451   0.504   5.799   3.939 -0.0322  0.1459  0.8303
11987TIP3    H157452   0.442   5.862   3.901  0.9275  0.2284 -0.6728
11987TIP3    H257453   0.498   5.814   4.034 -1.3934  0.9980  0.6432
11988TIP3   OH257454   1.555   2.494   3.990  0.0676 -0.0652  0.0552
11988TIP3    H157455   1.524   2.406   4.012  0.4898 -0.7326 -1.8053
11988TIP3    H257456   1.478   2.550   3.998 -0.7572 -1.0288 -0.8868
11989TIP3   OH257457   6.450   4.848   4.290  0.5087  0.9870 -0.3731
11989TIP3    H157458   6.448   4.769   4.345 -1.3145  0.7618 -0.7125
11989TIP3    H257459   6.498   4.820   4.212  2.2377  1.0224  0.6269
11990TIP3   OH257460   5.061   3.312  14.420 -0.9021 -0.4037  0.3005
11990TIP3    H157461   5.156   3.313  14.414 -0.9240  1.0033 -0.0614
11990TIP3    H257462   5.032   3.268  14.340 -0.5632 -0.7169  0.3507
11991TIP3   OH257463   1.343   5.370   6.167  0.8945  0.4485 -0.2340
11991TIP3    H157464   1.395   5.403   6.094 -1.7544 -1.2229 -3.1123
11991TIP3    H257465   1.317   5.282   6.141 -3.1357  1.0546  0.9818
11992TIP3   OH257466   4.824   1.692  15.217 -0.4017  0.0195  0.4470
11992TIP3    H157467   4.883   1.725  15.149  1.2822  1.8724  2.6473
11992TIP3    H257468   4.842   1.597  15.219 -0.2293 -0.0354 -1.3619
11993TIP3   OH257469   1.988   6.076  12.978 -0.3818  0.0074  0.6800
11993TIP3    H157470   1.928   6.063  12.905  1.4295 -1.0558 -0.7247
11993TIP3    H257471   1.933   6.072  13.056 -1.9736 -2.1517 -0.4564
11994TIP3   OH257472   5.530   3.447   0.523 -0.2844 -0.4732  0.0347
11994TIP3    H157473   5.484   3.389   0.462 -0.2719  1.4720 -1.9621
11994TIP3    H257474   5.560   3.520   0.468  2.7813 -0.2868  1.7581
11995TIP3   OH257475   4.250   2.803  16.464 -0.4819 -0.1693  0.2574
11995TIP3    H157476   4.269   2.879  16.410  0.7374 -0.1688  0.6630
11995TIP3    H257477   4.255   2.729  16.403 -3.1511  0.1347 -0.4703
11996TIP3   OH257478   4.037   0.364  16.138  0.1147 -0.5397  0.4592
11996TIP3    H157479   4.046   0.427  16.209 -0.9710 -0.2930  0.3882
11996TIP3    H257480   4.055   0.415  16.058  1.5312 -0.8600  0.5368
11997TIP3   OH257481   3.349   5.274   5.078 -0.3240 -0.5844 -0.1298
11997TIP3    H157482   3.280   5.229   5.029 -1.1601  1.5619 -1.0517
11997TIP3    H257483   3.430   5.249   5.035 -1.0573  1.7447 -3.2427
11998TIP3   OH257484   2.718   5.296   3.330 -0.5921 -0.3189  0.0888
11998TIP3    H157485   2.802   5.338   3.347  0.8533 -1.3537 -3.6703
11998TIP3    H257486   2.711   5.228   3.398  1.1589  0.3344  0.9891
11999TIP3   OH257487   5.421   6.137   6.948  0.1884  1.0694 -0.2302
11999TIP3    H157488   5.465   6.142   7.033  1.6797 -1.4962 -0.7348
11999TIP3    H257489   5.413   6.228   6.920 -0.0167  1.9712  2.4524
12000TIP3   OH257490   1.223   5.543   3.500  0.5145  0.1412  0.0090
12000TIP3    H157491   1.131   5.556   3.477  0.9635  2.0240 -0.9203
12000TIP3    H257492   1.259   5.491   3.429  0.2915 -0.1356  0.0982
12001TIP3   OH257493   1.611   5.646  12.748 -0.3569  0.6135 -0.0303
12001TIP3    H157494   1.691   5.640  12.695  0.4984 -2.1486  1.3781
12001TIP3    H257495   1.540   5.650  12.684  0.8051  0.9936 -1.3419
12002TIP3   OH257496   1.006   6.669   1.454  0.7381 -0.3138 -0.4801
12002TIP3    H157497   0.941   6.642   1.519  2.0770  0.3753  1.2135
12002TIP3    H257498   1.028   6.589   1.406 -0.0149 -0.9058  0.1481
12003TIP3   OH257499   4.538   1.572   5.454  0.0956 -0.2571  0.0023
12003TIP3    H157500   4.537   1.641   5.522  0.3912 -1.2357  1.0274
12003TIP3    H257501   4.446   1.548   5.444  0.0397 -0.0406 -0.0162
12004TIP3   OH257502   2.975   0.274  12.839  0.8145 -0.6629  0.2899
12004TIP3    H157503   3.033   0.344  12.809  0.5583 -0.9697 -0.9688
12004TIP3    H257504   3.033   0.199  12.852  0.8747 -0.6341  0.1894
12005TIP3   OH257505   2.645   4.745  15.936 -0.1703 -0.2053  0.4151
12005TIP3    H157506   2.682   4.674  15.989  1.8063  1.2936  1.1798
12005TIP3    H257507   2.649   4.713  15.846 -0.3773 -1.4803  0.8384
12006TIP3   OH257508   1.965   3.306   0.708 -0.1016 -0.1286  0.2615
12006TIP3    H157509   1.929   3.264   0.630  0.3024  0.3059 -0.1664
12006TIP3    H257510   1.898   3.294   0.775 -1.0575  0.6745 -0.5231
12007TIP3   OH257511   3.087   0.044   2.748 -0.4998 -0.0714  0.7094
12007TIP3    H157512   3.105   0.030   2.841 -0.6338 -2.3348  0.4353
12007TIP3    H257513   2.993   0.061   2.744 -0.2923  1.3028  1.0761
12008TIP3   OH257514   3.082   0.503  12.606 -0.1307  0.0476 -0.1875
12008TIP3    H157515   3.161   0.474  12.560 -0.1980  1.5911 -1.3717
12008TIP3    H257516   3.029   0.545  12.538 -1.2622  0.4261  0.8868
12009TIP3   OH257517   2.429   5.682  13.949 -0.0109 -0.5623  0.1230
12009TIP3    H157518   2.477   5.706  13.870  1.1562 -0.0778  0.9543
12009TIP3    H257519   2.358   5.626  13.918 -0.5373  0.8857 -1.4385
12010TIP3   OH257520   5.508   2.064  16.147 -0.0306 -0.4135  0.2582
12010TIP3    H157521   5.496   2.024  16.234  0.6736 -1.9650 -0.3313
12010TIP3    H257522   5.481   2.155  16.160  0.2984 -0.5326  2.1699
12011TIP3   OH257523   2.653   0.609   2.007 -0.2452 -0.5687 -0.1559
12011TIP3    H157524   2.702   0.583   2.086  0.3768  0.9989  0.0244
12011TIP3    H257525   2.712   0.587   1.935 -0.5941 -1.5262 -0.1557
12012TIP3   OH257526   2.628   3.273  12.497 -0.4584  1.3338  0.4259
12012TIP3    H157527   2.651   3.219  12.422 -0.7687  0.4091  0.9866
12012TIP3    H257528   2.597   3.355  12.459 -2.6443  0.1312 -0.5597
12013TIP3   OH257529   4.446   6.068   1.353  1.0030  0.1462 -0.2445
12013TIP3    H157530   4.365   6.112   1.380  2.2148  1.8114  0.9085
12013TIP3    H257531   4.465   6.005   1.423  0.7133 -0.2327 -0.5070
12014TIP3   OH257532   0.643   4.668   2.482  0.3539  0.0548 -0.3387
12014TIP3    H157533   0.609   4.753   2.510  0.0901 -0.1224 -0.1120
12014TIP3    H257534   0.567   4.624   2.445 -0.2718 -1.2460  2.2398
12015TIP3   OH257535   5.367   6.670  16.988  0.2473 -0.5533  0.1861
12015TIP3    H157536   5.399   6.581  16.972  0.9653 -0.3160  0.2260
12015TIP3    H257537   5.421   6.725  16.931  0.4834 -0.0493  0.8773
12016TIP3   OH257538   5.626   4.099  14.272  0.5894 -0.1898  0.4182
12016TIP3    H157539   5.630   4.112  14.367 -0.2437  0.0922  0.4171
12016TIP3    H257540   5.705   4.049  14.252  0.3046 -1.0745  1.4024
12017TIP3   OH257541   1.087   6.666   5.399  0.3884 -0.2068  1.0082
12017TIP3    H157542   1.034   6.733   5.356  2.6441  2.0236  1.4157
12017TIP3    H257543   1.058   6.667   5.490 -1.0700 -1.4202  0.5887
12018TIP3   OH257544   4.393   3.681   5.160 -0.3776 -0.0191  0.5560
12018TIP3    H157545   4.376   3.745   5.092 -1.1121  0.5262  1.2288
12018TIP3    H257546   4.323   3.617   5.151 -0.2392 -0.1677  0.5371
12019TIP3   OH257547   6.801   0.780  12.634  0.3043  0.8724  0.3106
12019TIP3    H157548   6.819   0.750  12.723  0.3731  0.3438  0.1178
12019TIP3    H257549   6.751   0.709  12.594 -0.1261  1.2994  0.0706
12020TIP3   OH257550   3.545   6.493   1.535  0.3767  0.4471 -0.3697
12020TIP3    H157551   3.488   6.561   1.499 -2.0455  0.4044  2.9584
12020TIP3    H257552   3.607   6.475   1.465 -0.8200  3.8080 -2.5617
12021TIP3   OH257553   1.087   2.104   5.477 -0.1998  0.6045  0.0599
12021TIP3    H157554   1.114   2.152   5.398 -1.0837  0.7964 -0.1347
12021TIP3    H257555   1.126   2.017   5.467  0.5994  0.9645 -0.0600
12022TIP3   OH257556   5.695   1.349   2.167  0.0069  0.2589 -0.5446
12022TIP3    H157557   5.686   1.388   2.080 -1.7099  0.5916 -0.2636
12022TIP3    H257558   5.693   1.424   2.227  1.3611  0.0472 -0.1992
12023TIP3   OH257559   0.857   4.284   0.620 -0.0810  0.1605  0.6100
12023TIP3    H157560   0.892   4.210   0.670  0.4480  0.3704  0.5582
12023TIP3    H257561   0.873   4.360   0.675  0.0519  0.3280  0.3440
12024TIP3   OH257562   5.975   4.051   4.179 -0.7726 -0.5626  0.1668
12024TIP3    H157563   6.049   3.991   4.168  1.4405  2.1717 -0.9915
12024TIP3    H257564   5.973   4.069   4.273  0.3918 -0.2737  0.1507
12025TIP3   OH257565   6.010   1.302  14.889 -0.0911 -0.3706 -0.3359
12025TIP3    H157566   5.921   1.295  14.925  0.6336 -3.6371  1.2205
12025TIP3    H257567   6.057   1.358  14.952 -0.3457 -1.0485  0.4737
12026TIP3   OH257568   0.402   5.825  16.000  0.1500 -0.2200  0.1684
12026TIP3    H157569   0.475   5.866  15.953 -0.4901 -0.5849 -1.1858
12026TIP3    H257570   0.371   5.893  16.060  0.5651  0.4925 -0.4055
12027TIP3   OH257571   0.609   2.748   1.970  0.3360 -0.0956  0.1226
12027TIP3    H157572   0.625   2.722   2.060  0.3461  1.0172  0.4547
12027TIP3    H257573   0.551   2.824   1.977 -1.6648 -1.4262 -0.8881
12028TIP3   OH257574   3.960   5.372  12.253 -0.0500  0.1072 -0.4648
12028TIP3    H157575   3.951   5.446  12.192  1.5782  0.9683  0.2890
12028TIP3    H257576   4.027   5.317  12.213 -0.0673 -0.1096 -0.1922
12029TIP3   OH257577   3.066   0.072   5.847 -0.2930  0.1414  0.2448
12029TIP3    H157578   3.040   0.092   5.757  0.7198  0.5173  0.0312
12029TIP3    H257579   2.989   0.029   5.885 -0.6349 -0.2785 -0.8845
12030TIP3   OH257580   0.873   4.910   0.179  0.0157  0.1798  0.3127
12030TIP3    H157581   0.827   4.968   0.119  0.6336  0.6814  0.3045
12030TIP3    H257582   0.946   4.963   0.211 -0.0891 -0.2068  1.2178
12031TIP3   OH257583   4.404   4.653   4.815  0.2155  0.0051 -0.7069
12031TIP3    H157584   4.490   4.649   4.858  0.3536 -0.1853 -0.9973
12031TIP3    H257585   4.343   4.676   4.886  0.7969  2.4836 -0.9165
12032TIP3   OH257586   4.784   1.752  12.846 -0.5607  0.4869  0.2297
12032TIP3    H157587   4.871   1.739  12.808 -0.2424 -1.9945  1.5647
12032TIP3    H257588   4.789   1.709  12.932 -2.9393  0.7882  0.5915
12033TIP3   OH257589   3.104   0.602  12.868  0.6078  0.1515 -0.5268
12033TIP3    H157590   3.052   0.622  12.790  0.6710  0.0129 -0.6041
12033TIP3    H257591   3.156   0.682  12.883  2.1045 -0.5184 -1.8167
12034TIP3   OH257592   5.988   0.075   0.692 -0.5815 -0.1451 -0.3503
12034TIP3    H157593   5.972   0.165   0.662 -1.7434 -0.0103  0.5775
12034TIP3    H257594   5.905   0.047   0.730 -0.4711 -1.9212 -1.3104
12035TIP3   OH257595   4.464   4.412   0.830 -0.4727  0.3955  0.3058
12035TIP3    H157596   4.499   4.499   0.849  1.3719 -0.2576  0.1672
12035TIP3    H257597   4.417   4.387   0.910  0.6426  0.7682  1.1209
12036TIP3   OH257598   1.996   1.831   4.378  0.4380  0.1036  0.3993
12036TIP3    H157599   2.031   1.829   4.289  1.9654  0.1705  0.9704
12036TIP3    H257600   1.953   1.917   4.384  1.5869  0.7243  0.1592
12037TIP3   OH257601   6.154   6.665   1.788  0.3401 -0.0959  0.1462
12037TIP3    H157602   6.162   6.759   1.807  1.5779 -0.0856 -0.3205
12037TIP3    H257603   6.214   6.650   1.715  0.1888 -1.2589  0.2410
12038TIP3   OH257604   3.288   2.856  11.795 -0.0795 -0.0493 -0.5375
12038TIP3    H157605   3.322   2.943  11.815  1.7270 -0.9386  0.5948
12038TIP3    H257606   3.322   2.836  11.708 -0.0136  0.1807 -0.5639
12039TIP3   OH257607   0.880   4.374  11.372 -0.6737 -0.6508  0.0938
12039TIP3    H157608   0.938   4.406  11.441  1.7290 -1.9912 -1.1566
12039TIP3    H257609   0.822   4.312  11.416  0.3028 -0.9062  1.0668
12040TIP3   OH257610   0.960   2.484  11.615 -0.2686 -0.3185 -0.3532
12040TIP3    H157611   1.028   2.430  11.655  0.8500  0.8240 -0.6370
12040TIP3    H257612   0.964   2.463  11.522 -1.7715 -1.7852 -0.1334
12041TIP3   OH257613   6.380   0.421   0.167 -0.1297  0.2000 -0.4592
12041TIP3    H157614   6.467   0.393   0.138 -0.4822 -0.9483 -0.4489
12041TIP3    H257615   6.392   0.511   0.197  0.7622  0.5607 -1.8110
12042TIP3   OH257616   5.897   5.061  13.690 -0.5750  0.3098 -0.0460
12042TIP3    H157617   5.962   5.119  13.650 -1.2120  1.1155  0.0668
12042TIP3    H257618   5.827   5.120  13.719 -0.0441 -0.1691  2.4981
12043TIP3   OH257619   4.158   4.923  14.284 -0.6180  0.3051 -0.7127
12043TIP3    H157620   4.179   4.846  14.232 -2.2718 -1.1254  0.5937
12043TIP3    H257621   4.195   4.905  14.370 -2.7184 -0.0528  0.1974
12044TIP3   OH257622   6.410   2.761   0.795 -0.3605  0.0786  0.5953
12044TIP3    H157623   6.457   2.755   0.878 -1.1539 -2.7855  0.9456
12044TIP3    H257624   6.326   2.800   0.818  0.1183  1.0550  0.7532
12045TIP3   OH257625   5.802   5.214  12.561  0.1395  0.1677 -0.0888
12045TIP3    H157626   5.752   5.143  12.601  2.9736 -2.6703 -1.1729
12045TIP3    H257627   5.893   5.198  12.588  1.1134  2.5193 -1.6453
12046TIP3   OH257628   4.110   6.327  15.929  0.1416  0.4616 -0.9671
12046TIP3    H157629   4.027   6.279  15.918 -1.1124  2.4266 -0.6504
12046TIP3    H257630   4.128   6.363  15.842  0.1994  0.7001 -0.8588
12047TIP3   OH257631   2.294   3.658  16.903  0.5496 -0.2452 -0.2305
12047TIP3    H157632   2.232   3.614  16.962 -0.2641  0.6192 -0.4253
12047TIP3    H257633   2.362   3.691  16.961  0.3911 -0.4723  0.0901
12048TIP3   OH257634   4.957   0.092  14.605  0.0230 -0.1395 -0.3730
12048TIP3    H157635   4.964   0.158  14.537  0.4888 -0.0063 -0.1965
12048TIP3    H257636   4.875   0.114  14.651 -0.4041 -0.3602 -1.0158
12049TIP3   OH257637   3.110   2.034  12.652  0.2890 -1.0109  0.0887
12049TIP3    H157638   3.196   2.076  12.646  0.2811 -0.9413  0.4560
12049TIP3    H257639   3.095   1.997  12.565 -0.1148  0.5521 -0.5377
12050TIP3   OH257640   5.886   0.240  15.376  0.1664 -0.0439 -0.0218
12050TIP3    H157641   5.969   0.236  15.423  0.8048  0.6384 -1.0507
12050TIP3    H257642   5.822   0.204  15.437  0.9163  1.0595  1.4651
12051TIP3   OH257643   4.325   4.881  12.306  0.2695  0.1462  0.1767
12051TIP3    H157644   4.236   4.896  12.336 -0.0503 -0.4655 -0.4320
12051TIP3    H257645   4.315   4.838  12.221  1.1514  2.3112 -1.0927
12052TIP3   OH257646   1.415   2.887   2.745  0.5554  0.0009 -0.6626
12052TIP3    H157647   1.329   2.852   2.722 -0.7711  2.0665  0.8038
12052TIP3    H257648   1.407   2.981   2.731  1.3098  0.7442  2.9494
12053TIP3   OH257649   5.603   3.886  11.702 -0.4192 -0.2490  0.1799
12053TIP3    H157650   5.550   3.961  11.675 -2.0869 -1.7485 -0.9942
12053TIP3    H257651   5.588   3.878  11.796  2.5839  2.8966  1.1158
12054TIP3   OH257652   2.420   4.433  12.280 -0.0603  0.8885 -0.6661
12054TIP3    H157653   2.376   4.377  12.216  0.1218  0.5944 -0.5391
12054TIP3    H257654   2.513   4.419  12.264  0.1741 -2.4342  2.2862
12055TIP3   OH257655   0.975   1.691   2.948  0.0579  0.5628 -0.0292
12055TIP3    H157656   0.995   1.771   2.996 -1.1063  1.2608 -0.6607
12055TIP3    H257657   1.059   1.666   2.908  0.8263  0.4871  1.5527
12056TIP3   OH257658   3.272   0.947   3.150  0.1171 -0.0526 -0.1301
12056TIP3    H157659   3.260   0.940   3.055  0.8033  0.5743 -0.2697
12056TIP3    H257660   3.186   0.975   3.182 -0.6523 -2.0223 -0.3350
12057TIP3   OH257661   0.174   6.553   3.194 -0.2981  0.0464  0.0248
12057TIP3    H157662   0.141   6.514   3.275 -0.6098  0.1575 -0.0451
12057TIP3    H257663   0.095   6.577   3.145 -0.1121  0.2117 -0.1993
12058TIP3   OH257664   0.770   1.583   0.004 -0.2103  0.8291  0.2410
12058TIP3    H157665   0.859   1.547   0.007 -0.5638 -0.1066 -0.1958
12058TIP3    H257666   0.738   1.562  -0.083 -1.1051  0.5439  0.6255
12059TIP3   OH257667   1.971   2.856   5.376 -0.5105 -0.0931  0.6008
12059TIP3    H157668   2.013   2.928   5.423  0.2030  0.2992 -0.5845
12059TIP3    H257669   2.028   2.781   5.390 -1.3064 -0.4787  1.9194
12060TIP3   OH257670   2.247   2.926   1.004 -0.1744 -0.1542  1.0418
12060TIP3    H157671   2.306   2.953   0.933 -0.5065 -3.2832 -0.5925
12060TIP3    H257672   2.163   2.964   0.981 -0.2524 -1.0451 -0.2436
12061TIP3   OH257673   2.910   0.108  11.671 -0.3013 -0.5104  0.2523
12061TIP3    H157674   2.857   0.086  11.594  0.2555  1.4810 -0.7795
12061TIP3    H257675   2.869   0.186  11.707  0.6415 -0.2271  0.7510
12062TIP3   OH257676   6.740   3.223  11.887  1.2069  0.3470 -0.2949
12062TIP3    H157677   6.691   3.304  11.871 -0.1328 -0.4023 -0.1844
12062TIP3    H257678   6.733   3.208  11.981  4.7025  2.0398  0.3906
12063TIP3   OH257679   3.449   1.191  11.084  0.0515 -0.5879  0.0468
12063TIP3    H157680   3.528   1.228  11.045 -1.7535  0.3344 -3.1525
12063TIP3    H257681   3.426   1.252  11.154  1.8389 -0.6108  0.7013
12064TIP3   OH257682   5.972   0.320  12.202  0.0200  0.5670  0.1682
12064TIP3    H157683   6.003   0.284  12.119  0.2812 -0.5782  0.7502
12064TIP3    H257684   6.010   0.408  12.205  0.5719  0.3689 -0.5988
12065TIP3   OH257685   0.177   1.104   2.534 -0.0255 -0.5399  0.2687
12065TIP3    H157686   0.205   1.190   2.505 -1.7510  0.6504  1.8845
12065TIP3    H257687   0.241   1.079   2.601 -0.6971  0.5047  1.3366
12066TIP3   OH257688   0.543   4.849  10.725 -0.4726 -0.2464  0.0473
12066TIP3    H157689   0.474   4.903  10.687  0.2176 -0.3373 -1.3878
12066TIP3    H257690   0.502   4.763  10.738 -1.3561  0.3855  1.6524
12067TIP3   OH257691   0.548   6.515  17.057  0.1843  0.2403  0.3484
12067TIP3    H157692   0.538   6.559  17.142  0.5681  0.1698  0.4329
12067TIP3    H257693   0.638   6.482  17.058  0.1934  0.2475 -0.0888
12068TIP3   OH257694   3.387   6.277   2.078  0.0623  0.3947  0.3584
12068TIP3    H157695   3.398   6.243   1.989  1.0867  1.4744  0.0471
12068TIP3    H257696   3.400   6.371   2.069 -0.5827  0.6173  1.5459
12069TIP3   OH257697   2.903   1.066  14.476  0.1473  0.7131  0.0489
12069TIP3    H157698   2.880   1.094  14.387  1.0448  0.3268 -0.3150
12069TIP3    H257699   2.966   0.996  14.463  2.0769  2.1775  0.9929
12070TIP3   OH257700   3.355   0.627  12.692  0.4269  0.1673  0.0420
12070TIP3    H157701   3.442   0.594  12.714  0.7456  1.1177  0.2765
12070TIP3    H257702   3.296   0.554  12.708  1.3668 -1.0648 -1.7626
12071TIP3   OH257703   0.685   6.713   3.586 -0.2801  0.4750 -0.5365
12071TIP3    H157704   0.671   6.686   3.676  0.8645 -0.9780 -0.7603
12071TIP3    H257705   0.770   6.757   3.587 -0.8804  1.6854 -0.6837
12072TIP3   OH257706   5.380   6.339  16.385 -0.0718  0.1478 -0.6632
12072TIP3    H157707   5.388   6.434  16.396 -0.6821  0.1204  0.1658
12072TIP3    H257708   5.291   6.326  16.352 -0.5844 -0.2141  0.7593
12073TIP3   OH257709   3.458   4.039  11.741 -0.4855  0.0629  0.6332
12073TIP3    H157710   3.438   4.056  11.833  2.9494  1.9923  1.1800
12073TIP3    H257711   3.451   4.125  11.699 -0.0926 -0.4316 -0.4904
12074TIP3   OH257712   1.587   2.199   2.379  0.4025 -0.8154  0.3683
12074TIP3    H157713   1.593   2.293   2.364  1.9515 -0.8114  0.8552
12074TIP3    H257714   1.511   2.171   2.328  0.0451  0.6543  0.0548
12075TIP3   OH257715   2.397   0.391  13.132 -0.0368  0.1456 -0.0962
12075TIP3    H157716   2.303   0.408  13.128 -0.1606  0.1772  1.8930
12075TIP3    H257717   2.437   0.478  13.133 -0.0345  0.1435 -0.0285
12076TIP3   OH257718   5.230   0.781   0.339 -0.5853 -0.6735 -0.4521
12076TIP3    H157719   5.201   0.759   0.427 -0.6334  0.7379 -0.0907
12076TIP3    H257720   5.304   0.840   0.352 -0.3917 -0.7039 -1.3552
12077TIP3   OH257721   3.175   4.377   4.880 -0.0530  0.5971  0.2778
12077TIP3    H157722   3.219   4.462   4.882 -1.1936  1.2545 -1.1172
12077TIP3    H257723   3.116   4.378   4.955 -0.0200  1.0044  0.2984
12078TIP3   OH257724   1.584   6.067  14.556 -0.4714 -0.0948 -0.4340
12078TIP3    H157725   1.591   6.162  14.562 -1.4184 -0.0313 -0.2784
12078TIP3    H257726   1.579   6.048  14.463 -1.3537  0.0864 -0.4222
12079TIP3   OH257727   2.223   3.865  13.170 -0.4662 -0.2946  0.2701
12079TIP3    H157728   2.315   3.881  13.193 -0.7084  1.3276  0.2346
12079TIP3    H257729   2.226   3.800  13.100  0.6793  0.0488 -0.0123
12080TIP3   OH257730   2.108   4.341  15.813 -0.4186  0.0243 -0.1805
12080TIP3    H157731   2.102   4.436  15.823  3.1943  0.7591 -3.0653
12080TIP3    H257732   2.017   4.312  15.809 -1.6607  3.3812  0.2417
12081TIP3   OH257733   2.360   5.137  12.118 -0.5712  0.3063 -0.0613
12081TIP3    H157734   2.301   5.062  12.107 -2.7105  1.9507 -0.5189
12081TIP3    H257735   2.417   5.136  12.041  1.7595 -2.6526  1.4834
12082TIP3   OH257736   0.298   5.615  12.367  0.5859 -0.3324 -0.0126
12082TIP3    H157737   0.222   5.596  12.312  1.7001 -1.6264 -1.1632
12082TIP3    H257738   0.360   5.659  12.309  1.0198  0.0379  0.7193
12083TIP3   OH257739   4.003   2.618  12.934 -0.4958 -0.4550  0.0276
12083TIP3    H157740   3.909   2.625  12.950 -1.1004 -3.0387 -1.7322
12083TIP3    H257741   4.027   2.532  12.968  1.0333 -0.2587 -0.4669
12084TIP3   OH257742   0.324   3.594   2.403  0.7328 -0.2464 -0.0952
12084TIP3    H157743   0.231   3.589   2.379  0.4535 -1.4844  1.0890
12084TIP3    H257744   0.335   3.683   2.437 -0.0448 -0.1231 -0.1451
12085TIP3   OH257745   1.084   5.607   2.248  0.0597  0.7581  0.5653
12085TIP3    H157746   1.026   5.588   2.322  0.4210  1.1008  0.9391
12085TIP3    H257747   1.171   5.616   2.287  0.3382  0.4343  0.0310
12086TIP3   OH257748   0.793   5.513   0.901 -0.2322  0.0174 -0.0942
12086TIP3    H157749   0.792   5.443   0.835  0.4828  1.6656 -1.9602
12086TIP3    H257750   0.864   5.571   0.873 -0.0322  0.9029  2.0595
12087TIP3   OH257751   3.441   2.806  16.853 -0.1144  0.4109  0.1218
12087TIP3    H157752   3.496   2.812  16.931  0.1801  3.9012 -0.1924
12087TIP3    H257753   3.420   2.897  16.832 -1.0212 -0.4551 -3.2945
12088TIP3   OH257754   4.962   1.728   0.772 -0.4132  0.5123 -0.3503
12088TIP3    H157755   4.884   1.677   0.752 -0.1393 -0.8968  1.8579
12088TIP3    H257756   4.935   1.786   0.843  0.2505  0.8630 -0.3756
12089TIP3   OH257757   3.146   0.714   5.747  0.0414 -0.2044  0.2254
12089TIP3    H157758   3.140   0.619   5.737  1.1261 -0.3711  1.0348
12089TIP3    H257759   3.055   0.744   5.743 -0.3691 -1.3371  0.5729
12090TIP3   OH257760   1.532   2.481  16.807  0.1476 -0.1711 -0.1056
12090TIP3    H157761   1.525   2.472  16.902  2.1963 -1.4009 -0.0378
12090TIP3    H257762   1.494   2.401  16.772 -1.3085  0.6048 -0.4163
12091TIP3   OH257763   3.018   4.440  11.584 -0.9483  0.0347 -0.7862
12091TIP3    H157764   3.012   4.464  11.492 -0.0072 -0.9086 -1.1003
12091TIP3    H257765   3.081   4.502  11.621  1.8733 -2.0902 -1.7099
12092TIP3   OH257766   1.783   2.882   0.864 -0.4670 -0.1154 -0.0134
12092TIP3    H157767   1.800   2.826   0.940  1.3475  0.1977 -0.1470
12092TIP3    H257768   1.706   2.844   0.823 -1.3855 -0.4112  1.8651
12093TIP3   OH257769   3.364   4.327   3.708  0.0413  0.1029 -0.1784
12093TIP3    H157770   3.286   4.278   3.734  0.2268  0.4942  1.1862
12093TIP3    H257771   3.330   4.396   3.650 -0.6598  0.3157  0.4570
12094TIP3   OH257772   3.071   6.528  13.850 -0.5185  0.2573  0.5502
12094TIP3    H157773   3.047   6.592  13.782 -1.3887  0.9447  1.4820
12094TIP3    H257774   2.996   6.470  13.855 -0.1664 -0.2115  0.4569
12095TIP3   OH257775   5.342   5.367  16.841 -0.2613 -0.7470  0.1163
12095TIP3    H157776   5.342   5.416  16.923 -0.1017 -0.5139 -0.0246
12095TIP3    H257777   5.335   5.275  16.869  1.3120 -0.7908  0.4710
12096TIP3   OH257778   3.836   1.874   3.645 -0.5156  0.1244 -0.4698
12096TIP3    H157779   3.762   1.830   3.686 -1.7523  2.3757 -0.1459
12096TIP3    H257780   3.821   1.863   3.551 -0.7976 -0.1540 -0.3937
12097TIP3   OH257781   1.284   2.530  13.808  0.5246  0.5140 -0.1914
12097TIP3    H157782   1.333   2.449  13.822  1.1643  0.9941  0.3985
12097TIP3    H257783   1.199   2.501  13.776  0.8923 -0.3718 -0.3953
12098TIP3   OH257784   3.475   1.274   1.770 -0.0252  0.2601 -0.4726
12098TIP3    H157785   3.441   1.352   1.725  0.3412  0.3860 -0.5352
12098TIP3    H257786   3.526   1.309   1.843 -0.1405  0.0686 -0.3013
12099TIP3   OH257787   6.041   5.316  14.951  0.6595  0.2732  0.2674
12099TIP3    H157788   5.963   5.368  14.973 -0.5808 -2.1705  2.2556
12099TIP3    H257789   6.062   5.339  14.861 -1.9335  1.5842 -0.0790
12100TIP3   OH257790   3.782   6.609  16.161  0.1974 -0.0613 -0.0477
12100TIP3    H157791   3.849   6.603  16.230  1.4160  0.8702 -1.0986
12100TIP3    H257792   3.832   6.612  16.079 -1.0446  2.3095 -0.7936
12101TIP3   OH257793   5.077   4.275   3.414  0.1627  0.9696  1.1175
12101TIP3    H157794   5.011   4.304   3.351  1.5003  2.4037  0.3208
12101TIP3    H257795   5.112   4.194   3.376  0.6094  1.5578  0.2532
12102TIP3   OH257796   1.904   4.093  14.629 -0.0723 -0.1029 -0.5300
12102TIP3    H157797   1.887   4.185  14.650  1.3523  0.6356 -2.2609
12102TIP3    H257798   1.971   4.065  14.691 -2.3665 -0.8961  1.7746
12103TIP3   OH257799   1.292   0.591   0.221 -0.0767  0.5321  0.2477
12103TIP3    H157800   1.252   0.504   0.223 -0.0892  0.5543  1.2121
12103TIP3    H257801   1.220   0.651   0.244 -0.2932  0.9037 -1.2631
12104TIP3   OH257802   1.823   2.464  15.968  0.6782  0.6130  0.4438
12104TIP3    H157803   1.743   2.516  15.979  0.5274  0.3965  0.3776
12104TIP3    H257804   1.794   2.373  15.977  0.7000  0.4720 -0.8246
12105TIP3   OH257805   5.102   4.727  16.715 -0.1000 -0.3304 -0.4850
12105TIP3    H157806   5.021   4.702  16.758  0.5490 -0.0613  0.9387
12105TIP3    H257807   5.125   4.811  16.754 -0.4026  0.8128 -2.6486
12106TIP3   OH257808   5.924   2.941   5.035 -0.4564 -0.3337  0.2574
12106TIP3    H157809   5.942   2.922   4.942  0.4554  1.7981 -0.0615
12106TIP3    H257810   6.011   2.950   5.075 -0.8324  0.2652  0.9632
12107TIP3   OH257811   1.557   1.159   5.623  0.0462  0.4027  0.0847
12107TIP3    H157812   1.634   1.211   5.647 -0.6822  1.7028 -0.3153
12107TIP3    H257813   1.588   1.068   5.628  1.9257  0.9041 -1.1175
12108TIP3   OH257814   1.854   5.456  15.498  0.1333 -0.0879 -0.1967
12108TIP3    H157815   1.842   5.384  15.436 -1.0529 -1.2786  1.3409
12108TIP3    H257816   1.849   5.535  15.444 -1.3735 -1.0526 -1.5629
12109TIP3   OH257817   6.208   5.889   0.395 -0.4897 -0.4401 -0.1092
12109TIP3    H157818   6.132   5.926   0.441  0.1143 -1.0229  1.4378
12109TIP3    H257819   6.227   5.952   0.326 -0.9441  0.9204  0.9542
12110TIP3   OH257820   3.725   5.119   4.712 -0.3545 -0.0901  0.0988
12110TIP3    H157821   3.703   5.041   4.661 -0.6314 -0.9581  1.4924
12110TIP3    H257822   3.820   5.128   4.704 -0.3394 -0.4961 -0.1808
12111TIP3   OH257823   1.271   5.396   3.939 -0.0815  0.4184 -0.4871
12111TIP3    H157824   1.314   5.448   3.872 -1.6633 -1.4249 -3.1184
12111TIP3    H257825   1.207   5.455   3.979  0.1479  1.2784 -1.3687
12112TIP3   OH257826   6.635   3.367   1.666 -0.0448  0.8826  0.1490
12112TIP3    H157827   6.626   3.428   1.593  2.4151  1.1725 -0.0000
12112TIP3    H257828   6.670   3.420   1.738  0.0561  0.0975  0.6895
12113TIP3   OH257829   4.876   1.063  14.444  0.4112  0.3354  0.5778
12113TIP3    H157830   4.970   1.043  14.442  0.3588  0.1109  0.2804
12113TIP3    H257831   4.869   1.148  14.400  0.3032 -0.3672 -0.7939
12114TIP3   OH257832   5.177   4.627  13.355 -0.3038  0.4243  0.0990
12114TIP3    H157833   5.255   4.579  13.328  0.7113  0.7810  2.1761
12114TIP3    H257834   5.116   4.560  13.384 -0.0461  0.2285  0.1977
12115TIP3   OH257835   3.982   3.465   0.699 -0.1460 -0.7917 -0.1920
12115TIP3    H157836   3.935   3.424   0.771  0.9087 -2.0888 -0.2093
12115TIP3    H257837   4.005   3.552   0.732  1.2943 -1.7462  1.5149
12116TIP3   OH257838   6.187   0.517   3.875 -0.4285 -0.0070  0.6863
12116TIP3    H157839   6.199   0.441   3.932 -0.6892  0.0244  0.7857
12116TIP3    H257840   6.227   0.492   3.792  3.2546  1.2265  1.8896
12117TIP3   OH257841   4.938   6.055   1.688  0.5274  0.2534  0.4664
12117TIP3    H157842   4.850   6.017   1.696  1.0539 -1.1447 -0.0142
12117TIP3    H257843   4.958   6.088   1.775 -0.2509  0.0869  0.7226
12118TIP3   OH257844   2.063   5.441  13.368 -0.7364  0.5089 -0.3574
12118TIP3    H157845   2.087   5.530  13.390 -0.7045 -0.0224  2.0178
12118TIP3    H257846   2.112   5.421  13.288  0.2919  2.1569 -0.1710
12119TIP3   OH257847   5.962   2.551   3.866  0.3210 -0.6786 -0.4356
12119TIP3    H157848   5.923   2.476   3.911  0.5803 -0.4798  0.1224
12119TIP3    H257849   5.928   2.545   3.776 -1.3770 -0.2533  0.1345
12120TIP3   OH257850   6.769   1.795   1.525 -0.1894 -0.1908  0.1328
12120TIP3    H157851   6.862   1.790   1.547  0.3445  0.1298 -1.8911
12120TIP3    H257852   6.731   1.851   1.592  1.5627  1.7413 -0.3931
12121TIP3   OH257853   6.616   0.745  14.521  0.3873 -0.3979 -0.4634
12121TIP3    H157854   6.568   0.712  14.597  0.8647 -1.5292 -0.6399
12121TIP3    H257855   6.654   0.667  14.480 -1.0204 -0.0095 -2.7016
12122TIP3   OH257856   0.330   6.139  16.913 -0.0261  0.6191  0.1426
12122TIP3    H157857   0.264   6.151  16.981  0.0069 -0.1999  0.3302
12122TIP3    H257858   0.293   6.183  16.836 -1.6250 -1.3145 -0.2664
12123TIP3   OH257859   1.489   2.250   4.091  0.1256  0.1504 -0.0274
12123TIP3    H157860   1.400   2.248   4.055  0.2594 -0.3477 -0.3337
12123TIP3    H257861   1.476   2.269   4.184 -0.2965  0.1522 -0.0827
12124TIP3   OH257862   0.422   0.381   3.188  0.9776 -0.1978  0.2659
12124TIP3    H157863   0.375   0.347   3.113 -3.0259 -0.2255  2.5043
12124TIP3    H257864   0.450   0.469   3.162  1.3392 -0.8714 -1.7752
12125TIP3   OH257865   3.229   5.087  14.273 -0.0294 -0.6237  0.0154
12125TIP3    H157866   3.176   5.148  14.222  1.6745  0.7021 -0.2718
12125TIP3    H257867   3.252   5.017  14.211 -0.6946 -0.7516 -0.0925
12126TIP3   OH257868   0.350   2.003  14.343 -0.0979  0.5988 -0.1444
12126TIP3    H157869   0.352   2.096  14.365  1.5168  0.4547  0.4683
12126TIP3    H257870   0.318   1.960  14.422 -0.8348  0.6169 -0.4247
12127TIP3   OH257871   5.738   0.745  15.992 -0.6707  0.1015  0.6243
12127TIP3    H157872   5.651   0.723  16.026 -0.6829  0.1734  0.6414
12127TIP3    H257873   5.795   0.742  16.069 -0.6341 -0.0763  0.5888
12128TIP3   OH257874   1.412   0.333   1.518 -0.0693  0.1317  0.0954
12128TIP3    H157875   1.465   0.282   1.580  0.4474  0.7181  0.1520
12128TIP3    H257876   1.474   0.356   1.448 -0.8607 -1.3253 -1.1396
12129TIP3   OH257877   3.905   1.560  16.658 -0.0667  0.3272 -0.0945
12129TIP3    H157878   3.880   1.560  16.751 -1.7673 -0.5585 -0.5076
12129TIP3    H257879   3.822   1.556  16.611  0.8072 -1.5707 -1.6084
12130TIP3   OH257880   5.754   5.255   0.724  0.0427  0.5700  0.3254
12130TIP3    H157881   5.736   5.346   0.703  0.2177  0.5966  0.2861
12130TIP3    H257882   5.830   5.259   0.783 -0.3462  0.4887  0.8413
12131TIP3   OH257883   2.802   2.598   3.683  0.1090 -0.5319 -0.4111
12131TIP3    H157884   2.829   2.689   3.669 -0.3231 -0.1132  1.2343
12131TIP3    H257885   2.750   2.577   3.605  2.5873 -0.3828 -2.1954
12132TIP3   OH257886   4.411   2.873  16.964  0.3451  0.1891  0.5366
12132TIP3    H157887   4.328   2.893  17.007  0.8363  2.5277  0.5173
12132TIP3    H257888   4.386   2.821  16.887 -1.0723  0.6996  0.6235
12133TIP3   OH257889   1.551   6.140   3.662  0.2552 -0.0938 -0.1519
12133TIP3    H157890   1.524   6.231   3.648  1.3821  0.2157 -0.3640
12133TIP3    H257891   1.497   6.110   3.735  0.2883  0.9326  0.3102
12134TIP3   OH257892   0.665   4.669  12.846 -0.1385  0.0002 -0.3552
12134TIP3    H157893   0.730   4.618  12.894 -1.1822 -1.9171 -0.8590
12134TIP3    H257894   0.717   4.729  12.792  1.1589 -0.5014  0.2923
12135TIP3   OH257895   3.417   4.301  11.723  0.0151  0.0827  0.2488
12135TIP3    H157896   3.446   4.375  11.777 -2.4387  0.5271  1.0894
12135TIP3    H257897   3.435   4.329  11.633  1.9717  0.3463  0.6826
12136TIP3   OH257898   0.760   1.672   4.500  0.2225  0.0567 -0.1024
12136TIP3    H157899   0.736   1.593   4.452  1.3425  0.3711 -1.2344
12136TIP3    H257900   0.698   1.738   4.470 -0.0414 -0.1257  0.0393
12137TIP3   OH257901   2.138   3.293  12.069 -0.0249 -0.8727 -0.5703
12137TIP3    H157902   2.068   3.261  12.124  0.3085 -1.7144 -0.6291
12137TIP3    H257903   2.217   3.251  12.102  0.0981 -1.8663 -2.0453
12138TIP3   OH257904   3.788   5.901  11.903 -0.1088  0.3989  0.0560
12138TIP3    H157905   3.847   5.973  11.879  1.0130  0.0237  1.5711
12138TIP3    H257906   3.813   5.829  11.845 -0.5936  0.9051 -0.8113
12139TIP3   OH257907   6.212   5.092  14.644 -0.2287 -0.0646  0.1387
12139TIP3    H157908   6.232   5.073  14.736 -0.3706  2.2312  0.6898
12139TIP3    H257909   6.124   5.130  14.646 -1.6962 -2.9917 -1.3844
12140TIP3   OH257910   3.957   4.925  16.599 -0.2136 -0.1879 -0.0948
12140TIP3    H157911   3.875   4.943  16.645  0.3225 -1.0304  1.2574
12140TIP3    H257912   4.023   4.975  16.648  0.5224 -1.8915  0.7425
12141TIP3   OH257913   2.257   1.413  13.621  0.7258 -0.1149  0.0972
12141TIP3    H157914   2.232   1.502  13.597  0.9963 -0.0581  0.0329
12141TIP3    H257915   2.174   1.371  13.644  0.3119 -0.4355 -1.8044
12142TIP3   OH257916   4.593   6.400   1.951 -0.1698 -0.1855  0.3002
12142TIP3    H157917   4.507   6.357   1.949  0.3415 -1.2984  1.1534
12142TIP3    H257918   4.642   6.358   1.881 -0.4724  0.8382 -0.5534
12143TIP3   OH257919   1.178   0.321  13.958  0.0243  0.3831  0.2901
12143TIP3    H157920   1.091   0.308  13.919 -0.1181 -0.2490  0.7986
12143TIP3    H257921   1.166   0.393  14.020 -0.7229 -1.1874  2.0612
12144TIP3   OH257922   5.706   3.584   0.044  0.0494 -0.2141  0.4242
12144TIP3    H157923   5.694   3.639  -0.034 -1.8736 -1.9449 -0.5919
12144TIP3    H257924   5.702   3.495   0.011 -1.9648 -1.0268  2.6214
12145TIP3   OH257925   5.143   6.630  16.177  0.2662  0.2697  0.1113
12145TIP3    H157926   5.137   6.537  16.155 -0.1156  0.3186 -0.0117
12145TIP3    H257927   5.204   6.634  16.250 -0.2306 -0.1575  0.5610
12146TIP3   OH257928   6.285   6.096   0.200 -0.3937  0.1358 -0.0667
12146TIP3    H157929   6.273   6.151   0.277 -0.3198 -1.6874  1.3165
12146TIP3    H257930   6.296   6.158   0.127 -0.9309  1.9024  1.2923
12147TIP3   OH257931   3.724   5.201  11.222  0.4324 -0.0945 -0.0821
12147TIP3    H157932   3.633   5.219  11.197  0.0400  0.1198  1.4247
12147TIP3    H257933   3.766   5.287  11.224  0.3301 -0.0550  0.4666
12148TIP3   OH257934   5.516   5.024  14.037  0.0257 -0.0568 -0.0464
12148TIP3    H157935   5.492   4.954  14.098 -0.5894  1.0262  0.9932
12148TIP3    H257936   5.531   4.979  13.953  1.0029 -1.5878  0.9122
12149TIP3   OH257937   5.022   2.375   5.657  0.0282  0.5167 -0.0928
12149TIP3    H157938   5.056   2.289   5.635  1.7845  1.2718 -0.4549
12149TIP3    H257939   4.929   2.359   5.677  0.6530 -1.7154  1.5019
12150TIP3   OH257940   3.686   4.312  14.089  0.0242 -0.1625  0.8223
12150TIP3    H157941   3.626   4.247  14.052 -0.0125 -0.3526  1.2165
12150TIP3    H257942   3.722   4.358  14.012  0.5260 -1.0665  0.5045
12151TIP3   OH257943   0.260   1.755   5.834  0.2657 -0.3825 -0.0736
12151TIP3    H157944   0.348   1.746   5.871  0.2861 -2.1070 -0.4205
12151TIP3    H257945   0.216   1.818   5.890  1.6054  0.2312  0.3273
12152TIP3   OH257946   3.676   2.994   1.268  0.2994  0.4503  0.2212
12152TIP3    H157947   3.655   3.047   1.344  0.5338  0.0075  0.6000
12152TIP3    H257948   3.664   3.053   1.193  1.7683  1.4088  0.6988
12153TIP3   OH257949   5.776   6.796   4.822 -0.0341 -0.1002  0.0689
12153TIP3    H157950   5.745   6.775   4.734  0.3248 -0.5558  0.0473
12153TIP3    H257951   5.785   6.711   4.865  1.3390 -0.0190  0.0123
12154TIP3   OH257952   1.919   1.087   5.060 -0.0231 -0.0553 -0.0825
12154TIP3    H157953   1.858   1.112   5.129  0.1951  0.1151  0.0486
12154TIP3    H257954   1.894   0.997   5.038 -0.3001  0.0025 -0.0074
12155TIP3   OH257955   1.397   1.628  11.485 -0.1639 -0.0829 -0.1934
12155TIP3    H157956   1.448   1.707  11.466 -1.2354  1.4599  2.6524
12155TIP3    H257957   1.318   1.638  11.431  0.5535 -0.2287 -1.2995
12156TIP3   OH257958   4.423   6.610  13.583  0.2514  0.7134 -0.0699
12156TIP3    H157959   4.480   6.544  13.544  0.0755  0.7636 -0.4128
12156TIP3    H257960   4.348   6.616  13.524  0.3291  1.3147 -0.1157
12157TIP3   OH257961   1.627   2.674   5.397 -0.4912 -0.2295 -0.1359
12157TIP3    H157962   1.626   2.707   5.307 -0.8164 -0.9941 -0.4201
12157TIP3    H257963   1.703   2.616   5.399  0.0889  0.5300  0.3646
12158TIP3   OH257964   0.816   5.395   2.259  0.2219  1.1216  0.1862
12158TIP3    H157965   0.826   5.455   2.185  2.2664 -0.1360 -0.6426
12158TIP3    H257966   0.884   5.329   2.246 -0.2143  0.1130  2.4970
12159TIP3   OH257967   5.852   6.329  13.853  0.5043  0.4669 -0.5830
12159TIP3    H157968   5.781   6.378  13.812  1.4545  0.2789 -2.5432
12159TIP3    H257969   5.868   6.256  13.794  2.0205  0.2518  0.0506
12160TIP3   OH257970   3.267   6.158  16.165  0.6093  0.8886  0.5017
12160TIP3    H157971   3.343   6.108  16.195 -1.6326 -3.3810 -0.2172
12160TIP3    H257972   3.201   6.143  16.233 -1.5853 -1.1820 -1.8883
12161TIP3   OH257973   3.544   1.137   3.903  0.2316  0.0528  0.2628
12161TIP3    H157974   3.623   1.109   3.950 -0.0955 -1.1087  0.1557
12161TIP3    H257975   3.494   1.056   3.890 -1.3334  0.8665  0.9630
12162TIP3   OH257976   6.493   6.202  11.788 -0.2108 -0.6838 -0.3040
12162TIP3    H157977   6.541   6.184  11.869 -0.1058 -0.7423 -0.3795
12162TIP3    H257978   6.501   6.122  11.736 -0.5983 -0.7845 -0.2159
12163TIP3   OH257979   4.502   1.116  11.439  0.6858 -0.4890 -0.3185
12163TIP3    H157980   4.479   1.194  11.389 -0.2344 -0.5463 -0.0035
12163TIP3    H257981   4.521   1.148  11.527 -2.4967 -0.8652  0.6087
12164TIP3   OH257982   0.061   3.283   0.376  0.0562  0.4168 -0.4164
12164TIP3    H157983   0.011   3.358   0.406  2.3545  1.4005  1.1965
12164TIP3    H257984   0.028   3.210   0.429 -0.3430  0.8338 -0.0788
12165TIP3   OH257985   4.072   2.910  15.301  0.2314  0.3206  0.7439
12165TIP3    H157986   4.014   2.986  15.305 -0.8185 -0.4493  0.6515
12165TIP3    H257987   4.157   2.942  15.332  0.0599  1.7417 -0.1892
12166TIP3   OH257988   2.104   0.040   0.198 -0.0314  0.3760 -0.2467
12166TIP3    H157989   2.108   0.048   0.293  2.1259 -0.3283 -0.2058
12166TIP3    H257990   2.062  -0.045   0.183  1.7026 -0.6233  0.2134
12167TIP3   OH257991   0.887   2.561   0.090  0.1386 -0.6203 -0.3435
12167TIP3    H157992   0.904   2.655   0.095  0.5322 -0.6575 -0.8448
12167TIP3    H257993   0.951   2.522   0.149 -0.2683 -0.5501  0.1461
12168TIP3   OH257994   3.673   6.696   3.476  0.1507 -0.1512  0.1410
12168TIP3    H157995   3.664   6.749   3.396  0.8118  0.1729  0.2736
12168TIP3    H257996   3.767   6.681   3.483  0.0041 -0.9788  0.3508
12169TIP3   OH257997   5.542   1.361   5.625 -0.0255 -0.4766  0.1861
12169TIP3    H157998   5.452   1.332   5.635 -0.7733  1.5490 -0.2163
12169TIP3    H257999   5.546   1.445   5.671  2.1321 -1.2748  1.6755
12170TIP3   OH258000   6.424   5.481  14.708 -0.4229 -0.0590 -0.2185
12170TIP3    H158001   6.480   5.456  14.782 -0.4170 -0.9617 -0.5151
12170TIP3    H258002   6.440   5.413  14.642 -0.7447  0.5044 -0.8868
12171TIP3   OH258003   1.710   1.401  12.891 -0.5699  0.1838  0.1252
12171TIP3    H158004   1.628   1.350  12.886 -0.6058  0.1512  0.8854
12171TIP3    H258005   1.756   1.364  12.967 -0.3145  0.8821  0.3163
12172TIP3   OH258006   1.697   0.735   6.428  0.1439 -0.0293  0.1859
12172TIP3    H158007   1.607   0.761   6.409  0.4485 -0.3009 -1.9879
12172TIP3    H258008   1.690   0.651   6.471 -0.6822 -1.2635 -2.1630
12173TIP3   OH258009   4.570   2.100  12.368  0.1160 -0.6348  0.1132
12173TIP3    H158010   4.626   2.135  12.438 -0.9013  1.2585  0.0275
12173TIP3    H258011   4.621   2.028  12.331  1.4609 -0.5014  1.5971
12174TIP3   OH258012   1.900   2.048  15.072 -0.0749  0.1385  0.2471
12174TIP3    H158013   1.815   2.059  15.029 -0.6413  1.3256  1.5973
12174TIP3    H258014   1.909   1.954  15.084 -1.2508  0.0011  0.1644
12175TIP3   OH258015   0.492   4.534  13.243  0.1493  0.1876 -0.1359
12175TIP3    H158016   0.528   4.559  13.328 -1.5674 -0.8047  0.9299
12175TIP3    H258017   0.520   4.444  13.230 -1.9055 -0.6515  0.7747
12176TIP3   OH258018   2.006   2.009  15.626  0.3528 -0.2526 -0.0009
12176TIP3    H158019   2.057   1.956  15.687  0.4975  1.2291  1.2523
12176TIP3    H258020   2.070   2.072  15.591 -0.4365  1.2534  1.1514
12177TIP3   OH258021   4.699   3.995  17.216 -0.5609  0.0056 -0.0590
12177TIP3    H158022   4.786   4.035  17.218 -0.5749  0.1521 -1.3813
12177TIP3    H258023   4.699   3.941  17.137 -0.7413 -2.2097  1.3459
12178TIP3   OH258024   0.063   3.932  13.640 -0.2416 -0.1169 -0.4903
12178TIP3    H158025  -0.031   3.914  13.633 -0.4169  0.3475  0.4691
12178TIP3    H258026   0.085   3.908  13.730  0.6260 -0.4966 -0.7964
12179TIP3   OH258027   1.171   5.323   5.073  0.4015 -0.4390  0.2139
12179TIP3    H158028   1.219   5.406   5.081 -1.1838  0.5863 -0.4161
12179TIP3    H258029   1.114   5.322   5.150 -1.0077  0.0585 -0.7826
12180TIP3   OH258030   1.142   3.767  16.125 -0.0100 -0.2701 -0.4117
12180TIP3    H158031   1.107   3.766  16.214 -0.0332  2.7977 -0.2802
12180TIP3    H258032   1.233   3.738  16.134 -0.2152 -0.6350  0.5015
12181TIP3   OH258033   3.575   0.001  12.817  0.5749 -0.1383  0.0138
12181TIP3    H158034   3.512   0.030  12.884  1.0895 -0.4904  0.6682
12181TIP3    H258035   3.522  -0.047  12.754  0.2121 -0.7042  0.7251
12182TIP3   OH258036   2.494   1.732   5.520 -0.2646 -0.1028 -0.2247
12182TIP3    H158037   2.562   1.797   5.505 -0.0549 -0.1625  0.4563
12182TIP3    H258038   2.420   1.781   5.554 -0.0529 -0.2340  0.4383
12183TIP3   OH258039   3.416   3.306  14.986 -0.5140  0.0612  0.0545
12183TIP3    H158040   3.389   3.338  15.072  0.7756 -0.4862  0.6761
12183TIP3    H258041   3.449   3.218  15.002 -2.0941 -0.8491 -1.3315
12184TIP3   OH258042   1.602   1.382   4.532  0.2432  0.0683  0.4233
12184TIP3    H158043   1.622   1.418   4.618 -0.1932 -1.6682  1.3086
12184TIP3    H258044   1.664   1.310   4.521  0.5988  0.5535 -0.9344
12185TIP3   OH258045   6.769   5.694  12.102  0.0536 -0.2098 -0.2641
12185TIP3    H158046   6.679   5.671  12.127 -0.3152  1.3977  0.0556
12185TIP3    H258047   6.759   5.744  12.021  0.6416  0.0095 -0.2065
12186TIP3   OH258048   0.445   0.045   2.947  0.2920  0.3079 -0.2456
12186TIP3    H158049   0.498   0.105   2.894 -1.0402  0.1337 -1.8620
12186TIP3    H258050   0.355   0.065   2.923 -0.2482 -1.5057  0.1045
12187TIP3   OH258051   4.713   4.290  16.140 -0.0620  0.0743 -0.4306
12187TIP3    H158052   4.628   4.286  16.184  0.3400 -0.6585  0.3090
12187TIP3    H258053   4.739   4.198  16.128  1.3403  0.2699  0.7987
12188TIP3   OH258054   3.132   2.181   5.872  0.7173 -0.2160  0.0827
12188TIP3    H158055   3.039   2.185   5.852  0.9973  0.5303 -1.1954
12188TIP3    H258056   3.136   2.164   5.966 -0.7094  3.9178  1.0785
12189TIP3   OH258057   5.891   5.950   2.098 -0.5291  0.0660  0.2622
12189TIP3    H158058   5.882   6.044   2.112  0.2781  0.3156 -0.7618
12189TIP3    H258059   5.983   5.931   2.118 -0.4649 -0.3356 -0.3653
12190TIP3   OH258060   3.283   3.016  14.562 -0.0256 -0.3090  0.0866
12190TIP3    H158061   3.341   3.047  14.631 -2.6596  1.0281  1.8299
12190TIP3    H258062   3.304   2.923  14.554  0.8236 -0.3557  2.2055
12191TIP3   OH258063   3.758   3.057   6.562 -0.1953 -0.0943  0.4502
12191TIP3    H158064   3.741   3.116   6.488  0.5763 -0.5529 -0.1115
12191TIP3    H258065   3.737   2.970   6.529  0.4525 -0.3379  0.6572
12192TIP3   OH258066   5.853   5.636   6.013  0.0248  0.7959 -0.5603
12192TIP3    H158067   5.910   5.670   5.944 -1.2189  0.6130 -1.7122
12192TIP3    H258068   5.842   5.543   5.992  0.1230  0.5869  0.2484
12193TIP3   OH258069   0.587   6.173   1.523 -0.4687  0.1130 -0.4010
12193TIP3    H158070   0.507   6.206   1.563  0.5838  1.8669  0.3512
12193TIP3    H258071   0.600   6.088   1.564 -0.2801  1.1636  1.8869
12194TIP3   OH258072   3.766   6.182  11.686 -0.4461  0.0051 -0.7608
12194TIP3    H158073   3.789   6.217  11.772 -1.0302  2.1346 -1.4088
12194TIP3    H258074   3.674   6.159  11.693 -0.4712  0.0947 -0.8043
12195TIP3   OH258075   3.131   4.250  16.643  0.2830  0.1845 -0.2333
12195TIP3    H158076   3.121   4.181  16.578  0.1876 -0.1299  0.1173
12195TIP3    H258077   3.054   4.307  16.629 -0.6286 -0.7830  0.6951
12196TIP3   OH258078   0.611   3.484  12.091  0.5136 -0.0729 -0.2380
12196TIP3    H158079   0.532   3.473  12.039 -0.6435  1.7848  1.0065
12196TIP3    H258080   0.608   3.413  12.155 -0.6099  0.4350  0.3020
12197TIP3   OH258081   1.017   5.245  14.005 -0.1411  0.1652  0.0832
12197TIP3    H158082   0.969   5.302  14.065  0.1832  0.6016 -0.0725
12197TIP3    H258083   1.101   5.288  13.993  1.4360 -1.8987  2.5169
12198TIP3   OH258084   6.160   1.878  13.476  0.3436  0.2639  0.5187
12198TIP3    H158085   6.167   1.820  13.399  1.4721  1.4182 -0.2922
12198TIP3    H258086   6.140   1.819  13.548 -1.1289 -0.8227 -0.7076
12199TIP3   OH258087   4.343   0.872   2.186 -0.3308 -0.3728 -0.0457
12199TIP3    H158088   4.323   0.962   2.159 -1.3506 -1.0280 -1.6121
12199TIP3    H258089   4.438   0.868   2.187 -0.2622  0.8376  0.5024
12200TIP3   OH258090   2.833   3.444   3.031  0.1713  0.2663  0.2696
12200TIP3    H158091   2.799   3.528   3.000 -0.4312  0.1494  0.5938
12200TIP3    H258092   2.766   3.380   3.006  0.3598 -0.0368  0.5296
12201TIP3   OH258093   3.734   4.053   5.931 -0.4398 -0.2823 -0.0937
12201TIP3    H158094   3.661   4.000   5.962 -0.7472  0.1123 -0.1320
12201TIP3    H258095   3.805   4.035   5.993 -0.4781 -0.8799 -0.2169
12202TIP3   OH258096   1.359   2.387   0.667  0.0003  0.0997  0.2350
12202TIP3    H158097   1.288   2.392   0.731  1.2977  1.8588  1.6386
12202TIP3    H258098   1.316   2.360   0.586 -1.9495 -0.6899  1.4662
12203TIP3   OH258099   1.853   3.196   4.800  0.1487  0.7333 -0.0005
12203TIP3    H158100   1.906   3.256   4.747  2.8267 -2.9754 -1.9963
12203TIP3    H258101   1.782   3.170   4.742 -0.3494  1.0924  0.4412
12204TIP3   OH258102   6.172   4.347   2.185 -0.4148  0.3606  0.2129
12204TIP3    H158103   6.215   4.432   2.193  0.8701 -0.0849 -1.5017
12204TIP3    H258104   6.243   4.284   2.179 -1.3352 -0.6774 -0.1485
12205TIP3   OH258105   3.832   2.303   6.116 -0.2966  0.0674 -0.5913
12205TIP3    H158106   3.771   2.283   6.187  0.3160  2.5591  0.7538
12205TIP3    H258107   3.907   2.246   6.131  0.4881  1.5784  1.7820
12206TIP3   OH258108   0.413   2.034   4.561 -0.4358  0.0456  0.0414
12206TIP3    H158109   0.362   1.969   4.609  1.6409 -1.3551  0.5179
12206TIP3    H258110   0.492   2.046   4.615  0.4871  0.8758 -1.4363
12207TIP3   OH258111   3.675   4.321   0.431 -0.0998 -0.3157  0.1852
12207TIP3    H158112   3.757   4.367   0.415 -0.0266 -1.3202 -2.9206
12207TIP3    H258113   3.675   4.248   0.369 -2.4687 -1.5313  1.4660
12208TIP3   OH258114   2.487   4.821  11.049  0.3262  0.1236  0.4399
12208TIP3    H158115   2.573   4.832  11.008 -0.2881  1.7909 -0.5450
12208TIP3    H258116   2.479   4.896  11.109 -0.7488  0.4834 -0.1198
12209TIP3   OH258117   0.858   2.247   3.702  0.6885  0.1242 -0.1724
12209TIP3    H158118   0.809   2.169   3.727 -1.3757  1.1656 -0.7335
12209TIP3    H258119   0.878   2.291   3.785 -1.7355  1.0180  0.0191
12210TIP3   OH258120   1.036   1.588  14.893  0.3040  0.5003  0.1449
12210TIP3    H158121   1.073   1.549  14.814 -0.1976  0.8374 -0.2651
12210TIP3    H258122   1.026   1.514  14.953 -1.3590 -0.1958 -0.8982
12211TIP3   OH258123   2.601   0.342  11.896 -0.0921  0.2711  0.2251
12211TIP3    H158124   2.589   0.267  11.953  0.5251  0.2585  0.3378
12211TIP3    H258125   2.534   0.331  11.828  0.6363 -0.9097 -0.3262
12212TIP3   OH258126   6.107   0.533   4.350  0.1263  0.4861  0.1038
12212TIP3    H158127   6.181   0.573   4.395 -0.3101 -0.2822  1.5588
12212TIP3    H258128   6.122   0.439   4.356  0.7111  0.3298 -2.5540
12213TIP3   OH258129   2.482   6.826   2.971  0.2901  0.3611  0.3708
12213TIP3    H158130   2.493   6.893   3.038 -0.4259  0.8375  0.0284
12213TIP3    H258131   2.427   6.868   2.905  0.5099 -0.2961 -0.2350
12214TIP3   OH258132   6.641   5.917   5.532  0.2579 -0.2448 -0.2818
12214TIP3    H158133   6.579   5.845   5.532  0.3360 -0.3448  1.1348
12214TIP3    H258134   6.663   5.930   5.440  0.5333 -2.2664 -0.5515
12215TIP3   OH258135   3.452   0.854  13.647  0.0448 -0.1985  0.1327
12215TIP3    H158136   3.359   0.842  13.669 -0.1022 -0.2857 -0.4983
12215TIP3    H258137   3.487   0.906  13.718 -0.1467 -1.3643  1.1143
12216TIP3   OH258138   5.872   2.522   0.859  0.2367  0.6635  0.7412
12216TIP3    H158139   5.885   2.491   0.949  0.2601  1.0243  0.8610
12216TIP3    H258140   5.900   2.448   0.805  1.1851  0.8049  1.0192
12217TIP3   OH258141   1.599   4.443  16.146 -0.1008 -0.3850 -0.5399
12217TIP3    H158142   1.687   4.438  16.183 -0.2903  0.2187  0.0254
12217TIP3    H258143   1.589   4.362  16.096  0.8348 -0.3860 -0.7509
12218TIP3   OH258144   1.182   5.258   3.111 -0.1241  0.0675  0.0200
12218TIP3    H158145   1.094   5.258   3.147  0.0579  0.1708  0.4665
12218TIP3    H258146   1.169   5.251   3.016 -0.6538  1.4633 -0.0280
12219TIP3   OH258147   0.426   3.966  17.199  0.1172 -0.2967 -0.2155
12219TIP3    H158148   0.417   4.061  17.198  2.4625  0.0084  0.7460
12219TIP3    H258149   0.442   3.944  17.291 -0.1698 -1.5965 -0.4566
12220TIP3   OH258150   3.770   4.735  11.405  0.2876 -0.1383 -0.0511
12220TIP3    H158151   3.780   4.745  11.310  0.7227 -2.3050 -0.2926
12220TIP3    H258152   3.753   4.823  11.437 -1.1833  0.4734 -2.2895
12221TIP3   OH258153   1.864   1.179   1.770 -0.2141  0.1771 -0.2226
12221TIP3    H158154   1.955   1.188   1.797 -0.6268  1.6419  0.7905
12221TIP3    H258155   1.827   1.117   1.833  0.1409 -0.7049 -0.8563
12222TIP3   OH258156   2.358   0.982   3.421  0.2638  0.3153 -0.1436
12222TIP3    H158157   2.394   1.030   3.496  1.5680  1.8581 -1.6892
12222TIP3    H258158   2.267   0.964   3.446  0.1714  2.2745  1.1234
12223TIP3   OH258159   3.431   4.777   1.561 -0.0762 -0.1161 -0.3608
12223TIP3    H158160   3.386   4.708   1.610 -1.2796  0.1534 -1.0420
12223TIP3    H258161   3.443   4.740   1.474  2.8097 -0.9165  0.2660
12224TIP3   OH258162   1.860   4.430  16.052 -0.2509 -0.2518  0.1340
12224TIP3    H158163   1.897   4.503  16.100 -0.4632 -0.2849  0.3509
12224TIP3    H258164   1.822   4.470  15.973  0.4428 -0.2484 -0.2068
12225TIP3   OH258165   0.755   2.259   5.092 -0.2080 -0.2494  0.3712
12225TIP3    H158166   0.679   2.314   5.073  1.3231  1.2121 -2.1826
12225TIP3    H258167   0.738   2.178   5.045 -0.3751 -0.0860  0.1461
12226TIP3   OH258168   2.926   6.009   5.504  0.4187  0.0349 -0.5922
12226TIP3    H158169   2.852   6.019   5.445 -0.1322  1.2856  0.2708
12226TIP3    H258170   2.940   5.914   5.509 -2.3849 -0.3941  0.7232
12227TIP3   OH258171   1.134   0.291  14.285  0.4316 -0.0263  0.4609
12227TIP3    H158172   1.182   0.356  14.233  0.5189  1.1110  1.8979
12227TIP3    H258173   1.114   0.336  14.367  1.5935 -2.2028  2.0614
12228TIP3   OH258174   1.391   3.857   2.280 -0.0782  0.0069  0.2123
12228TIP3    H158175   1.401   3.789   2.347  0.0208 -0.4176 -0.2252
12228TIP3    H258176   1.481   3.882   2.258 -0.0888  1.9616  2.0157
12229TIP3   OH258177   3.904   0.287  16.989 -0.0509 -0.2953  0.6520
12229TIP3    H158178   3.865   0.299  16.903  0.7197 -0.1923  0.3102
12229TIP3    H258179   3.998   0.295  16.974  0.1665 -1.4391  1.3100
12230TIP3   OH258180   0.214   6.312  12.553  0.8038  0.4656  0.0963
12230TIP3    H158181   0.273   6.238  12.540  0.9053  0.5940 -0.1628
12230TIP3    H258182   0.136   6.290  12.501  0.2971 -0.0644  1.0326
12231TIP3   OH258183   2.647   0.321  16.167  0.0243  0.1904  0.7099
12231TIP3    H158184   2.705   0.259  16.211 -0.2992 -0.0933  0.7508
12231TIP3    H258185   2.576   0.266  16.133 -1.1304  0.7124  2.1602
12232TIP3   OH258186   4.953   1.501   6.143  0.7085  0.0693  0.2108
12232TIP3    H158187   4.918   1.437   6.206 -2.2768  0.8268 -0.5164
12232TIP3    H258188   5.006   1.560   6.197 -1.5462  0.5552  2.0689
12233TIP3   OH258189   4.401   0.228   1.172 -0.1988  0.1443 -0.0344
12233TIP3    H158190   4.378   0.238   1.265  0.1081 -0.0460  0.0623
12233TIP3    H258191   4.441   0.142   1.167  0.0575  0.2806 -0.2924
12234TIP3   OH258192   0.767   5.591  13.119 -0.1093  0.2857 -0.1024
12234TIP3    H158193   0.827   5.666  13.118  0.5472 -0.2235 -1.3747
12234TIP3    H258194   0.817   5.520  13.079 -1.8604  0.1114 -2.1887
12235TIP3   OH258195   1.999   2.719   5.868  0.0407 -0.0927  0.5329
12235TIP3    H158196   1.976   2.677   5.786 -0.7392 -3.0895  2.1548
12235TIP3    H258197   2.094   2.731   5.863  0.2413 -1.7622 -0.1681
12236TIP3   OH258198   3.314   0.364  14.347  0.1112 -0.0027 -0.0469
12236TIP3    H158199   3.237   0.315  14.319  0.6994 -1.9513  1.5401
12236TIP3    H258200   3.280   0.452  14.365 -1.6694 -0.6783  0.1572
12237TIP3   OH258201   3.362   1.876   2.322 -0.1988 -0.4181  0.0363
12237TIP3    H158202   3.449   1.837   2.324 -0.3175 -0.6709  1.6658
12237TIP3    H258203   3.358   1.922   2.238  1.4951 -0.3989 -0.0645
12238TIP3   OH258204   0.526   3.202  16.837  0.6490  0.1799  0.6310
12238TIP3    H158205   0.568   3.116  16.842  1.6512  0.5193 -0.9119
12238TIP3    H258206   0.509   3.227  16.927  4.0478  0.0967  1.4196
12239TIP3   OH258207   2.493   0.775  13.364  0.5683  0.3636 -0.2109
12239TIP3    H158208   2.527   0.717  13.433 -0.7632  0.5555  0.6382
12239TIP3    H258209   2.439   0.839  13.411 -0.5086  0.3901 -1.4455
12240TIP3   OH258210   6.132   4.673  16.723 -0.2300 -0.7238 -0.4200
12240TIP3    H158211   6.131   4.578  16.711  0.2132 -0.7535 -0.2392
12240TIP3    H258212   6.221   4.699  16.700 -0.8040 -0.1331 -2.1019
12241TIP3   OH258213   6.707   4.205  10.634  0.8995  0.1877  0.4568
12241TIP3    H158214   6.688   4.116  10.602 -1.4234  0.7364  0.1126
12241TIP3    H258215   6.801   4.216  10.620  0.7894 -1.2590 -1.9855
12242TIP3   OH258216   2.221   4.866  15.495  0.2877  0.2380 -0.3719
12242TIP3    H158217   2.156   4.909  15.440  1.7792  0.2061 -2.2418
12242TIP3    H258218   2.231   4.924  15.571 -1.5085  0.4818 -0.2945
12243TIP3   OH258219   6.063   2.139   1.431 -0.6969  0.2589  0.4584
12243TIP3    H158220   6.075   2.083   1.508 -1.9675 -0.1683  0.3667
12243TIP3    H258221   5.968   2.146   1.421 -0.5641  0.1045 -1.2053
12244TIP3   OH258222   2.120   0.351  15.322  0.5397 -0.2101  0.5299
12244TIP3    H158223   2.188   0.348  15.390  3.4407 -2.9657 -2.1378
12244TIP3    H258224   2.060   0.280  15.344  0.3878  0.1011  1.1477
12245TIP3   OH258225   4.088   2.741   2.507 -0.1002 -0.7979  0.4882
12245TIP3    H158226   4.109   2.652   2.537  0.5598 -0.9327 -0.3682
12245TIP3    H258227   4.127   2.798   2.573  0.2821 -1.1182  0.5399
12246TIP3   OH258228   6.053   0.698  14.860  0.7108 -0.2564 -0.1123
12246TIP3    H158229   6.029   0.790  14.868 -1.1404 -0.1780 -3.9618
12246TIP3    H258230   6.144   0.700  14.828  1.2792  0.0939  1.4551
12247TIP3   OH258231   0.873   1.538   0.627 -0.4185  0.1483 -0.2204
12247TIP3    H158232   0.968   1.532   0.641 -0.5854 -0.0166  0.9593
12247TIP3    H258233   0.855   1.478   0.554  0.5717  1.3086 -1.4681
12248TIP3   OH258234   2.040   1.328   1.097 -0.8414  0.4289 -0.3141
12248TIP3    H158235   2.133   1.345   1.085 -0.2113 -1.4622  1.3755
12248TIP3    H258236   2.008   1.404   1.146  0.3167  0.0916  1.0138
12249TIP3   OH258237   2.599   1.019  15.188 -0.4985 -0.2836 -0.3439
12249TIP3    H158238   2.619   1.005  15.095  2.0578 -2.7995  0.4505
12249TIP3    H258239   2.506   0.999  15.196 -0.4773 -1.2684 -2.1601
12250TIP3   OH258240   3.753   3.462  16.373 -0.3482 -0.4083 -0.2038
12250TIP3    H158241   3.825   3.399  16.376  0.6360  0.7091  0.6029
12250TIP3    H258242   3.765   3.508  16.290  0.7087  0.6681  0.4994
12251TIP3   OH258243   2.062   4.614   1.918  0.2786  0.1718  0.6311
12251TIP3    H158244   2.147   4.629   1.960  0.7894 -1.2932  0.1883
12251TIP3    H258245   2.083   4.559   1.842 -0.9983  0.2680  0.1913
12252TIP3   OH258246   2.999   2.076   0.259 -0.1774  0.4044  0.6782
12252TIP3    H158247   3.074   2.093   0.203  0.9837  0.0118  2.0744
12252TIP3    H258248   3.035   2.035   0.337 -1.8630  0.0455  1.3189
12253TIP3   OH258249   6.815   3.547  12.100  0.4582 -0.0031 -0.6146
12253TIP3    H158250   6.882   3.586  12.044  0.1531  0.8848 -0.3772
12253TIP3    H258251   6.743   3.525  12.040 -0.5141  2.3596 -0.4335
12254TIP3   OH258252   1.895   4.017   6.455 -0.4182 -0.2522 -0.1270
12254TIP3    H158253   1.972   3.960   6.449 -1.0489 -0.9751 -2.1357
12254TIP3    H258254   1.825   3.960   6.487 -0.5913 -0.1169 -0.2635
12255TIP3   OH258255   0.957   6.063   3.899  0.2078 -0.0073  0.0684
12255TIP3    H158256   0.881   6.041   3.845 -0.2558 -0.9368  1.0554
12255TIP3    H258257   0.938   6.152   3.931 -1.1443 -0.7127  1.3622
12256TIP3   OH258258   6.712   1.395   3.497 -0.0814  0.2915  0.3021
12256TIP3    H158259   6.797   1.378   3.457  0.2564  1.0484  0.6845
12256TIP3    H258260   6.659   1.318   3.474  0.0316  0.7876 -1.7332
12257TIP3   OH258261   4.561   2.577  11.378  0.1623 -0.0044 -0.0948
12257TIP3    H158262   4.559   2.638  11.305  2.4537  0.6018  0.2908
12257TIP3    H258263   4.653   2.573  11.404 -0.3470 -1.4961  1.6737
12258TIP3   OH258264   1.811   6.475   0.057  0.1267 -0.1631 -0.2730
12258TIP3    H158265   1.773   6.492  -0.030 -0.2784 -0.5212 -0.1723
12258TIP3    H258266   1.860   6.393   0.045 -0.0089 -0.2636 -0.1413
12259TIP3   OH258267   5.826   0.445  16.365  0.6471 -0.0997  0.3597
12259TIP3    H158268   5.816   0.500  16.443  0.4172 -0.5001  0.6233
12259TIP3    H258269   5.853   0.504  16.296  0.9888  0.2440  0.7832
12260TIP3   OH258270   5.516   5.617   2.295 -0.4316  0.2439  0.1193
12260TIP3    H158271   5.604   5.594   2.325 -0.7950 -0.6813  0.5249
12260TIP3    H258272   5.529   5.691   2.236  0.6582 -0.1672 -0.1749
12261TIP3   OH258273   0.480   4.081   4.594  0.0661 -0.4950 -0.0554
12261TIP3    H158274   0.570   4.052   4.610  0.3115 -0.2005 -0.8540
12261TIP3    H258275   0.484   4.177   4.604  0.3001 -0.2535 -2.0437
12262TIP3   OH258276   1.745   3.770  14.273 -0.2604  0.2188  0.7453
12262TIP3    H158277   1.712   3.859  14.283  1.7961  1.3038 -1.1506
12262TIP3    H258278   1.813   3.777  14.205 -0.1552 -2.8301  0.3845
12263TIP3   OH258279   1.030   4.992   2.814 -0.1254 -0.6399 -0.0371
12263TIP3    H158280   0.938   4.966   2.824 -0.5914 -0.0557 -2.2081
12263TIP3    H258281   1.070   4.920   2.764  0.1808 -0.1395 -0.5195
12264TIP3   OH258282   5.847   5.990   0.044  0.2766 -0.3669  0.2557
12264TIP3    H158283   5.842   5.946  -0.040 -0.2151 -2.1476  1.1602
12264TIP3    H258284   5.868   6.081   0.023 -0.3065 -0.6649 -1.7857
12265TIP3   OH258285   6.074   0.751   0.735  0.0173 -0.1472 -0.3010
12265TIP3    H158286   6.009   0.681   0.730 -0.8750  0.1515  3.7565
12265TIP3    H258287   6.024   0.829   0.758  1.5827  0.4300  1.4062
12266TIP3   OH258288   0.123   1.160   0.745  0.7956  0.3432 -0.3598
12266TIP3    H158289   0.045   1.209   0.717  0.2968  0.2477  0.8164
12266TIP3    H258290   0.187   1.177   0.676 -0.1147  0.7833 -1.1314
12267TIP3   OH258291   1.457   6.380  13.450  0.1948  0.0940  0.7100
12267TIP3    H158292   1.431   6.447  13.387  3.3476  1.4760  0.6536
12267TIP3    H258293   1.379   6.327  13.463 -1.3582  1.4018 -2.2505
12268TIP3   OH258294   1.967   5.350  10.349 -0.0625 -0.2210  0.6972
12268TIP3    H158295   1.880   5.385  10.330 -0.4713 -1.6775 -0.2895
12268TIP3    H258296   1.961   5.314  10.437 -0.1499  0.5713  1.0213
12269TIP3   OH258297   3.357   4.019  15.736  0.0516  0.3234 -0.2261
12269TIP3    H158298   3.281   4.077  15.735 -0.4485 -0.2511  1.4632
12269TIP3    H258299   3.359   3.981  15.648 -1.4747  0.5240 -0.3766
12270TIP3   OH258300   6.757   6.667  15.155 -0.6877 -0.2373 -0.1494
12270TIP3    H158301   6.673   6.712  15.141 -0.2432  1.1157  1.2613
12270TIP3    H258302   6.737   6.597  15.218 -0.1899  2.4717  3.3221
12271TIP3   OH258303   3.404   4.267  14.295 -0.1385  0.4016 -0.2462
12271TIP3    H158304   3.482   4.306  14.335  0.1250  0.8855 -1.2129
12271TIP3    H258305   3.418   4.173  14.302  0.2260  0.4774  0.1605
12272TIP3   OH258306   0.807   1.906   1.645 -0.0882 -0.1909 -0.3942
12272TIP3    H158307   0.782   1.867   1.562 -0.9692 -0.9825  0.2240
12272TIP3    H258308   0.854   1.835   1.691 -2.3095 -0.8278  1.0262
12273TIP3   OH258309   6.540   6.338  16.974 -0.3157 -0.0995 -0.2297
12273TIP3    H158310   6.530   6.259  16.921 -1.3244 -0.3855  0.3630
12273TIP3    H258311   6.453   6.353  17.011  0.2443  0.4023  0.9182
12274TIP3   OH258312   4.251   3.203   4.476 -0.1464  0.0905  0.0348
12274TIP3    H158313   4.297   3.119   4.477  0.1904  0.2336 -1.1753
12274TIP3    H258314   4.293   3.252   4.405 -0.5797  1.1459  0.4840
12275TIP3   OH258315   1.866   0.703   2.501 -0.0369 -0.8047  0.3285
12275TIP3    H158316   1.868   0.743   2.414 -1.4788 -0.4052  0.4581
12275TIP3    H258317   1.773   0.697   2.523  0.2805 -1.4436  1.5973
12276TIP3   OH258318   4.200   5.838   4.766  0.5296 -0.5891 -0.0132
12276TIP3    H158319   4.115   5.800   4.790  0.8391 -1.9396 -0.9436
12276TIP3    H258320   4.255   5.825   4.843 -0.6591  2.3537  1.5102
12277TIP3   OH258321   2.331   2.506   1.915  0.3201 -0.4444 -0.4454
12277TIP3    H158322   2.328   2.602   1.917  1.2565 -0.4146  0.3604
12277TIP3    H258323   2.251   2.481   1.869 -2.6299  0.5339  3.6212
12278TIP3   OH258324   2.685   0.978  13.056  0.5094  0.1485 -0.8675
12278TIP3    H158325   2.743   0.982  13.132 -1.8111 -0.6120  1.0896
12278TIP3    H258326   2.716   0.903  13.006  1.7993  0.3680 -0.4418
12279TIP3   OH258327   5.231   3.989   5.016 -0.8611  0.5537  0.0074
12279TIP3    H158328   5.187   3.904   5.022 -2.1254  1.1515 -0.3594
12279TIP3    H258329   5.168   4.051   5.055  0.4830  1.1904  1.2628
12280TIP3   OH258330   1.266   1.436   0.496 -0.1528  0.2627  0.5770
12280TIP3    H158331   1.262   1.506   0.562  1.3186 -0.0216  1.0181
12280TIP3    H258332   1.341   1.383   0.523 -0.6469 -0.9180 -0.3177
12281TIP3   OH258333   0.668   3.374   3.515 -0.3350 -0.2438 -0.0411
12281TIP3    H158334   0.640   3.355   3.425 -1.0068 -1.5511  0.4069
12281TIP3    H258335   0.760   3.347   3.518 -0.2047  0.1535 -0.4347
12282TIP3   OH258336   0.342   2.616   3.697 -0.8639  0.3936 -0.6117
12282TIP3    H158337   0.370   2.640   3.608  0.2698 -0.2247 -0.4496
12282TIP3    H258338   0.268   2.673   3.715 -0.8630  0.8096 -1.8071
12283TIP3   OH258339   6.229   3.138   5.373  0.3121  0.2347  0.8199
12283TIP3    H158340   6.295   3.174   5.312 -0.3727  1.8716  0.9866
12283TIP3    H258341   6.249   3.180   5.457 -0.3780  0.0530  1.0797
12284TIP3   OH258342   1.993   6.399   1.105 -0.0501  0.0333  0.3689
12284TIP3    H158343   2.062   6.352   1.151  0.3615 -0.8167 -1.0776
12284TIP3    H258344   1.913   6.376   1.152  0.4639 -0.0718  1.2155
12285TIP3   OH258345   5.453   4.574  11.803 -0.5288  0.8321 -0.3070
12285TIP3    H158346   5.500   4.553  11.883 -1.2777  2.9709  0.7758
12285TIP3    H258347   5.392   4.501  11.791  0.1693  0.0840  0.6124
12286TIP3   OH258348   5.615   6.007  12.159 -0.2034  0.5238  0.5193
12286TIP3    H158349   5.705   6.026  12.134  0.3032 -1.5807  0.4900
12286TIP3    H258350   5.564   6.023  12.080  0.3612  0.4305  0.1301
12287TIP3   OH258351   0.082   5.559   5.868 -0.1581 -0.6779 -0.1514
12287TIP3    H158352   0.001   5.530   5.909  0.2129 -0.5503  0.6859
12287TIP3    H258353   0.092   5.501   5.793 -1.1011 -0.5905 -0.3589
12288TIP3   OH258354   5.227   0.083  13.585 -0.0159  1.1831 -0.3140
12288TIP3    H158355   5.137   0.054  13.601 -0.9282  2.5690 -2.4842
12288TIP3    H258356   5.268   0.085  13.672 -1.6022 -0.8747  0.5558
12289TIP3   OH258357   6.767   3.286  14.959 -0.1916 -0.3288 -0.0642
12289TIP3    H158358   6.771   3.334  14.876 -0.3338 -1.4450 -0.7391
12289TIP3    H258359   6.702   3.334  15.011  0.1059  0.5539 -0.4734
12290TIP3   OH258360   5.236   3.418  11.785  0.7629  0.0280 -0.5900
12290TIP3    H158361   5.276   3.471  11.716  0.5510 -2.1745 -2.5195
12290TIP3    H258362   5.308   3.369  11.824  0.4902 -1.0559 -1.4171
12291TIP3   OH258363   5.323   4.745   2.966 -0.6693  0.3324  0.0605
12291TIP3    H158364   5.366   4.815   3.015 -1.2247 -0.6778  2.0733
12291TIP3    H258365   5.395   4.699   2.923  0.1129 -0.1660  1.8217
12292TIP3   OH258366   0.405   5.524   0.234  0.0052  0.2730  0.0557
12292TIP3    H158367   0.329   5.517   0.175  0.4110  2.1138 -0.7601
12292TIP3    H258368   0.375   5.485   0.316 -1.9314  1.1759 -0.1697
12293TIP3   OH258369   4.127   1.325  14.537  0.1393 -0.2096 -0.1834
12293TIP3    H158370   4.207   1.376  14.553  2.1419 -2.6478 -1.6613
12293TIP3    H258371   4.077   1.332  14.618  1.2156  2.3748  0.3750
12294TIP3   OH258372   1.499   5.005  16.013 -0.2820  0.2384  0.0988
12294TIP3    H158373   1.552   5.065  15.961  1.1468  0.4564  1.7446
12294TIP3    H258374   1.457   5.061  16.079 -0.6164 -0.2793  0.3323
12295TIP3   OH258375   2.785   4.286  12.923  0.1574  0.6137 -0.5596
12295TIP3    H158376   2.824   4.213  12.970 -2.5015  0.2140  1.2067
12295TIP3    H258377   2.763   4.251  12.837 -1.2352 -0.7556  0.3198
12296TIP3   OH258378   0.926   5.238   4.668  0.3913  0.3645  0.1668
12296TIP3    H158379   0.974   5.202   4.743 -0.5611  1.6360  1.4296
12296TIP3    H258380   0.972   5.319   4.646  0.2315  0.3674 -0.1734
12297TIP3   OH258381   4.876   5.257  10.753 -0.6220  0.2252 -0.3984
12297TIP3    H158382   4.865   5.253  10.658  0.0882  1.4023 -0.5521
12297TIP3    H258383   4.958   5.211  10.769  0.2936  1.7074 -0.6067
12298TIP3   OH258384   6.479   0.345   6.806  0.6737 -0.6272  0.7612
12298TIP3    H158385   6.572   0.364   6.822  0.5019 -0.8747  2.1760
12298TIP3    H258386   6.479   0.290   6.727  1.4563  2.0349 -1.2476
12299TIP3   OH258387   4.625   6.197  17.063  0.2610 -0.5421  0.0581
12299TIP3    H158388   4.666   6.112  17.050 -0.4502 -0.8104 -0.4642
12299TIP3    H258389   4.657   6.250  16.989  0.7510 -0.3319  0.4153
12300TIP3   OH258390   4.856   3.262   5.758 -0.2740 -0.7802 -0.1698
12300TIP3    H158391   4.851   3.328   5.826 -0.5945 -0.2967 -0.6512
12300TIP3    H258392   4.947   3.265   5.727 -0.0874 -1.1139  0.3405
12301TIP3   OH258393   5.472   5.983   0.902 -0.2294 -0.9828 -0.0966
12301TIP3    H158394   5.534   5.969   0.973 -0.7690 -0.4284  0.4953
12301TIP3    H258395   5.387   5.991   0.945 -0.7892 -2.1388 -0.9216
12302TIP3   OH258396   4.279   4.613   1.265  0.3027 -0.1663 -0.3119
12302TIP3    H158397   4.286   4.703   1.233 -1.6049  0.1743  0.1063
12302TIP3    H258398   4.369   4.588   1.285  0.9483  1.4129 -1.0575
12303TIP3   OH258399   3.377   5.879  16.206  0.4251  1.0134 -0.2769
12303TIP3    H158400   3.332   5.884  16.122 -0.2704 -0.9558 -0.0829
12303TIP3    H258401   3.470   5.881  16.183  0.2390  0.7758 -1.0869
12304TIP3   OH258402   4.298   5.249  12.370 -0.1823  0.2079 -0.5600
12304TIP3    H158403   4.252   5.257  12.454  0.7498  0.8707 -0.0915
12304TIP3    H258404   4.312   5.340  12.342  0.1774  0.0041 -1.0506
12305TIP3   OH258405   4.240   2.261  15.170 -0.3281  0.3046  0.3278
12305TIP3    H158406   4.281   2.256  15.256  0.3823 -1.1046 -0.0569
12305TIP3    H258407   4.228   2.169  15.145 -1.7037  0.6953 -0.5247
12306TIP3   OH258408   3.881   6.730   0.421  0.1847 -0.1186  0.6630
12306TIP3    H158409   3.907   6.702   0.333 -0.5383  1.7072 -0.2004
12306TIP3    H258410   3.788   6.709   0.426 -0.7434  3.0599 -0.5486
12307TIP3   OH258411   5.930   2.402  14.666  0.0101 -0.5341  0.1635
12307TIP3    H158412   5.861   2.336  14.673 -0.6354 -0.1568 -2.0145
12307TIP3    H258413   5.979   2.377  14.588  0.2805  1.0812 -0.2193
12308TIP3   OH258414   1.853   3.725  15.658 -0.6391  0.2730  0.0472
12308TIP3    H158415   1.891   3.811  15.680 -1.3213  0.7785 -0.7050
12308TIP3    H258416   1.783   3.713  15.722 -1.5287  0.9816 -0.7625
12309TIP3   OH258417   5.036   3.889   1.389  0.6979 -0.1925  0.2129
12309TIP3    H158418   5.115   3.917   1.435  0.4038  1.1149 -0.0591
12309TIP3    H258419   5.047   3.794   1.379  1.5851 -0.2415  1.3960
12310TIP3   OH258420   5.240   3.386   0.613 -0.1408  0.5213 -0.3187
12310TIP3    H158421   5.316   3.438   0.641 -0.0664 -0.6898  1.9583
12310TIP3    H258422   5.264   3.296   0.635 -2.9134  0.2580  2.2845
12311TIP3   OH258423   3.491   0.057  16.009 -0.5420 -0.3704  0.0466
12311TIP3    H158424   3.440   0.066  16.089  1.0076  1.4083  0.8895
12311TIP3    H258425   3.570   0.108  16.024  0.8301 -1.7918 -1.7869
12312TIP3   OH258426   2.229   0.649   3.942 -0.4639 -0.0721  0.6185
12312TIP3    H158427   2.215   0.556   3.925  0.0946  0.0595 -0.7215
12312TIP3    H258428   2.317   0.666   3.908 -0.8592  1.1016  0.1182
12313TIP3   OH258429   5.851   2.365   4.282  0.7972 -0.2954 -0.2311
12313TIP3    H158430   5.802   2.328   4.356 -0.2628  0.3766 -0.5730
12313TIP3    H258431   5.793   2.354   4.207  0.5715  1.7149 -0.4078
12314TIP3   OH258432   2.776   5.476   0.589  0.1841 -0.1194 -0.5748
12314TIP3    H158433   2.863   5.515   0.592  0.3847 -0.6137  0.4461
12314TIP3    H258434   2.726   5.524   0.655 -0.3804  0.2763 -1.2698
12315TIP3   OH258435   5.669   4.592  11.103  0.5428  0.7609 -0.0336
12315TIP3    H158436   5.745   4.608  11.048  0.6392 -1.1953 -0.5499
12315TIP3    H258437   5.683   4.646  11.181  2.5828  0.2668 -0.0114
12316TIP3   OH258438   1.264   0.591   4.585  0.1868  0.3487 -0.1383
12316TIP3    H158439   1.181   0.591   4.538 -0.2364 -1.8169  0.5312
12316TIP3    H258440   1.240   0.580   4.677  1.2034 -0.7351  0.0249
12317TIP3   OH258441   0.534   4.766  12.571  0.4461  0.4241 -0.7286
12317TIP3    H158442   0.493   4.829  12.511  0.8336  0.7093 -0.6948
12317TIP3    H258443   0.624   4.796  12.580  1.4276 -1.6318 -2.7902
12318TIP3   OH258444   0.034   0.947  15.146  0.2868 -0.0598  0.4020
12318TIP3    H158445   0.075   0.892  15.079  0.3092  0.3300  0.0908
12318TIP3    H258446   0.054   0.904  15.228 -1.5500 -1.7239  0.0436
12319TIP3   OH258447   4.100   2.558   2.711 -0.0177  0.3343 -0.1371
12319TIP3    H158448   4.041   2.610   2.767  1.1733  1.7363 -0.1229
12319TIP3    H258449   4.063   2.470   2.712 -1.9338  1.0918  0.1289
12320TIP3   OH258450   2.002   3.657   4.159  0.3104  0.0747 -0.6438
12320TIP3    H158451   1.995   3.564   4.176 -2.4971  0.0039 -1.6047
12320TIP3    H258452   1.927   3.696   4.205  0.6281  1.6698 -1.3842
12321TIP3   OH258453   2.637   4.773   1.868  0.5328  0.2832 -0.1391
12321TIP3    H158454   2.696   4.698   1.868  0.4840  0.2124 -1.9111
12321TIP3    H258455   2.569   4.751   1.805 -0.2185  1.2701  0.2971
12322TIP3   OH258456   3.239   4.160  12.900  0.3114  0.3017  0.0354
12322TIP3    H158457   3.313   4.220  12.905 -0.0191  0.6944  0.1980
12322TIP3    H258458   3.179   4.189  12.968  0.6313 -0.8684  0.8433
12323TIP3   OH258459   6.049   0.961   5.132 -0.1226  0.4004 -0.1087
12323TIP3    H158460   6.045   0.916   5.216 -1.0917 -0.8103 -0.7662
12323TIP3    H258461   6.107   0.908   5.078  0.8203  1.3889 -0.0969
12324TIP3   OH258462   5.742   2.091   2.464  0.1482 -0.3254  0.2983
12324TIP3    H158463   5.815   2.153   2.462  0.6789 -0.9557 -0.9780
12324TIP3    H258464   5.689   2.120   2.538  1.1646  0.7439  0.6540
12325TIP3   OH258465   1.057   1.907   6.436  0.2791  0.8310 -0.5485
12325TIP3    H158466   0.967   1.928   6.412 -0.1111  2.8148  2.1978
12325TIP3    H258467   1.049   1.844   6.508  1.0771  1.1015 -0.2139
12326TIP3   OH258468   5.371   2.764  14.455 -0.3392  0.1744 -0.2639
12326TIP3    H158469   5.333   2.707  14.388 -2.5101  1.3141 -0.1084
12326TIP3    H258470   5.415   2.833  14.405 -0.3506  0.0224 -0.4889
12327TIP3   OH258471   3.033   3.912  10.842 -0.4288 -0.0907  0.1067
12327TIP3    H158472   2.990   3.840  10.886 -1.2600 -0.6868 -1.5985
12327TIP3    H258473   3.081   3.871  10.770 -2.9254  1.1449 -2.4740
12328TIP3   OH258474   2.792   5.344  16.852 -0.4723  0.5087  0.1135
12328TIP3    H158475   2.809   5.357  16.759  0.2946  0.8744  0.2945
12328TIP3    H258476   2.821   5.254  16.870  2.2380  1.3995  0.5959
12329TIP3   OH258477   2.323   4.669   4.036  0.1557 -0.2576 -0.3741
12329TIP3    H158478   2.277   4.606   4.092  1.5042 -0.6557  0.3236
12329TIP3    H258479   2.354   4.617   3.962 -0.1201 -0.0795 -0.6177
12330TIP3   OH258480   2.089   5.990  15.127 -0.3446 -0.1124 -0.4499
12330TIP3    H158481   2.071   5.909  15.078 -0.6924 -0.9724  1.0295
12330TIP3    H258482   2.010   6.043  15.115 -2.0470 -1.8515  2.0672
12331TIP3   OH258483   3.167   4.963  14.908  0.5572 -0.1559 -0.4607
12331TIP3    H158484   3.109   5.033  14.938 -0.5429 -0.3809 -1.9772
12331TIP3    H258485   3.216   4.938  14.987 -1.8266 -0.4010  1.0458
12332TIP3   OH258486   3.030   1.235  14.951 -0.1890 -0.1508  0.0319
12332TIP3    H158487   2.977   1.163  14.917 -0.6596  0.2963 -0.1923
12332TIP3    H258488   3.119   1.199  14.956 -0.6547 -1.1743  1.2280
12333TIP3   OH258489   1.029   0.574   4.150  0.2038 -0.2640  0.0560
12333TIP3    H158490   1.110   0.531   4.122  0.2476 -0.7043  0.8279
12333TIP3    H258491   1.009   0.636   4.080  1.4125  0.1166  0.0260
12334TIP3   OH258492   0.710   5.320  17.170  0.1458 -0.6064  0.6182
12334TIP3    H158493   0.697   5.321  17.075 -1.3872 -1.2425  0.7934
12334TIP3    H258494   0.748   5.406  17.189 -3.0655  1.2006 -0.1816
12335TIP3   OH258495   1.401   3.246   5.851  0.2271 -0.2449 -0.2175
12335TIP3    H158496   1.384   3.153   5.865  0.6274 -0.2071  0.5970
12335TIP3    H258497   1.344   3.270   5.778 -1.4483 -0.6362  0.9232
12336TIP3   OH258498   3.434   3.916   3.883 -0.1613  0.2564  0.0116
12336TIP3    H158499   3.354   3.891   3.928  0.0979 -0.9137 -0.1488
12336TIP3    H258500   3.500   3.855   3.915  0.9912  1.9384  1.0689
12337TIP3   OH258501   0.609   0.632  17.133  0.4061  0.5437  0.1731
12337TIP3    H158502   0.532   0.610  17.186 -0.5369  0.5380 -1.1752
12337TIP3    H258503   0.598   0.724  17.112  1.4715  0.9052  1.0602
12338TIP3   OH258504   2.297   6.799   2.747  0.1259 -0.4872 -0.5942
12338TIP3    H158505   2.347   6.814   2.666 -1.1629 -0.4834 -1.4191
12338TIP3    H258506   2.221   6.748   2.719 -1.0420  0.6503  0.3728
12339TIP3   OH258507   1.376   1.952   5.034 -0.0396 -0.5174  0.0589
12339TIP3    H158508   1.437   2.025   5.041  1.1688 -1.1259 -2.8306
12339TIP3    H258509   1.380   1.909   5.120 -0.8877  2.7539  1.8980
12340TIP3   OH258510   4.754   6.270   0.807  0.0154 -0.3775  0.0772
12340TIP3    H158511   4.687   6.201   0.800 -1.1259  0.6107  0.9143
12340TIP3    H258512   4.837   6.222   0.812 -0.8137 -1.7566  1.7173
12341TIP3   OH258513   5.859   6.359  12.408 -0.0534 -0.0586 -0.3198
12341TIP3    H158514   5.869   6.425  12.340 -1.6510 -0.9328 -1.4798
12341TIP3    H258515   5.840   6.409  12.487 -0.7297  0.9064 -1.0642
12342TIP3   OH258516   6.522   4.482   0.518  0.7127  0.3463  0.2516
12342TIP3    H158517   6.526   4.398   0.565 -0.6864  0.4270  0.5533
12342TIP3    H258518   6.474   4.540   0.577 -2.2643  0.0899 -1.7367
12343TIP3   OH258519   6.280   5.316  14.042  0.0370 -0.0851  0.3026
12343TIP3    H158520   6.244   5.297  14.129  0.1020 -0.7966  0.1845
12343TIP3    H258521   6.239   5.251  13.985  0.7084 -0.2361 -0.0189
12344TIP3   OH258522   2.657   0.590  16.259  0.0613  0.2328 -0.2605
12344TIP3    H158523   2.736   0.592  16.312 -0.0288  1.4499 -0.1511
12344TIP3    H258524   2.641   0.497  16.244  0.7387 -0.0861  0.8600
12345TIP3   OH258525   4.313   4.428   5.446  0.0898 -0.3903  0.1827
12345TIP3    H158526   4.276   4.350   5.488  0.8717 -0.2324  1.1952
12345TIP3    H258527   4.330   4.488   5.518 -1.0913  0.9979 -0.6458
12346TIP3   OH258528   6.622   1.051  13.297 -0.2636 -0.9066 -0.0854
12346TIP3    H158529   6.538   1.088  13.270 -0.9339 -1.8312  0.6707
12346TIP3    H258530   6.628   1.071  13.390  0.7648 -0.1070 -0.3057
12347TIP3   OH258531   0.970   2.163  15.731  0.1714  0.3034 -0.1110
12347TIP3    H158532   0.893   2.213  15.702  1.2117  1.6579 -0.6206
12347TIP3    H258533   0.988   2.102  15.660  0.1683  0.6752 -0.4304
12348TIP3   OH258534   5.766   1.088  11.958  0.2497  0.3713 -0.2271
12348TIP3    H158535   5.709   1.137  11.898  0.5270  0.4896 -0.3939
12348TIP3    H258536   5.855   1.112  11.932  0.3691  0.8061  0.5515
12349TIP3   OH258537   2.520   5.554   1.247  0.8051  0.6576  0.2862
12349TIP3    H158538   2.536   5.512   1.162 -0.4834  0.2367  0.2350
12349TIP3    H258539   2.562   5.640   1.239 -2.0249  2.0191 -2.0651
12350TIP3   OH258540   3.757   4.928  12.943 -0.4162 -0.3053  0.3539
12350TIP3    H158541   3.833   4.978  12.913 -0.9277  0.3344  0.1159
12350TIP3    H258542   3.711   4.904  12.863  0.1744 -1.7422  0.4160
12351TIP3   OH258543   5.733   4.615  15.781 -0.3858 -0.1867  0.0124
12351TIP3    H158544   5.719   4.523  15.801  0.3775 -0.2842  0.1061
12351TIP3    H258545   5.758   4.655  15.865 -0.0797 -0.0237 -0.1545
12352TIP3   OH258546   1.220   3.082   6.033 -0.7513  0.2561  0.2574
12352TIP3    H158547   1.171   3.042   5.961 -1.1508  0.3444  0.4763
12352TIP3    H258548   1.153   3.109   6.096 -0.5317  1.5783 -0.0337
12353TIP3   OH258549   5.216   4.335  17.142  0.1766 -0.1704  0.4395
12353TIP3    H158550   5.220   4.374  17.229  0.6954  0.7938  0.0040
12353TIP3    H258551   5.211   4.410  17.082 -0.3410 -0.8188 -0.3562
12354TIP3   OH258552   5.432   2.210  11.730  0.1026 -0.3147 -0.4240
12354TIP3    H158553   5.382   2.157  11.669 -0.8548  1.9032 -1.6810
12354TIP3    H258554   5.371   2.229  11.802  0.2155 -0.3472 -0.3186
12355TIP3   OH258555   3.550   2.579  15.881 -0.2672  0.7872 -0.1976
12355TIP3    H158556   3.534   2.498  15.832  2.2114  0.0895  0.0365
12355TIP3    H258557   3.545   2.648  15.815 -0.1396  0.2136 -0.8242
12356TIP3   OH258558   2.459   2.400  17.102  0.1707  0.3313 -0.0688
12356TIP3    H158559   2.382   2.347  17.080  0.7733 -1.6143  2.0641
12356TIP3    H258560   2.514   2.396  17.024 -1.7649  1.7156 -1.6283
12357TIP3   OH258561   3.752   5.415  13.340  0.8481 -0.2288  0.5114
12357TIP3    H158562   3.808   5.487  13.310  0.2628  0.3429  0.7803
12357TIP3    H258563   3.703   5.388  13.263 -0.2326  0.8568  0.7889
12358TIP3   OH258564   6.302   6.812   6.396  0.1042 -0.2180  0.2627
12358TIP3    H158565   6.282   6.828   6.488  1.2621 -1.2079  0.7182
12358TIP3    H258566   6.317   6.717   6.392  1.1735 -0.0259 -0.7108
12359TIP3   OH258567   1.017   1.485   4.336 -0.8724 -0.5270  0.1054
12359TIP3    H158568   0.926   1.515   4.342 -1.1691 -0.9644 -1.5954
12359TIP3    H258569   1.050   1.489   4.425 -2.1282  0.9849  0.5371
12360TIP3   OH258570   5.963   1.905   6.617  0.1169  0.0687  0.8210
12360TIP3    H158571   5.935   1.994   6.640  0.7638  0.7000 -0.6494
12360TIP3    H258572   5.897   1.848   6.655 -0.8349  1.2417  1.0030
12361TIP3   OH258573   2.740   6.153  13.472 -0.2335  0.2317 -0.6337
12361TIP3    H158574   2.709   6.098  13.400 -2.2240  0.9069 -0.3506
12361TIP3    H258575   2.667   6.156  13.533  1.5085 -0.5815  1.6323
12362TIP3   OH258576   1.799   1.174   4.493  0.4782 -0.1918  0.5258
12362TIP3    H158577   1.732   1.130   4.441  0.4706  0.5201 -0.0740
12362TIP3    H258578   1.872   1.186   4.433  1.4971 -1.7258  1.3914
12363TIP3   OH258579   4.293   3.573   4.003  0.0848 -0.4292  0.4966
12363TIP3    H158580   4.240   3.651   3.986  1.1351 -0.2687 -2.6276
12363TIP3    H258581   4.376   3.607   4.035 -0.2435 -0.4440  1.3955
12364TIP3   OH258582   0.218   4.347   3.627  0.5661 -0.0553  0.1231
12364TIP3    H158583   0.198   4.396   3.707 -1.2970  3.2359 -2.1250
12364TIP3    H258584   0.291   4.394   3.588  0.3831 -0.6259 -0.9289
12365TIP3   OH258585   5.013   6.248  11.151 -0.2819 -0.0694  0.0112
12365TIP3    H158586   4.969   6.281  11.229  2.5358 -1.2467  2.2966
12365TIP3    H258587   5.018   6.154  11.164  3.2340  0.0072  0.2708
12366TIP3   OH258588   4.471   2.445  16.824  0.4478 -0.5218 -0.0485
12366TIP3    H158589   4.397   2.390  16.851  0.7213 -0.2955  1.2014
12366TIP3    H258590   4.542   2.382  16.808  0.2076 -0.6795 -0.5056
12367TIP3   OH258591   5.187   5.700  12.746  0.3371 -0.0622 -0.0311
12367TIP3    H158592   5.165   5.611  12.775  3.2021 -0.4772  1.1373
12367TIP3    H258593   5.177   5.696  12.651 -2.1802 -0.7884  0.1803
12368TIP3   OH258594   1.460   4.572   1.405  0.5176  0.3911 -0.2146
12368TIP3    H158595   1.439   4.525   1.324 -0.3356  1.5225 -0.6711
12368TIP3    H258596   1.494   4.504   1.464 -2.7235 -1.3197 -0.0507
12369TIP3   OH258597   3.636   5.477   5.193 -0.5621 -1.4444  0.0268
12369TIP3    H158598   3.701   5.545   5.176 -3.1149  0.7990 -1.5848
12369TIP3    H258599   3.673   5.397   5.155  1.2873 -0.3060 -0.6664
12370TIP3   OH258600   4.508   2.072   1.077 -0.0704  0.3900  0.7260
12370TIP3    H158601   4.440   2.057   1.142  2.9844 -1.0318  3.8857
12370TIP3    H258602   4.559   1.991   1.077  1.3511  1.1515 -1.9756
12371TIP3   OH258603   6.489   1.572   5.650 -0.1943  0.1104 -0.2723
12371TIP3    H158604   6.415   1.620   5.686 -1.2215 -0.9088 -0.9508
12371TIP3    H258605   6.481   1.483   5.686  0.3479 -0.1675 -0.8046
12372TIP3   OH258606   3.260   1.198   0.869  0.4327  0.2949  0.1123
12372TIP3    H158607   3.254   1.176   0.776  0.3712  0.1594  0.1479
12372TIP3    H258608   3.354   1.198   0.887  0.4083 -0.9089  0.3372
12373TIP3   OH258609   2.402   0.328   1.028 -0.0197 -0.0093  0.4687
12373TIP3    H158610   2.430   0.274   1.102 -0.0961  2.0106  2.0595
12373TIP3    H258611   2.483   0.355   0.985  0.0887 -0.1552  0.5814
12374TIP3   OH258612   4.358   6.640   6.627 -0.3538 -0.3494  0.5485
12374TIP3    H158613   4.369   6.703   6.698  2.7484  1.6308 -1.4434
12374TIP3    H258614   4.326   6.692   6.553 -0.3611 -1.6700 -0.4216
12375TIP3   OH258615   6.025   3.358  11.570  0.1411  0.1599 -0.4564
12375TIP3    H158616   6.101   3.406  11.603  1.4442 -2.2826  0.3741
12375TIP3    H258617   6.019   3.383  11.478  0.1532  2.5398  0.1240
12376TIP3   OH258618   2.740   1.359   2.316  0.2389 -0.2668 -0.1517
12376TIP3    H158619   2.800   1.407   2.373  1.1104  0.1771 -1.4053
12376TIP3    H258620   2.780   1.273   2.306 -0.1815 -0.5234  0.2953
12377TIP3   OH258621   4.205   6.140   1.498  0.1199 -0.1077 -0.3811
12377TIP3    H158622   4.113   6.114   1.502 -0.2735  1.2977  0.4159
12377TIP3    H258623   4.204   6.234   1.517  1.7043 -0.0186 -0.6007
12378TIP3   OH258624   1.157   1.780  16.472  0.4493  0.1790  0.1165
12378TIP3    H158625   1.213   1.832  16.530  2.8392 -2.5450  0.4953
12378TIP3    H258626   1.155   1.693  16.512  0.8284 -1.3940 -2.9510
12379TIP3   OH258627   2.100   6.647  11.936  0.3377  0.0460 -0.0880
12379TIP3    H158628   2.137   6.563  11.910  1.2624  0.2755  0.4355
12379TIP3    H258629   2.036   6.668  11.867  1.5206 -0.1523 -1.2814
12380TIP3   OH258630   2.531   6.142   6.200 -0.1193  0.5115 -0.3373
12380TIP3    H158631   2.601   6.107   6.254  0.0955  0.0365 -0.9092
12380TIP3    H258632   2.477   6.066   6.176 -0.7988  0.8600  0.0463
12381TIP3   OH258633   4.389   1.873   4.875  0.6361  0.0649  0.0087
12381TIP3    H158634   4.378   1.967   4.886  1.9964  0.2881 -0.3354
12381TIP3    H258635   4.412   1.840   4.962 -0.2737 -0.0369  0.2234
12382TIP3   OH258636   6.391   2.471   4.855 -0.1601 -0.1324  0.2530
12382TIP3    H158637   6.460   2.458   4.920  0.4896 -0.0228 -0.3961
12382TIP3    H258638   6.391   2.566   4.840  2.2855 -0.4310 -2.5907
12383TIP3   OH258639   4.766   4.339  12.245 -0.1785 -0.3251 -0.1599
12383TIP3    H158640   4.673   4.352  12.228  0.0369  2.4372  0.2867
12383TIP3    H258641   4.770   4.264  12.304 -2.2034  0.0099  0.4719
12384TIP3   OH258642   3.476   6.786   0.542  0.3875 -0.0401 -0.8731
12384TIP3    H158643   3.485   6.742   0.627  0.2178  0.4286 -0.6067
12384TIP3    H258644   3.382   6.794   0.529  0.4104 -0.3319 -1.2260
12385TIP3   OH258645   5.768   2.184   1.464 -0.2403  0.1518  0.2792
12385TIP3    H158646   5.700   2.248   1.488 -1.0691 -0.9388  0.9701
12385TIP3    H258647   5.737   2.102   1.503  0.8830 -0.6314 -0.4392
12386TIP3   OH258648   6.801   0.156   6.309  0.1041 -0.6443 -0.3543
12386TIP3    H158649   6.896   0.160   6.294  0.1351  1.8527  0.1109
12386TIP3    H258650   6.789   0.194   6.396 -1.3213 -1.3530 -0.2192
12387TIP3   OH258651   0.083   2.385  12.567 -0.7198 -0.3867 -0.1265
12387TIP3    H158652   0.078   2.478  12.589  1.2846  0.0988 -1.4196
12387TIP3    H258653   0.016   2.373  12.499 -0.5555  0.2900 -0.4182
12388TIP3   OH258654   0.531   0.226   5.173 -0.0510  0.3227 -0.2680
12388TIP3    H158655   0.595   0.259   5.236 -2.0275  0.5189  1.7362
12388TIP3    H258656   0.494   0.305   5.132  0.3148  0.2406 -0.7770
12389TIP3   OH258657   5.226   4.520   5.938 -0.3234 -0.0600 -0.2844
12389TIP3    H158658   5.178   4.596   5.971  0.1080 -0.3970  1.2213
12389TIP3    H258659   5.163   4.474   5.882 -0.8747  0.9156 -0.4849
12390TIP3   OH258660   5.145   2.065  15.947  0.3443  0.1920  0.2678
12390TIP3    H158661   5.211   2.000  15.968 -0.5933 -0.6648  0.6618
12390TIP3    H258662   5.181   2.113  15.873  0.9063 -0.9962 -0.2470
12391TIP3   OH258663   2.915   4.360   6.420  0.2871  0.3146  0.3393
12391TIP3    H158664   2.878   4.448   6.416  0.6721  0.4533 -2.2567
12391TIP3    H258665   3.007   4.372   6.398  0.0388 -0.8269 -1.5660
12392TIP3   OH258666   2.613   3.124   1.677  0.1116  0.4437  0.1099
12392TIP3    H158667   2.572   3.157   1.597  1.0823  2.4206  0.3650
12392TIP3    H258668   2.586   3.032   1.682 -2.0818  0.9589 -1.0937
12393TIP3   OH258669   4.831   2.312  16.637  0.0854 -0.0249 -0.1655
12393TIP3    H158670   4.763   2.273  16.693  0.9255 -1.4584 -0.0817
12393TIP3    H258671   4.783   2.366  16.575 -1.0330 -0.0205  0.6699
12394TIP3   OH258672   0.962   1.686   4.693  0.3649  0.0934 -0.2592
12394TIP3    H158673   0.894   1.692   4.626  0.3406  1.8467 -0.1331
12394TIP3    H258674   0.917   1.652   4.770  0.2887 -1.4740 -0.9546
12395TIP3   OH258675   4.470   2.286  16.286 -0.6335 -0.3591 -0.0019
12395TIP3    H158676   4.418   2.215  16.323  2.4875 -1.7705  2.0954
12395TIP3    H258677   4.535   2.243  16.231 -0.2276  1.1137 -0.7329
12396TIP3   OH258678   1.783   5.698   4.090 -0.1807 -0.5448  0.1123
12396TIP3    H158679   1.727   5.738   4.155 -0.8690  0.9924 -1.3580
12396TIP3    H258680   1.742   5.613   4.072  0.8951 -1.7165  2.7296
12397TIP3   OH258681   2.333   5.878   4.099  0.2923  0.0461  0.4785
12397TIP3    H158682   2.376   5.964   4.099  2.1837 -0.8367 -0.5014
12397TIP3    H258683   2.399   5.818   4.134 -0.5859 -1.1891  0.0752
12398TIP3   OH258684   4.657   2.652   6.164 -0.0249 -0.1262  0.3318
12398TIP3    H158685   4.735   2.668   6.216 -0.3087  1.0635  0.4219
12398TIP3    H258686   4.682   2.582   6.103  0.8937 -0.2100  0.7977
12399TIP3   OH258687   3.794   4.113   3.808  0.3478 -0.1570  0.3315
12399TIP3    H158688   3.770   4.111   3.715 -0.6501  1.1118  0.5205
12399TIP3    H258689   3.760   4.197   3.839  3.4735  0.9420  1.1131
12400TIP3   OH258690   5.216   2.909  16.852  0.2197  0.2584 -0.0783
12400TIP3    H158691   5.243   2.999  16.870 -0.2877  0.2101  1.0431
12400TIP3    H258692   5.165   2.884  16.929  0.1711 -0.9171 -0.4745
12401TIP3   OH258693   2.067   6.651   2.647  0.2563  0.2242  0.1046
12401TIP3    H158694   1.976   6.640   2.619  0.6711  1.3135 -1.9016
12401TIP3    H258695   2.091   6.566   2.684 -1.3242 -0.3286 -0.0387
12402TIP3   OH258696   3.195   1.785   6.582  0.5294 -0.7077 -0.2848
12402TIP3    H158697   3.234   1.703   6.611  2.8632  0.6067  0.6174
12402TIP3    H258698   3.261   1.823   6.523 -0.6407  0.3830 -0.9493
12403TIP3   OH258699   5.515   5.855  16.009  0.7757  0.3689 -0.0557
12403TIP3    H158700   5.609   5.838  16.013  1.0451  1.8608  1.5846
12403TIP3    H258701   5.507   5.948  16.032 -1.1173  0.2370 -0.0219
12404TIP3   OH258702   6.058   4.301   1.257 -0.2251  0.3895  0.4361
12404TIP3    H158703   6.023   4.330   1.173 -1.5412  0.0978  0.8677
12404TIP3    H258704   5.982   4.269   1.306  0.5571  0.2718  1.6288
12405TIP3   OH258705   5.017   0.839   4.654  0.3925  0.2164  0.3661
12405TIP3    H158706   5.111   0.837   4.671  0.6207  0.8054 -0.7874
12405TIP3    H258707   4.994   0.747   4.641  1.1813  0.2166 -1.2329
12406TIP3   OH258708   3.763   2.925  16.588 -0.2543  0.2748 -0.3565
12406TIP3    H158709   3.689   2.975  16.553  1.3956  0.9192 -3.2044
12406TIP3    H258710   3.727   2.839  16.607 -2.2501  1.2767  0.7942
12407TIP3   OH258711   3.693   4.034   3.522 -0.5946  0.6840 -0.5870
12407TIP3    H158712   3.681   3.945   3.554  2.6794 -0.0998 -1.2267
12407TIP3    H258713   3.604   4.066   3.507 -1.8969 -2.1763  0.3980
12408TIP3   OH258714   6.145   2.873  14.567  0.1215 -0.0229  0.0129
12408TIP3    H158715   6.161   2.915  14.652  1.5279 -1.3324  0.4403
12408TIP3    H258716   6.100   2.791  14.590 -1.3133  0.5463 -0.6894
12409TIP3   OH258717   1.803   1.826  15.308  0.1068  0.2939 -0.2543
12409TIP3    H158718   1.811   1.783  15.393  0.3185 -0.2142 -0.5250
12409TIP3    H258719   1.764   1.911  15.327  0.1852  0.1948  0.3517
12410TIP3   OH258720   4.891   3.851   1.902 -0.0327 -0.2808  0.5157
12410TIP3    H158721   4.802   3.884   1.892  0.4585  0.4563 -2.0946
12410TIP3    H258722   4.947   3.925   1.879  1.2500 -1.0673  1.0029
12411TIP3   OH258723   5.289   1.864  13.707 -0.2775 -0.3602 -0.1785
12411TIP3    H158724   5.226   1.819  13.652 -1.4610  0.3768  0.5359
12411TIP3    H258725   5.343   1.914  13.646 -0.8130 -0.4755 -0.7518
12412TIP3   OH258726   2.407   3.868  14.319  0.2123 -0.3895 -0.0618
12412TIP3    H158727   2.388   3.787  14.271 -0.4669 -0.8778  0.9960
12412TIP3    H258728   2.358   3.860  14.400  2.9500 -0.5319  1.7030
12413TIP3   OH258729   4.417   1.720  14.260  0.3148 -0.6773  0.5200
12413TIP3    H158730   4.361   1.790  14.224  1.1749  0.3025  1.0473
12413TIP3    H258731   4.378   1.639  14.225 -0.2895  0.0883 -0.6782
12414TIP3   OH258732   1.028   2.633  13.481 -0.3699 -0.3779  0.3231
12414TIP3    H158733   0.974   2.633  13.402  0.8392 -1.2888 -0.5257
12414TIP3    H258734   0.995   2.560  13.533 -1.6416  0.6560  1.0345
12415TIP3   OH258735   4.978   6.073   1.402  0.2795 -0.6486 -0.0685
12415TIP3    H158736   4.906   6.129   1.373  0.0874 -0.7660  0.1839
12415TIP3    H258737   4.952   6.043   1.489  0.6149 -0.7229  0.0080
12416TIP3   OH258738   2.422   2.704   0.455 -0.8439  0.4454 -0.5967
12416TIP3    H158739   2.464   2.689   0.540  0.1538  1.1284 -0.9486
12416TIP3    H258740   2.378   2.621   0.435 -1.7877  0.5371  0.9472
12417TIP3   OH258741   1.141   3.415  14.845  0.1925 -0.1712 -0.7275
12417TIP3    H158742   1.123   3.481  14.778  0.4896 -0.0280 -0.6674
12417TIP3    H258743   1.062   3.412  14.898 -0.0321 -0.2557 -1.0593
12418TIP3   OH258744   5.948   6.147  16.146 -0.0701  0.0630  0.1988
12418TIP3    H158745   5.975   6.057  16.166  0.1672  0.1764  0.3845
12418TIP3    H258746   5.878   6.136  16.081 -0.6632 -0.2957  0.8745
12419TIP3   OH258747   6.536   3.136   1.732  0.0512  0.7649  0.0973
12419TIP3    H158748   6.565   3.227   1.733 -1.7622  1.3928 -0.9812
12419TIP3    H258749   6.502   3.122   1.644  0.4537 -1.0310  0.1801
12420TIP3   OH258750   5.587   0.154   5.959  0.2122 -0.0607 -0.2248
12420TIP3    H158751   5.540   0.234   5.982 -0.5152 -0.9735  1.7354
12420TIP3    H258752   5.659   0.149   6.021  0.7297 -0.5178 -0.8497
12421TIP3   OH258753   3.098   6.514  15.038  0.3854 -0.7913 -0.5451
12421TIP3    H158754   3.093   6.435  14.985  0.5143 -1.5881  0.5953
12421TIP3    H258755   3.023   6.567  15.009  1.3802 -0.4286 -2.6695
12422TIP3   OH258756   0.790   1.192   2.452  0.2481 -0.0801 -0.6503
12422TIP3    H158757   0.882   1.174   2.475 -0.0317 -0.6992  0.0500
12422TIP3    H258758   0.770   1.274   2.496 -0.3036 -1.2920  1.5238
12423TIP3   OH258759   2.091   2.285   3.920  0.0449 -0.3552 -0.1134
12423TIP3    H158760   2.176   2.323   3.941 -0.4178 -0.6375  2.7250
12423TIP3    H258761   2.032   2.321   3.986 -2.1773  0.0951 -2.1886
12424TIP3   OH258762   4.252   3.175   0.273  0.0865  0.0930 -0.2140
12424TIP3    H158763   4.270   3.193   0.365  2.2918 -0.9922 -0.3604
12424TIP3    H258764   4.251   3.080   0.267 -0.6094  0.1510 -1.2346
12425TIP3   OH258765   4.472   3.909   0.359 -0.1172  0.4132 -0.1042
12425TIP3    H158766   4.470   3.872   0.448  0.2207  0.3750 -0.1118
12425TIP3    H258767   4.421   3.848   0.307  0.0295  0.2146 -0.0178
12426TIP3   OH258768   6.001   0.624  14.552 -0.0758 -0.1235  1.1464
12426TIP3    H158769   6.003   0.555  14.618  1.1064 -1.9965 -0.7083
12426TIP3    H258770   6.084   0.615  14.505 -1.5792 -0.0830 -1.7262
12427TIP3   OH258771   0.324   0.869   3.587  0.1045 -0.4162 -0.4271
12427TIP3    H158772   0.256   0.913   3.639 -1.4776 -0.8618 -2.0358
12427TIP3    H258773   0.387   0.838   3.652 -0.5965  1.0702  1.0279
12428TIP3   OH258774   3.167   4.957  13.851  0.1209  0.2209 -0.2849
12428TIP3    H158775   3.126   5.036  13.886 -0.9938 -0.7241  0.6457
12428TIP3    H258776   3.221   4.924  13.923 -0.2277 -0.4049 -0.3033
12429TIP3   OH258777   1.641   4.450  15.222  0.8121 -0.1540  0.8080
12429TIP3    H158778   1.570   4.503  15.261  1.1941  0.6564  0.4315
12429TIP3    H258779   1.608   4.360  15.225 -1.0551  0.3932 -1.1041
12430TIP3   OH258780   0.437   1.845   4.773 -0.1982 -0.4313  0.5742
12430TIP3    H158781   0.366   1.864   4.834  1.1657  2.6433  1.4129
12430TIP3    H258782   0.500   1.795   4.824 -0.9373 -1.6716  0.3242
12431TIP3   OH258783   3.843   3.431  14.723 -0.7377  0.1633 -0.5640
12431TIP3    H158784   3.790   3.438  14.802 -2.6706 -1.9796 -1.5108
12431TIP3    H258785   3.873   3.520  14.705 -0.4506  0.7378  2.3818
12432TIP3   OH258786   4.262   4.948  16.091 -0.0028 -0.6740  0.2390
12432TIP3    H158787   4.310   5.031  16.099  0.3604 -0.7870 -0.7227
12432TIP3    H258788   4.241   4.925  16.182  0.7813 -0.0539  0.5958
12433TIP3   OH258789   1.592   0.658   1.451  0.5037 -0.5354 -0.0495
12433TIP3    H158790   1.671   0.605   1.465  1.4742  0.9762  0.5969
12433TIP3    H258791   1.542   0.648   1.532  1.3806  0.5986  0.6650
12434TIP3   OH258792   5.326   3.340   5.995 -0.0322 -0.1468 -0.7368
12434TIP3    H158793   5.306   3.251   6.025  0.1084  0.5513  1.6407
12434TIP3    H258794   5.240   3.379   5.978 -0.0612 -1.2319 -3.6613
12435TIP3   OH258795   4.035   5.234   5.265 -0.4090 -0.6507 -0.4084
12435TIP3    H158796   4.011   5.198   5.351 -1.7807 -0.3620 -0.6449
12435TIP3    H258797   4.129   5.220   5.259 -0.0827  0.3156  1.6114
12436TIP3   OH258798   0.473   6.509   4.578 -0.3960  0.1032  0.0843
12436TIP3    H158799   0.551   6.479   4.533 -2.0604 -1.7545 -1.7407
12436TIP3    H258800   0.494   6.599   4.605  1.7588  0.2336 -1.7659
12437TIP3   OH258801   4.376   4.724  12.809 -0.1814 -0.4250 -0.0725
12437TIP3    H158802   4.359   4.793  12.745  0.3125 -1.4847 -1.4005
12437TIP3    H258803   4.299   4.724  12.866 -0.2621  1.0855 -0.1337
12438TIP3   OH258804   4.212   1.017  11.379 -0.2343 -0.4987  0.3801
12438TIP3    H158805   4.304   1.023  11.406 -0.0547 -1.9128  0.1324
12438TIP3    H258806   4.163   1.025  11.460  0.2310 -2.5495  0.9260
12439TIP3   OH258807   1.812   2.148  12.226 -0.1585  0.1790  0.2814
12439TIP3    H158808   1.848   2.080  12.169  0.9254  0.6205  0.4063
12439TIP3    H258809   1.873   2.221  12.216 -0.2446  0.4517  1.6042
12440TIP3   OH258810   2.327   0.644  13.932  0.3352 -0.1091  0.7582
12440TIP3    H158811   2.258   0.585  13.903  0.6629  0.2883 -0.9673
12440TIP3    H258812   2.396   0.635  13.866  0.0914  2.6946 -0.0222
12441TIP3   OH258813   3.004   1.499  11.747  0.0189 -0.1418 -0.5077
12441TIP3    H158814   3.084   1.447  11.750  0.7232  0.9541  0.7395
12441TIP3    H258815   2.939   1.445  11.792 -0.1954 -1.3344 -2.1098
12442TIP3   OH258816   3.570   1.369  15.127  0.4129 -0.2799 -0.0975
12442TIP3    H158817   3.557   1.294  15.186 -0.7760 -0.0526 -0.0483
12442TIP3    H258818   3.488   1.419  15.134  0.6463  0.2744 -1.1977
12443TIP3   OH258819   2.975   0.506   4.866  0.0732  0.9034 -0.3171
12443TIP3    H158820   3.003   0.521   4.956  3.0844 -1.8525 -0.6337
12443TIP3    H258821   2.943   0.592   4.836  3.4614  3.1564  1.8655
12444TIP3   OH258822   3.256   0.427   4.880  0.4158  0.2711  0.4280
12444TIP3    H158823   3.170   0.458   4.853  0.1831 -0.0843  0.7448
12444TIP3    H258824   3.238   0.345   4.927  0.9283  0.1741  0.4592
12445TIP3   OH258825   1.686   4.509  15.547 -0.3643  0.5357 -0.0157
12445TIP3    H158826   1.701   4.600  15.574  0.1085 -0.0493  1.8327
12445TIP3    H258827   1.722   4.504  15.459 -1.9502  2.5621 -0.8672
12446TIP3   OH258828   3.276   1.089   4.337  0.1486  0.4084 -0.0661
12446TIP3    H158829   3.320   1.092   4.252 -0.6243 -0.3839 -0.5082
12446TIP3    H258830   3.307   1.168   4.382 -0.4051  1.5632 -1.5822
12447TIP3   OH258831   3.062   0.851  11.234  0.0416  0.0545  0.1606
12447TIP3    H158832   2.984   0.794  11.233 -0.4158  0.6803 -0.2317
12447TIP3    H258833   3.101   0.839  11.148 -0.0035  0.2638  0.1116
12448TIP3   OH258834   6.030   5.403  13.287 -0.1125  0.4283  0.4485
12448TIP3    H158835   5.935   5.418  13.295 -0.0911  2.2041 -1.7331
12448TIP3    H258836   6.068   5.490  13.300  1.0192  0.1917 -1.1513
12449TIP3   OH258837   2.433   2.659   2.393  0.1696 -0.7631 -0.3080
12449TIP3    H158838   2.340   2.639   2.384 -0.4149  2.0601 -1.9305
12449TIP3    H258839   2.436   2.727   2.461  1.5070 -3.0341  2.0542
12450TIP3   OH258840   3.193   2.489   6.133  0.3794  0.6247 -0.3550
12450TIP3    H158841   3.125   2.520   6.073  0.8269 -0.0183 -1.2231
12450TIP3    H258842   3.147   2.428   6.191  0.0076  0.9926 -0.2571
12451TIP3   OH258843   2.837   0.184   0.082  0.5609 -0.5473  0.1355
12451TIP3    H158844   2.929   0.209   0.087  0.6297 -0.7130 -0.2797
12451TIP3    H258845   2.800   0.241   0.015 -0.4041  1.8043  2.4649
12452TIP3   OH258846   2.142   5.146   0.372  0.5032  0.1767 -0.2184
12452TIP3    H158847   2.150   5.169   0.279  1.7387  0.6620 -0.0069
12452TIP3    H258848   2.052   5.113   0.380 -0.1733  1.6461 -1.2502
12453TIP3   OH258849   3.896   3.653  11.270 -0.1306  0.1014  0.2447
12453TIP3    H158850   3.916   3.714  11.199 -1.2189 -0.5830 -0.6814
12453TIP3    H258851   3.979   3.608  11.287  1.1793  2.9249  2.1159
12454TIP3   OH258852   5.210   2.960  15.607 -0.1399  0.1126 -0.3391
12454TIP3    H158853   5.191   2.964  15.701 -0.3732  0.8764 -0.4117
12454TIP3    H258854   5.217   2.866  15.588 -1.1577 -0.1021  0.2333
12455TIP3   OH258855   5.388   0.736   0.754  0.3047 -0.1307  0.1292
12455TIP3    H158856   5.382   0.643   0.730  3.3682 -0.3398 -0.3065
12455TIP3    H258857   5.398   0.736   0.849 -0.5410 -0.1494  0.2274
12456TIP3   OH258858   4.196   6.052  17.061 -0.0652 -0.0734  0.0188
12456TIP3    H158859   4.250   6.000  17.121  0.4085  1.1692  0.7110
12456TIP3    H258860   4.154   6.117  17.116 -0.7226  0.2310 -0.8150
12457TIP3   OH258861   0.108   4.285  11.131  0.2390  0.1493 -0.3286
12457TIP3    H158862   0.126   4.335  11.051  1.0207  1.2389  0.5023
12457TIP3    H258863   0.194   4.250  11.157 -0.5634 -3.6698 -2.1355
12458TIP3   OH258864   4.163   4.123   3.932 -0.9672 -0.1092 -0.4885
12458TIP3    H158865   4.249   4.082   3.945 -1.3900 -0.9313 -0.2365
12458TIP3    H258866   4.171   4.168   3.847 -0.4180 -0.5069 -0.6552
12459TIP3   OH258867   2.154   0.026   1.137  0.3492 -0.3828 -0.2337
12459TIP3    H158868   2.228   0.071   1.179  1.6173 -0.4368 -2.2602
12459TIP3    H258869   2.117  -0.028   1.206  0.5739  1.5896  1.5203
12460TIP3   OH258870   1.107   0.150  13.311 -0.2019  0.0475 -0.3621
12460TIP3    H158871   1.081   0.076  13.364 -1.4916  1.9926  1.8873
12460TIP3    H258872   1.197   0.130  13.284 -0.2378 -1.9462  0.8339
12461TIP3   OH258873   6.498   5.712   5.350  0.4091  0.1193  0.2258
12461TIP3    H158874   6.510   5.632   5.402 -1.2487 -0.0284  0.4399
12461TIP3    H258875   6.499   5.683   5.259  0.2785 -0.0766  0.2876
12462TIP3   OH258876   6.301   2.687   1.234  0.3681  0.0010  0.5496
12462TIP3    H158877   6.210   2.682   1.263  0.5329 -0.0239  1.0702
12462TIP3    H258878   6.345   2.735   1.304  0.6640  0.4113  0.0835
12463TIP3   OH258879   6.221   5.078  16.987  0.1382 -0.0031  0.5086
12463TIP3    H158880   6.207   5.009  16.922  1.7540  0.4061 -0.3373
12463TIP3    H258881   6.154   5.143  16.968 -0.6044 -0.7494  0.5044
12464TIP3   OH258882   5.187   3.093   3.264  0.1501  0.1538 -0.2527
12464TIP3    H158883   5.189   2.999   3.247  1.0700 -0.0901  1.0232
12464TIP3    H258884   5.096   3.119   3.249 -0.6911 -1.4212  1.7157
12465TIP3   OH258885   5.329   4.414   0.983  0.4506 -0.2821  0.0945
12465TIP3    H158886   5.396   4.448   1.043 -0.2027 -2.0523  1.9223
12465TIP3    H258887   5.364   4.331   0.952 -0.9923 -1.4317  1.3889
12466TIP3   OH258888   2.822   3.122  13.029  0.4015  0.7380  0.0166
12466TIP3    H158889   2.814   3.157  13.117  1.5051 -0.6247  0.7040
12466TIP3    H258890   2.742   3.071  13.016  0.1329  1.1272  0.1381
12467TIP3   OH258891   1.554   3.085  14.551 -0.7488 -0.3935  0.1486
12467TIP3    H158892   1.547   3.019  14.620  1.5723 -2.6595 -1.5791
12467TIP3    H258893   1.598   3.159  14.593  2.2143 -2.3792  0.8099
12468TIP3   OH258894   6.495   5.109  15.694  0.1713  0.2563  0.1700
12468TIP3    H158895   6.470   5.017  15.687  0.0903  0.3028 -0.1477
12468TIP3    H258896   6.469   5.147  15.610 -1.9533  1.1021  1.1475
12469TIP3   OH258897   4.859   4.674   4.776  0.5676 -0.8901  0.2001
12469TIP3    H158898   4.859   4.769   4.784 -1.4931 -0.8567  0.4596
12469TIP3    H258899   4.812   4.643   4.854  0.9046 -2.0977 -0.0548
12470TIP3   OH258900   2.802   5.403  14.317 -0.0124 -0.1682 -0.2279
12470TIP3    H158901   2.752   5.473  14.358 -1.3450 -2.0636  1.6307
12470TIP3    H258902   2.892   5.417  14.346 -0.6234 -0.3856  1.9557
12471TIP3   OH258903   0.725   2.386   3.279  0.3466  0.3258 -0.7482
12471TIP3    H158904   0.775   2.415   3.355  0.6243 -1.2653 -0.2901
12471TIP3    H258905   0.789   2.339   3.225 -0.5828 -1.7880 -0.1326
12472TIP3   OH258906   5.281   3.537  11.365 -0.0159  0.5462  0.0394
12472TIP3    H158907   5.246   3.550  11.453 -0.8934  3.4015 -0.6286
12472TIP3    H258908   5.351   3.602  11.357 -0.1278  0.5149 -1.4566
12473TIP3   OH258909   5.761   5.147   5.130 -0.2653 -0.1902 -0.5759
12473TIP3    H158910   5.804   5.095   5.062 -0.3741 -0.4071 -0.4808
12473TIP3    H258911   5.781   5.238   5.107 -0.0447 -0.2749 -0.7243
12474TIP3   OH258912   3.001   3.470   6.377 -0.1292  0.3047  0.5468
12474TIP3    H158913   2.973   3.509   6.295  1.2285  1.5336  0.6290
12474TIP3    H258914   3.052   3.393   6.352 -0.1075  0.4120  0.2683
12475TIP3   OH258915   5.274   0.829   6.399  0.3654 -0.1984 -0.4718
12475TIP3    H158916   5.181   0.850   6.403  0.5649  1.0815 -1.8444
12475TIP3    H258917   5.287   0.765   6.469 -1.5248 -0.3661 -0.2283
12476TIP3   OH258918   1.912   2.723   1.927  0.3823 -0.3467  0.0902
12476TIP3    H158919   1.892   2.816   1.939  0.1844 -0.0768 -1.9726
12476TIP3    H258920   1.970   2.702   2.000 -2.3987  0.4147  2.7801
12477TIP3   OH258921   1.871   6.234  16.149  0.0024  0.0603  0.3907
12477TIP3    H158922   1.837   6.229  16.239  0.2507 -0.4283  0.4614
12477TIP3    H258923   1.793   6.248  16.096 -0.2256 -0.2516  0.6297
12478TIP3   OH258924   2.618   3.386  14.764 -0.1874  0.5285  0.8099
12478TIP3    H158925   2.613   3.370  14.858 -1.7484  1.8521  0.9970
12478TIP3    H258926   2.554   3.327  14.726  1.8615 -1.4914  0.2979
12479TIP3   OH258927   6.593   2.981   2.597  0.3886  0.3410  0.5262
12479TIP3    H158928   6.580   3.000   2.690 -0.5320  0.4907  0.3744
12479TIP3    H258929   6.562   3.059   2.552  1.4388  0.5292  0.1132
12480TIP3   OH258930   4.109   0.563  12.149 -0.0660 -0.0535 -0.2253
12480TIP3    H158931   4.142   0.481  12.113 -0.9214 -0.3272 -0.4030
12480TIP3    H258932   4.143   0.631  12.091 -1.8126 -0.5186 -1.8674
12481TIP3   OH258933   5.969   4.522   4.535 -0.1352  0.0494 -0.6906
12481TIP3    H158934   6.015   4.591   4.488  0.3790  0.3971  0.3176
12481TIP3    H258935   5.998   4.529   4.626 -3.3541  1.3592  0.4022
12482TIP3   OH258936   4.382   4.948   3.758 -0.4622 -0.6342 -0.3519
12482TIP3    H158937   4.319   4.883   3.729 -0.6226 -0.5114 -0.2778
12482TIP3    H258938   4.421   4.910   3.837 -0.1492 -0.8909 -0.6297
12483TIP3   OH258939   1.872   1.768  12.387  0.0213 -0.1154 -0.7265
12483TIP3    H158940   1.869   1.850  12.437 -0.9231  1.0158 -2.5076
12483TIP3    H258941   1.945   1.779  12.327 -0.6414 -0.1773 -1.5670
12484TIP3   OH258942   2.186   3.226   2.058 -0.7434  0.3470 -0.2793
12484TIP3    H158943   2.186   3.215   1.963  0.4868 -1.9669 -0.0898
12484TIP3    H258944   2.278   3.241   2.081 -1.3324  3.6411  0.3767
12485TIP3   OH258945   1.036   3.895   0.594 -0.5568  0.0746  0.1139
12485TIP3    H158946   1.026   3.970   0.652 -0.3186 -0.6922  1.1746
12485TIP3    H258947   1.045   3.933   0.507  2.0536  1.4685  0.8680
12486TIP3   OH258948   3.280   1.816   6.304 -0.4308 -0.4646  0.9743
12486TIP3    H158949   3.292   1.782   6.215 -1.1078 -2.9154  1.7411
12486TIP3    H258950   3.204   1.874   6.298 -0.0837 -0.0979 -0.1355
12487TIP3   OH258951   0.060   6.504  13.727  0.8502  0.4490 -0.0896
12487TIP3    H158952   0.044   6.555  13.649 -0.1501  1.8265  0.9668
12487TIP3    H258953  -0.007   6.435  13.725  0.2678  1.0083 -0.0116
12488TIP3   OH258954   5.675   6.562   5.198  0.1370  0.0775 -0.2718
12488TIP3    H158955   5.590   6.579   5.157  0.5917 -2.2596 -2.4102
12488TIP3    H258956   5.723   6.644   5.186 -1.9470  1.7015  1.6282
12489TIP3   OH258957   1.852   1.772   2.314 -0.1412  0.2326  0.0609
12489TIP3    H158958   1.770   1.736   2.281 -1.2383  1.4207  1.3607
12489TIP3    H258959   1.920   1.727   2.263 -1.5079 -1.8545 -0.0451
12490TIP3   OH258960   3.962   5.301   4.106 -0.1283 -0.3933  0.0635
12490TIP3    H158961   3.990   5.377   4.156 -1.0631 -0.0786  0.1408
12490TIP3    H258962   3.905   5.253   4.167  0.0741 -0.9043 -0.1457
12491TIP3   OH258963   0.822   5.012  12.282 -0.0364 -0.4185  0.1279
12491TIP3    H158964   0.743   4.971  12.317  0.2925 -0.9384  0.2750
12491TIP3    H258965   0.894   4.960  12.319  0.3750  0.0927  0.0557
12492TIP3   OH258966   0.814   0.332   4.661 -0.1265 -0.3306  0.3938
12492TIP3    H158967   0.847   0.328   4.571  1.2549 -0.4817  0.8834
12492TIP3    H258968   0.809   0.241   4.688  2.2025 -0.2476  1.3814
12493TIP3   OH258969   5.875   6.042  12.040 -0.4253  0.1607 -0.0727
12493TIP3    H158970   5.932   6.070  12.113  0.8659 -1.2708 -0.4876
12493TIP3    H258971   5.868   6.120  11.985 -0.9002  1.0798  1.2316
12494TIP3   OH258972   0.246   0.088  13.669 -0.4560 -0.1379  0.4729
12494TIP3    H158973   0.204   0.015  13.712 -0.6525  0.1261  0.7312
12494TIP3    H258974   0.312   0.119  13.732 -1.4203  0.8827  1.0247
12495TIP3   OH258975   6.457   1.020   5.219  0.3978  0.1032  0.3508
12495TIP3    H158976   6.375   1.038   5.266  0.2846 -2.2425  1.1957
12495TIP3    H258977   6.517   0.989   5.287  0.6845 -2.0643 -0.8097
12496TIP3   OH258978   6.229   6.079  15.234 -0.0085  0.2249 -0.7787
12496TIP3    H158979   6.218   6.123  15.150  1.4928  1.2995 -0.4656
12496TIP3    H258980   6.244   5.988  15.212  3.1727  0.9132 -1.9605
12497TIP3   OH258981   4.113   1.561  15.371  0.1018 -0.2139 -0.6407
12497TIP3    H158982   4.095   1.655  15.372 -0.6613 -0.3530  0.4626
12497TIP3    H258983   4.034   1.522  15.334 -2.0784 -0.7964  3.8911
12498TIP3   OH258984   4.583   0.134  14.923 -0.8499  0.0504  0.4053
12498TIP3    H158985   4.547   0.222  14.932 -2.6357 -0.5419 -0.6121
12498TIP3    H258986   4.644   0.141  14.849 -0.1529  0.6419  1.0093
12499TIP3   OH258987   6.151   0.050   2.076 -0.6424  0.1971 -0.7442
12499TIP3    H158988   6.146   0.136   2.117 -0.6326 -0.8752  1.6686
12499TIP3    H258989   6.097  -0.006   2.131  1.9490 -2.0350 -0.2739
12500TIP3   OH258990   5.486   6.507   5.877  0.1140 -0.2583  0.0873
12500TIP3    H158991   5.429   6.431   5.886  0.7604 -0.6219  1.3455
12500TIP3    H258992   5.553   6.479   5.814 -1.0562  0.1738 -1.3952
12501TIP3   OH258993   2.849   1.519  11.366 -0.0616 -0.4413 -0.1271
12501TIP3    H158994   2.813   1.546  11.282  0.7236  3.0400  0.4993
12501TIP3    H258995   2.943   1.506  11.350 -0.0276 -0.4281  0.0504
12502TIP3   OH258996   5.274   2.285  13.622 -0.1998  0.4659  0.0244
12502TIP3    H158997   5.194   2.327  13.589  0.0698  0.6287 -0.4315
12502TIP3    H258998   5.339   2.299  13.553 -0.7388 -2.8208 -1.3738
12503TIP3   OH258999   1.872   5.426  16.570  0.2314 -0.0043 -0.1499
12503TIP3    H159000   1.867   5.510  16.523 -1.5719  0.3654  0.5902
12503TIP3    H259001   1.855   5.449  16.661  0.4946 -1.0864  0.1851
12504TIP3   OH259002   2.351   3.588  16.008 -0.9937  0.5639 -0.0088
12504TIP3    H159003   2.277   3.648  16.001 -2.8507 -1.6225 -0.6031
12504TIP3    H259004   2.319   3.516  16.063  0.5732 -0.6214 -0.5454
12505TIP3   OH259005   2.301   6.335   3.000 -0.1596 -0.3351 -0.5003
12505TIP3    H159006   2.295   6.428   2.978  0.7924 -0.7581 -2.8628
12505TIP3    H259007   2.227   6.319   3.058 -1.9972  1.3682 -2.2272
12506TIP3   OH259008   0.560   0.941   2.969 -0.0843  0.2439 -0.0471
12506TIP3    H159009   0.495   0.967   3.035  0.3141 -1.3630  1.0530
12506TIP3    H259010   0.611   1.020   2.952  0.7207  0.4311  2.6870
12507TIP3   OH259011   0.726   5.823   3.517 -0.3395 -0.1645 -0.5507
12507TIP3    H159012   0.791   5.857   3.456 -1.4154  0.1354 -1.5596
12507TIP3    H259013   0.754   5.855   3.603  0.9506 -0.2324 -0.9337
12508TIP3   OH259014   1.880   2.428   2.266 -0.4487 -0.3167 -0.4695
12508TIP3    H159015   1.824   2.478   2.208 -1.3248  0.2638  0.8346
12508TIP3    H259016   1.841   2.438   2.353  0.0917 -2.1991  0.0393
12509TIP3   OH259017   3.605   4.477   5.648 -0.5316  0.7239 -0.2542
12509TIP3    H159018   3.639   4.445   5.564 -0.2509 -2.0904  0.8335
12509TIP3    H259019   3.510   4.462   5.642 -0.3842 -0.6176  0.3093
12510TIP3   OH259020   5.478   2.168  16.605 -0.0150 -0.3212  0.3767
12510TIP3    H159021   5.466   2.075  16.587  0.9390 -0.5675  0.9182
12510TIP3    H259022   5.398   2.194  16.651 -1.6055 -0.1455 -2.3080
12511TIP3   OH259023   5.605   3.522   3.908  0.5802 -0.0510 -0.1149
12511TIP3    H159024   5.692   3.511   3.947 -0.6168 -0.6723  2.6491
12511TIP3    H259025   5.562   3.587   3.964 -1.0193 -0.4485 -0.8287
12512TIP3   OH259026   6.582   3.574  13.598 -0.2337  0.7402  0.0997
12512TIP3    H159027   6.655   3.519  13.571 -0.1710  0.3687  1.0129
12512TIP3    H259028   6.554   3.538  13.682 -1.0873  1.2432  0.0435
12513TIP3   OH259029   1.539   3.968   1.985 -0.3503  0.5765 -0.3698
12513TIP3    H159030   1.460   4.019   1.970 -0.5353  0.1252 -0.9636
12513TIP3    H259031   1.601   4.001   1.920 -0.8466 -0.7319 -1.5667
12514TIP3   OH259032   3.543   4.200   3.278  0.3612  0.0925  0.3542
12514TIP3    H159033   3.453   4.173   3.261  0.2268  0.4354  0.5186
12514TIP3    H259034   3.545   4.222   3.371  0.4086  0.8898  0.1682
12515TIP3   OH259035   2.703   4.992  14.562  0.6996  0.3408 -0.3138
12515TIP3    H159036   2.641   4.956  14.498 -0.7841  3.0547 -0.5639
12515TIP3    H259037   2.784   5.004  14.512  0.6262 -0.7160 -0.7206
12516TIP3   OH259038   2.224   6.025  17.116  0.0236  0.4676  0.0596
12516TIP3    H159039   2.166   6.092  17.080 -2.0247  0.6201  3.2191
12516TIP3    H259040   2.250   6.060  17.201 -0.0262 -2.1205  1.2207
12517TIP3   OH259041   6.281   4.713   1.373 -0.2414 -0.7291 -0.5082
12517TIP3    H159042   6.230   4.708   1.453 -0.6192  0.4426 -0.6520
12517TIP3    H259043   6.286   4.623   1.341  0.1390 -1.2482  0.9538
12518TIP3   OH259044   5.275   4.754  16.511 -0.5114 -0.0513 -0.8803
12518TIP3    H159045   5.234   4.760  16.425 -1.2663 -0.9077 -0.6037
12518TIP3    H259046   5.202   4.733  16.570 -0.0104  0.5659 -0.0248
12519TIP3   OH259047   2.533   6.569  16.420  0.5420  0.1949 -0.0923
12519TIP3    H159048   2.555   6.492  16.367 -1.2561 -0.3303 -0.1529
12519TIP3    H259049   2.559   6.644  16.366  2.5629 -0.3317  0.0771
12520TIP3   OH259050   1.272   1.566  16.187  0.7007  0.6675  0.2354
12520TIP3    H159051   1.297   1.486  16.233 -0.2129  0.7604  0.9300
12520TIP3    H259052   1.252   1.629  16.257 -0.7436  0.8071 -0.2726
12521TIP3   OH259053   6.319   6.297   0.803  0.3969  0.3079 -0.3358
12521TIP3    H159054   6.261   6.326   0.874  0.4983 -1.3620  0.4684
12521TIP3    H259055   6.366   6.222   0.840  1.9987  0.6932 -1.4715
12522TIP3   OH259056   5.742   4.705   0.765 -0.1752  0.3207 -0.5412
12522TIP3    H159057   5.761   4.755   0.845  1.1558 -0.0793 -0.5715
12522TIP3    H259058   5.715   4.619   0.796 -1.9453  0.8483 -0.5014
12523TIP3   OH259059   6.211   6.077  14.287 -0.3605 -0.2123 -0.0235
12523TIP3    H159060   6.139   6.021  14.317  0.1512 -0.8831 -0.0087
12523TIP3    H259061   6.211   6.067  14.192  0.5378 -1.2808  0.0669
12524TIP3   OH259062   4.455   0.825  11.487 -0.4877 -0.0071  0.9521
12524TIP3    H159063   4.486   0.802  11.574  1.3402  1.5979  0.7724
12524TIP3    H259064   4.467   0.919  11.480  2.6502 -0.3955 -2.1452
12525TIP3   OH259065   2.031   1.075  14.137 -0.0473 -0.2327 -0.0892
12525TIP3    H159066   2.073   1.079  14.051 -0.1924  2.2429 -0.1071
12525TIP3    H259067   2.102   1.089  14.200  0.1218 -2.3997  0.2886
12526TIP3   OH259068   1.025   4.379  13.497 -0.0190 -0.2574 -0.4178
12526TIP3    H159069   1.047   4.406  13.408  3.3138 -1.4145 -0.1038
12526TIP3    H259070   1.025   4.283  13.494 -1.1666 -0.3143  0.5786
12527TIP3   OH259071   5.875   1.159   2.191 -0.3137 -0.1738 -0.3352
12527TIP3    H159072   5.937   1.200   2.132  0.6480  1.0676  1.4459
12527TIP3    H259073   5.800   1.218   2.193 -0.9580 -0.9210 -1.3350
12528TIP3   OH259074   3.735   6.364  13.926 -0.7645 -0.1673 -0.6063
12528TIP3    H159075   3.791   6.306  13.977 -1.5611  0.5686  1.1926
12528TIP3    H259076   3.694   6.307  13.860 -1.0791 -1.5378  0.7239
12529TIP3   OH259077   4.746   0.043   2.344 -0.4453  0.3292  0.4751
12529TIP3    H159078   4.791   0.111   2.393  0.4258  0.7074 -0.8083
12529TIP3    H259079   4.707  -0.013   2.411 -0.8581  1.8555  1.5605
12530TIP3   OH259080   5.577   0.098  11.540  1.3528 -0.2505  0.6634
12530TIP3    H159081   5.534   0.165  11.593  3.9717  0.6166  1.8978
12530TIP3    H259082   5.563   0.125  11.450 -1.8016 -0.8402  0.8755
12531TIP3   OH259083   1.895   3.605   2.975  1.2179  0.4451 -0.1324
12531TIP3    H159084   1.959   3.655   3.025  0.9453  1.1809 -0.5121
12531TIP3    H259085   1.900   3.641   2.887  2.3201 -1.4116 -0.8993
12532TIP3   OH259086   5.647   4.302  14.790  0.0120  0.4455 -0.6061
12532TIP3    H159087   5.654   4.207  14.794  0.5169  0.5114  0.5606
12532TIP3    H259088   5.732   4.331  14.757 -0.5150  0.4510 -2.0061
12533TIP3   OH259089   5.196   1.742   6.749  0.0725 -0.0505  0.1521
12533TIP3    H159090   5.259   1.672   6.763  0.9084  0.8225  0.8561
12533TIP3    H259091   5.112   1.697   6.740  0.4344 -1.0796  1.6060
12534TIP3   OH259092   4.942   1.080  10.582  0.1097 -0.0887 -0.0025
12534TIP3    H159093   4.930   1.175  10.581 -1.0515 -0.1978  1.1717
12534TIP3    H259094   5.037   1.068  10.595  0.0409  0.9393  1.7268
12535TIP3   OH259095   0.933   3.131   0.029  0.1047 -0.0039  0.4236
12535TIP3    H159096   0.935   3.157  -0.063  0.1826  1.6435  0.8635
12535TIP3    H259097   0.964   3.208   0.077 -1.2756 -0.3252  1.9221
12536TIP3   OH259098   1.778   0.293   1.359  0.0284 -0.5412  0.4004
12536TIP3    H159099   1.784   0.360   1.427 -2.2880  0.7945 -0.6117
12536TIP3    H259100   1.826   0.330   1.285 -3.3969  1.4065 -1.0866
12537TIP3   OH259101   2.077   2.265   1.533  0.2775 -0.1380 -0.0599
12537TIP3    H159102   2.078   2.351   1.490  0.6638 -0.2382 -0.2616
12537TIP3    H259103   2.030   2.208   1.471  0.6970 -0.2463 -0.2838
12538TIP3   OH259104   6.363   2.845   2.688 -0.5449 -0.2386  0.4553
12538TIP3    H159105   6.402   2.923   2.728  0.3256 -0.1375 -0.5569
12538TIP3    H259106   6.390   2.773   2.744  1.0438 -0.1565 -0.1672
12539TIP3   OH259107   2.719   6.435   4.820 -0.5498 -0.0641 -0.8275
12539TIP3    H159108   2.628   6.439   4.789 -0.7554 -0.6986 -0.3512
12539TIP3    H259109   2.720   6.492   4.897 -0.2571  0.8291 -1.4858
12540TIP3   OH259110   0.795   6.804   2.620 -0.2714  0.0086 -0.3696
12540TIP3    H159111   0.829   6.811   2.531  0.1533 -0.7495 -0.2825
12540TIP3    H259112   0.730   6.874   2.628  0.2439  0.5690 -1.0188
12541TIP3   OH259113   1.817   2.218   1.111  0.4383  0.2405  0.1463
12541TIP3    H159114   1.771   2.149   1.160 -0.1772  1.1846  0.9359
12541TIP3    H259115   1.887   2.172   1.065 -0.2193 -0.9764  0.3164
12542TIP3   OH259116   6.188   1.665   5.131 -0.3491 -0.3326  0.3319
12542TIP3    H159117   6.224   1.659   5.219  0.1603 -0.7838  0.0928
12542TIP3    H259118   6.229   1.593   5.082 -0.0316  0.3767 -0.4835
12543TIP3   OH259119   0.684   5.380  14.929  0.5883  0.1653 -0.0260
12543TIP3    H159120   0.708   5.470  14.950  1.2281 -0.0821  0.3388
12543TIP3    H259121   0.699   5.332  15.011 -0.7251 -0.0929  0.0913
12544TIP3   OH259122   5.460   4.264   0.770 -0.4019 -0.3279  0.3797
12544TIP3    H159123   5.408   4.323   0.714  1.3785  1.3475  0.3846
12544TIP3    H259124   5.542   4.312   0.785  0.3000 -1.9638  2.1105
12545TIP3   OH259125   3.629   4.281  10.687  0.2778 -0.1309 -0.2740
12545TIP3    H159126   3.552   4.227  10.673  0.2026 -0.0246 -0.2736
12545TIP3    H259127   3.698   4.219  10.711  0.3968 -0.3155 -1.0510
12546TIP3   OH259128   6.473   0.944  14.292  0.4847 -0.3638 -0.1052
12546TIP3    H159129   6.522   0.891  14.354 -0.5190  1.0994  2.0734
12546TIP3    H259130   6.381   0.920  14.306  0.1863  0.4623 -0.5404
12547TIP3   OH259131   5.120   0.928  16.305  0.4635 -0.5575 -0.3007
12547TIP3    H159132   5.027   0.952  16.301  0.1022 -1.8507 -0.3450
12547TIP3    H259133   5.141   0.902  16.215  1.0917  0.4620 -0.4588
12548TIP3   OH259134   2.832   2.028   2.809 -0.4523 -0.3431  0.0205
12548TIP3    H159135   2.833   1.952   2.751  2.2076 -0.1504 -0.3047
12548TIP3    H259136   2.756   2.079   2.780 -1.1717 -1.9271 -1.0076
12549TIP3   OH259137   1.457   5.382   2.022  0.1916 -0.0540  0.0665
12549TIP3    H159138   1.469   5.428   1.939 -0.0728 -1.9758 -1.0940
12549TIP3    H259139   1.540   5.334   2.035 -0.2510 -0.7932  0.2256
12550TIP3   OH259140   1.892   2.185   2.076  0.3418  0.1146 -0.7609
12550TIP3    H159141   1.801   2.214   2.084 -0.7608 -3.0233 -0.3891
12550TIP3    H259142   1.911   2.143   2.160  2.3261  1.0971 -0.6675
12551TIP3   OH259143   4.055   0.389  12.912 -0.4209 -0.3416  0.0180
12551TIP3    H159144   4.112   0.386  12.835 -0.6492 -5.0139 -0.2597
12551TIP3    H259145   3.967   0.387  12.876 -0.5685 -0.6771  0.3943
12552TIP3   OH259146   6.005   6.042   1.248  0.2763  0.5858 -0.2630
12552TIP3    H159147   6.065   6.011   1.180  0.7973  0.6691  0.1551
12552TIP3    H259148   6.055   6.108   1.296 -0.5675  1.5872 -0.6903
12553TIP3   OH259149   2.514   1.783   4.330 -0.0837  0.0622  0.0062
12553TIP3    H159150   2.475   1.712   4.382 -1.8538  1.2980  0.4463
12553TIP3    H259151   2.460   1.787   4.251  1.4170 -0.5335 -1.0922
12554TIP3   OH259152   6.787   0.020   3.165  0.2187  0.2432 -0.1797
12554TIP3    H159153   6.756   0.088   3.106 -0.9721 -0.0121  0.1191
12554TIP3    H259154   6.840   0.066   3.230 -1.8316  1.1892  0.9504
12555TIP3   OH259155   5.091   0.604   6.090 -0.4457  0.7338  0.3133
12555TIP3    H159156   5.160   0.606   6.025 -0.4177 -1.2930  0.2264
12555TIP3    H259157   5.125   0.548   6.160 -2.4599 -1.5438 -0.3790
12556TIP3   OH259158   1.859   2.053   2.328  0.0953  0.6664  0.1191
12556TIP3    H159159   1.857   1.960   2.349 -0.3556  0.0310 -2.3595
12556TIP3    H259160   1.774   2.086   2.358 -0.7528 -0.2993 -1.1085
12557TIP3   OH259161   1.873   0.335  11.703  0.1354 -0.3958  0.0580
12557TIP3    H159162   1.857   0.429  11.704  1.3130 -0.1754  0.3788
12557TIP3    H259163   1.791   0.296  11.731 -0.1099  0.5829  0.7650
12558TIP3   OH259164   1.096   2.552  16.773 -0.1123  0.0897  0.2041
12558TIP3    H159165   1.021   2.577  16.827  0.4585  2.2523  0.1183
12558TIP3    H259166   1.083   2.601  16.692  1.2348  0.3167  0.1044
12559TIP3   OH259167   3.261   5.036  12.570  0.4416  0.5980  0.3167
12559TIP3    H159168   3.208   4.963  12.538  0.9603  1.0107 -1.6450
12559TIP3    H259169   3.262   5.026  12.665  0.5022 -1.9546  0.1227
12560TIP3   OH259170   1.324   2.020  13.584  0.5040 -0.6432  0.4531
12560TIP3    H159171   1.279   1.938  13.600 -0.9210  0.2418  1.2106
12560TIP3    H259172   1.276   2.061  13.513  0.6805 -0.0851  0.6472
12561TIP3   OH259173   2.858   1.243   4.313  0.1342 -0.5969 -0.3387
12561TIP3    H159174   2.820   1.164   4.276 -0.9803  0.6269 -1.9746
12561TIP3    H259175   2.798   1.313   4.288  0.8228  0.7286  1.4606
12562TIP3   OH259176   4.122   6.095   6.334 -0.1738  0.1639  0.0318
12562TIP3    H159177   4.098   6.182   6.367 -0.9347 -0.2404  0.5776
12562TIP3    H259178   4.064   6.081   6.259  0.8905  0.6808 -0.9096
12563TIP3   OH259179   5.242   2.345  16.628 -0.0214  0.0158 -0.3710
12563TIP3    H159180   5.270   2.381  16.545 -0.6061 -0.2536 -0.6921
12563TIP3    H259181   5.216   2.421  16.680 -0.9376  0.1049 -0.9245
12564TIP3   OH259182   0.790   6.434  11.508 -0.4089  0.8414 -0.1240
12564TIP3    H159183   0.821   6.414  11.596 -0.2182  0.8890 -0.1786
12564TIP3    H259184   0.700   6.403  11.505 -0.2277  0.3106 -0.0955
12565TIP3   OH259185   1.194   4.037   5.817 -0.5097  0.6098  0.3333
12565TIP3    H159186   1.245   3.989   5.881 -0.4818  0.7929  0.4503
12565TIP3    H259187   1.122   3.978   5.794 -0.1304  0.2663  0.0057
12566TIP3   OH259188   0.015   3.035  15.527  0.3499  0.5214  0.4536
12566TIP3    H159189  -0.056   3.096  15.546  0.2518  0.6308 -0.2535
12566TIP3    H259190   0.086   3.089  15.492  1.0834  0.5171  1.8659
12567TIP3   OH259191   0.631   1.382   1.403  0.4260  0.0814  0.0758
12567TIP3    H159192   0.651   1.454   1.463  0.2688  0.2780 -0.1071
12567TIP3    H259193   0.543   1.401   1.369  0.2064 -0.4142  0.3448
12568TIP3   OH259194   0.405   6.611  15.585 -0.8209 -0.0421  0.2138
12568TIP3    H159195   0.327   6.558  15.605 -0.0209 -1.2600  0.1940
12568TIP3    H259196   0.476   6.569  15.633  1.0191 -2.5821 -4.1390
12569TIP3   OH259197   1.486   6.553   4.355 -0.0053  0.1174  0.0694
12569TIP3    H159198   1.553   6.551   4.285  0.2601  0.1067  0.3219
12569TIP3    H259199   1.439   6.635   4.340 -0.3326 -0.1683 -0.4791
12570TIP3   OH259200   0.628   6.535   1.476  0.8018  0.0259  0.1597
12570TIP3    H159201   0.642   6.615   1.426  0.5295 -0.2027 -0.2885
12570TIP3    H259202   0.692   6.473   1.442 -0.2179 -0.5312 -0.8181
12571TIP3   OH259203   5.743   2.688  15.344  0.4111  0.2571  0.1191
12571TIP3    H159204   5.818   2.679  15.285  1.7360  0.0693  1.7506
12571TIP3    H259205   5.681   2.623  15.313 -0.4480  2.3956 -3.1102
12572TIP3   OH259206   4.188   6.793   0.497 -0.7715  0.1874  0.1642
12572TIP3    H159207   4.158   6.881   0.476 -1.1764  0.2971  1.1809
12572TIP3    H259208   4.148   6.737   0.430 -1.1247  0.6766 -0.0350
12573TIP3   OH259209   4.749   5.550   6.816  0.7187 -0.1373  0.3125
12573TIP3    H159210   4.767   5.644   6.814  1.0366 -0.2090 -0.2384
12573TIP3    H259211   4.661   5.544   6.855  0.2807  0.4546 -0.5418
12574TIP3   OH259212   0.181   0.616  14.754 -0.4853 -0.2411  0.0991
12574TIP3    H159213   0.237   0.674  14.701  1.9547  0.6639  3.3246
12574TIP3    H259214   0.222   0.530  14.745  0.7892  0.1816  1.4855
12575TIP3   OH259215   0.929   2.317   3.130 -0.8754  1.0035  0.2107
12575TIP3    H159216   0.954   2.239   3.181 -0.6575  2.2755  2.1693
12575TIP3    H259217   1.011   2.351   3.096 -0.7546  1.2793  0.7600
12576TIP3   OH259218   4.020   3.326   1.049 -0.2663  0.3520  0.4876
12576TIP3    H159219   3.953   3.269   1.012 -0.5641  0.6155  0.6175
12576TIP3    H259220   4.097   3.270   1.059 -0.1607  0.2772 -0.5709
12577TIP3   OH259221   4.673   1.371  15.463 -0.3164 -0.0998  0.3188
12577TIP3    H159222   4.579   1.374  15.447 -0.3937  0.1170  0.7921
12577TIP3    H259223   4.690   1.446  15.519  0.4298  0.9318 -1.2127
12578TIP3   OH259224   6.589   2.118  12.462  0.1598 -0.6804 -0.2575
12578TIP3    H159225   6.568   2.193  12.517 -0.4414 -0.9441 -0.1125
12578TIP3    H259226   6.526   2.122  12.390 -0.1844 -1.2861 -0.0074
12579TIP3   OH259227   1.826   0.569  12.109  0.1990  0.4048 -0.1866
12579TIP3    H159228   1.807   0.615  12.027 -1.5647 -0.6860 -0.4392
12579TIP3    H259229   1.835   0.477  12.083 -0.0702  0.0967  0.7950
12580TIP3   OH259230   1.845   3.558   0.724  0.5764  0.0541 -0.6548
12580TIP3    H159231   1.805   3.535   0.808 -0.1853  1.2536 -0.6599
12580TIP3    H259232   1.917   3.496   0.713  0.0117 -0.8024  0.3705
12581TIP3   OH259233   5.583   6.705  13.259  0.1497 -0.0841 -0.3627
12581TIP3    H159234   5.501   6.745  13.288 -0.4887 -1.0413 -0.7880
12581TIP3    H259235   5.625   6.772  13.205 -1.6208 -0.4709 -2.3461
12582TIP3   OH259236   4.823   2.189  15.205 -0.2157 -0.1401  0.9158
12582TIP3    H159237   4.805   2.100  15.174  0.3230  0.2507 -0.6161
12582TIP3    H259238   4.816   2.183  15.300  0.2850 -1.9290  0.8837
12583TIP3   OH259239   5.674   6.776   5.418 -0.7972 -0.2335 -0.1966
12583TIP3    H159240   5.666   6.857   5.470 -0.0457 -0.3790  0.1496
12583TIP3    H259241   5.627   6.796   5.337  0.7948  1.1661 -0.8391
12584TIP3   OH259242   0.633   5.647  16.611  0.1866 -0.9932 -0.2805
12584TIP3    H159243   0.581   5.671  16.688  0.3328 -0.5893 -0.3017
12584TIP3    H259244   0.571   5.603  16.553  0.3608 -2.4683  0.6059
12585TIP3   OH259245   4.812   6.237   2.255  0.1199 -0.0004  0.2904
12585TIP3    H159246   4.738   6.293   2.277 -1.0044 -1.2316 -0.2072
12585TIP3    H259247   4.823   6.180   2.331  0.0828 -0.2927  0.0810
12586TIP3   OH259248   1.662   3.809   0.271  0.5764 -0.6234 -0.2312
12586TIP3    H159249   1.597   3.842   0.209  3.0265  2.4560 -1.4638
12586TIP3    H259250   1.638   3.849   0.355  0.5922  0.1353 -0.5808
12587TIP3   OH259251   3.181   4.260  12.610  0.2146 -0.1296  0.3505
12587TIP3    H159252   3.138   4.183  12.647  1.5311 -0.5550  1.0838
12587TIP3    H259253   3.274   4.247  12.629  0.5447  1.3177 -0.1123
12588TIP3   OH259254   4.800   0.297  13.260  0.1323 -0.6143 -0.1516
12588TIP3    H159255   4.856   0.323  13.333 -0.9745 -1.2852  0.9865
12588TIP3    H259256   4.766   0.211  13.286  1.6983 -2.0991 -2.6341
12589TIP3   OH259257   0.024   2.581  11.927 -0.6241 -0.9344 -0.0747
12589TIP3    H159258   0.058   2.491  11.922  0.2277 -0.8634  2.6715
12589TIP3    H259259  -0.013   2.588  12.015 -1.8601  1.0494 -0.6868
12590TIP3   OH259260   0.095   5.748   6.110 -0.6623 -0.2530  0.3502
12590TIP3    H159261   0.127   5.676   6.165  1.5321  0.6544  0.3383
12590TIP3    H259262   0.096   5.712   6.021  2.8345  0.4162 -0.0215
12591TIP3   OH259263   5.882   0.277  16.769 -0.0522  0.3378  0.5713
12591TIP3    H159264   5.954   0.247  16.713 -0.4929 -1.1759  0.7636
12591TIP3    H259265   5.921   0.287  16.856  0.4930  2.0833  0.1535
12592TIP3   OH259266   2.632   2.878  13.237 -0.1696 -0.8545 -0.0413
12592TIP3    H159267   2.646   2.943  13.306  0.2577 -0.4150 -0.5370
12592TIP3    H259268   2.613   2.930  13.158  0.5524 -1.3091 -0.5283
12593TIP3   OH259269   4.756   2.397   0.887 -0.1517  0.7889 -0.3160
12593TIP3    H159270   4.762   2.376   0.980 -0.2312  3.3865  0.3579
12593TIP3    H259271   4.681   2.346   0.856 -0.8115  0.7135  1.2985
12594TIP3   OH259272   2.396   5.906   2.866 -0.3080 -0.5128 -0.4743
12594TIP3    H159273   2.457   5.910   2.940 -1.8757 -1.1690  0.9277
12594TIP3    H259274   2.397   5.994   2.829  2.4265 -0.8012 -1.3609
12595TIP3   OH259275   0.422   1.850   3.072  0.3060 -0.0121 -0.0621
12595TIP3    H159276   0.348   1.891   3.115 -0.4134 -0.2069 -1.0778
12595TIP3    H259277   0.458   1.918   3.015  0.6103 -0.0610  0.0697
12596TIP3   OH259278   5.903   2.055  14.047 -0.4088 -0.7836 -0.3374
12596TIP3    H159279   5.948   2.044  13.963 -1.6038  0.4901 -1.1864
12596TIP3    H259280   5.973   2.045  14.113  1.4351  2.1293 -1.6222
12597TIP3   OH259281   3.830   6.264  14.299  0.1239  0.0124 -0.1995
12597TIP3    H159282   3.857   6.204  14.368  0.2699 -1.8028 -1.7669
12597TIP3    H259283   3.853   6.220  14.217 -1.3032  1.4657 -1.4745
12598TIP3   OH259284   2.109   5.758   1.979  0.2818  0.1002 -0.4604
12598TIP3    H159285   2.162   5.837   1.983  0.3280  0.0201  0.6070
12598TIP3    H259286   2.161   5.691   2.022 -0.0503 -0.3532 -0.7482
12599TIP3   OH259287   5.149   2.050  11.606  0.5631 -0.6853  0.2831
12599TIP3    H159288   5.080   2.110  11.632 -0.2787 -2.1231  1.5497
12599TIP3    H259289   5.110   1.996  11.537  1.3869  0.2936 -1.0120
12600TIP3   OH259290   3.645   3.614   4.490  0.6011  0.7603 -0.3520
12600TIP3    H159291   3.722   3.670   4.480  1.6555 -0.3515  1.1656
12600TIP3    H259292   3.674   3.542   4.546 -1.9089  1.0152  1.4297
12601TIP3   OH259293   3.911   0.480  15.471 -0.1870 -0.2983  0.0577
12601TIP3    H159294   3.825   0.502  15.507  0.0963 -0.4160  0.8216
12601TIP3    H259295   3.893   0.445  15.383 -0.8379  0.6219 -0.1898
12602TIP3   OH259296   4.702   1.226   3.179 -0.6974 -0.6257  0.7126
12602TIP3    H159297   4.618   1.198   3.216 -0.9578  0.2765  0.8379
12602TIP3    H259298   4.755   1.249   3.256 -0.5774 -0.5302  0.6011
12603TIP3   OH259299   1.634   3.390  15.272 -0.2564 -0.0004  0.2485
12603TIP3    H159300   1.617   3.398  15.366  0.0057 -0.5044  0.3424
12603TIP3    H259301   1.617   3.298  15.252 -0.5944  0.1666 -0.2575
12604TIP3   OH259302   0.176   1.769   0.547  0.5510  0.0656  0.1098
12604TIP3    H159303   0.100   1.827   0.553  1.0834  1.3085 -3.2219
12604TIP3    H259304   0.141   1.683   0.570 -2.0862  0.4940 -1.7814
12605TIP3   OH259305   4.526   3.940  13.609  0.2717  0.0538  0.1385
12605TIP3    H159306   4.586   3.865  13.608 -0.1821 -0.3549 -2.2435
12605TIP3    H259307   4.583   4.016  13.615  0.9430 -0.3852 -0.4933
12606TIP3   OH259308   6.271   4.455  14.424  0.3758 -0.1683  0.1142
12606TIP3    H159309   6.223   4.537  14.433 -1.6796 -1.2826 -0.1861
12606TIP3    H259310   6.353   4.481  14.382 -0.3010  1.6957 -0.1797
12607TIP3   OH259311   5.327   4.971   2.009  0.0126  0.5859  0.7706
12607TIP3    H159312   5.297   5.052   2.049  1.2755  0.4091  2.1701
12607TIP3    H259313   5.389   4.935   2.072  1.5318 -0.1053 -1.0316
12608TIP3   OH259314   5.764   5.544  16.994 -0.1611  0.5663  0.2413
12608TIP3    H159315   5.854   5.531  17.025 -0.6767 -0.5180  1.3527
12608TIP3    H259316   5.773   5.553  16.899  1.1550  0.7725  0.3684
12609TIP3   OH259317   5.389   6.015  11.655 -0.1542 -0.2616 -0.0979
12609TIP3    H159318   5.462   5.954  11.669  0.6849  1.0576  1.7766
12609TIP3    H259319   5.313   5.969  11.691  0.0861 -0.9727 -0.4810
12610TIP3   OH259320   5.637   4.500  12.006 -0.3260  0.3605 -0.4637
12610TIP3    H159321   5.702   4.431  11.996 -0.0734  0.6880 -1.0825
12610TIP3    H259322   5.593   4.479  12.089  0.2067 -0.1545 -0.3049
12611TIP3   OH259323   3.300   2.921   5.022  0.1935  0.1048 -0.1054
12611TIP3    H159324   3.224   2.956   4.976  0.3109  0.2569 -0.1861
12611TIP3    H259325   3.368   2.915   4.955  0.1051 -0.5111 -0.1448
12612TIP3   OH259326   6.017   1.111  12.351 -0.4536  0.3222 -0.2401
12612TIP3    H159327   5.983   1.032  12.307 -0.3482 -0.6771  1.3666
12612TIP3    H259328   6.075   1.151  12.287 -0.4965 -0.9241 -1.1019
12613TIP3   OH259329   1.285   4.422  11.446 -0.1845 -0.5833 -0.3461
12613TIP3    H159330   1.308   4.456  11.360  0.0719 -0.1410 -0.1059
12613TIP3    H259331   1.367   4.388  11.482 -0.1802 -0.2850 -0.0639
12614TIP3   OH259332   1.470   6.192   2.485  0.2453  0.2037 -0.0044
12614TIP3    H159333   1.447   6.124   2.547 -0.6982 -0.2926 -0.8716
12614TIP3    H259334   1.526   6.252   2.534  1.6227 -1.5197  0.5956
12615TIP3   OH259335   2.572   6.460  13.109 -0.5100 -0.3084 -0.0637
12615TIP3    H159336   2.562   6.548  13.074 -0.4985  0.5928  2.0507
12615TIP3    H259337   2.490   6.445  13.157 -0.1228 -1.0732  0.3675
12616TIP3   OH259338   3.916   5.569   5.411  0.4058 -0.2000  0.2698
12616TIP3    H159339   3.838   5.537   5.457  1.2035 -0.1697  1.7069
12616TIP3    H259340   3.888   5.579   5.320 -1.3834  0.2004  0.8288
12617TIP3   OH259341   1.133   0.028   5.653 -0.3747  0.0346 -0.1761
12617TIP3    H159342   1.043   0.038   5.622 -0.8706 -1.5621  0.6339
12617TIP3    H259343   1.137   0.080   5.733 -0.2953  0.8600 -0.7118
12618TIP3   OH259344   2.913   5.523  13.140  0.4016  0.4259  0.0093
12618TIP3    H159345   2.872   5.561  13.217  0.1089 -2.8128  1.6027
12618TIP3    H259346   3.007   5.530  13.157  0.3418  0.1370  0.4781
12619TIP3   OH259347   4.580   1.177   1.252  0.0942  0.5258 -0.4881
12619TIP3    H159348   4.629   1.206   1.329 -0.0691 -0.9691  0.2194
12619TIP3    H259349   4.647   1.157   1.186  0.2964  0.8324 -0.3739
12620TIP3   OH259350   1.232   4.127  13.620 -0.5239  0.2070  0.4774
12620TIP3    H159351   1.280   4.112  13.701  1.0419 -1.0053 -0.6187
12620TIP3    H259352   1.286   4.189  13.571 -1.1895  0.5149  0.1146
12621TIP3   OH259353   0.026   3.683   3.268 -0.2966 -0.3350  0.4478
12621TIP3    H159354   0.048   3.754   3.328 -0.8285  1.5401 -1.4562
12621TIP3    H259355  -0.056   3.710   3.227 -0.3751 -1.9382 -0.5417
12622TIP3   OH259356   1.122   2.641   3.645 -0.0946 -0.5756 -0.1931
12622TIP3    H159357   1.168   2.704   3.590  0.0375 -0.2150  0.3288
12622TIP3    H259358   1.062   2.596   3.585 -1.4938  1.2569 -0.2515
12623TIP3   OH259359   1.619   3.126  14.241  0.2186  0.1369  0.1602
12623TIP3    H159360   1.589   3.216  14.231 -1.7067 -0.5208 -0.4947
12623TIP3    H259361   1.553   3.085  14.298  0.7669 -0.9838  0.0252
12624TIP3   OH259362   3.549   6.731   1.692 -0.5413 -0.2800 -0.1987
12624TIP3    H159363   3.547   6.637   1.671  1.5090 -0.0844 -1.5633
12624TIP3    H259364   3.576   6.733   1.784  1.4176 -1.0523 -0.7016
12625TIP3   OH259365   1.429   6.651  14.528 -0.8488  0.6329  0.3474
12625TIP3    H159366   1.446   6.600  14.449 -0.4153 -1.7533  1.8844
12625TIP3    H259367   1.514   6.690  14.550 -0.2019 -1.1818  1.2436
12626TIP3   OH259368   0.957   5.050  11.660  0.4735  0.5347  0.0157
12626TIP3    H159369   0.940   5.137  11.694 -1.2956  0.3733 -0.3576
12626TIP3    H259370   0.970   5.062  11.566 -0.2205  0.3636 -0.1096
12627TIP3   OH259371   2.134   0.454  12.823 -0.2596  0.7225 -0.0777
12627TIP3    H159372   2.214   0.485  12.780  1.6552 -2.1465  1.1052
12627TIP3    H259373   2.126   0.509  12.901  1.7240 -0.0849  0.7747
12628TIP3   OH259374   0.613   1.774   3.714  0.2573 -0.0265  0.4297
12628TIP3    H159375   0.533   1.801   3.759 -1.1693  0.5244 -2.2347
12628TIP3    H259376   0.609   1.679   3.711 -0.8083  0.0345 -0.4939
12629TIP3   OH259377   4.635   4.484   5.813  0.7468  0.5575 -0.2589
12629TIP3    H159378   4.601   4.418   5.873 -1.3749  1.1345 -0.7263
12629TIP3    H259379   4.558   4.514   5.765  1.4237  3.9667  0.5203
12630TIP3   OH259380   6.289   2.523  15.832  0.4606 -0.3670 -0.1784
12630TIP3    H159381   6.366   2.507  15.887 -0.8783  1.9640  2.6242
12630TIP3    H259382   6.325   2.557  15.751  2.4556 -2.3874 -0.2466
12631TIP3   OH259383   0.016   1.751   5.109 -0.5303 -0.0054 -0.1428
12631TIP3    H159384  -0.016   1.801   5.184  0.6015  0.6545 -0.0838
12631TIP3    H259385  -0.063   1.714   5.070 -1.3427  1.3434  0.1624
12632TIP3   OH259386   3.621   2.781  15.450 -0.3924 -0.5490  0.2045
12632TIP3    H159387   3.662   2.697  15.466 -0.3018 -0.7256 -0.8933
12632TIP3    H259388   3.556   2.790  15.520 -0.2797 -1.4394  0.4282
12633TIP3   OH259389   0.472   3.165  15.005 -0.0364 -0.3244  0.3628
12633TIP3    H159390   0.471   3.111  14.927 -1.0069  0.7268 -0.3883
12633TIP3    H259391   0.531   3.238  14.984  0.0735 -0.2845  0.7884
12634TIP3   OH259392   5.632   0.549   3.132 -0.2363 -0.2897  0.5856
12634TIP3    H159393   5.631   0.640   3.101  0.1551  0.1275  1.7429
12634TIP3    H259394   5.592   0.554   3.219 -1.8203 -1.5034 -0.0296
12635TIP3   OH259395   1.535   3.867   4.145  0.0952  0.2466  0.6295
12635TIP3    H159396   1.507   3.776   4.133 -1.4523  0.5613  1.4658
12635TIP3    H259397   1.594   3.884   4.072 -1.6776 -0.6232 -1.1058
12636TIP3   OH259398   1.627   4.164   0.612 -0.3397 -0.7503 -0.5333
12636TIP3    H159399   1.593   4.223   0.544 -0.3711  0.7723  0.7445
12636TIP3    H259400   1.683   4.220   0.666  0.5111 -2.1697  0.1084
12637TIP3   OH259401   0.010   6.500  13.051  0.2061  0.2789  0.5622
12637TIP3    H159402   0.056   6.508  12.967 -0.9606  0.6545 -0.0626
12637TIP3    H259403   0.073   6.456  13.108  0.6720 -0.8915 -0.7875
12638TIP3   OH259404   6.665   4.289   9.856  0.2217  0.3002 -0.2543
12638TIP3    H159405   6.673   4.312   9.949  0.4806  2.3375 -0.7266
12638TIP3    H259406   6.743   4.327   9.815 -0.7025  0.8762 -1.5475
12639TIP3   OH259407   0.974   0.727   1.120 -0.0034 -0.1137 -0.2255
12639TIP3    H159408   1.040   0.796   1.130 -0.6101  0.3591  0.6086
12639TIP3    H259409   1.007   0.673   1.048  2.1184 -0.8164  1.1743
12640TIP3   OH259410   0.554   2.672   4.248 -0.0501  0.4656  0.3058
12640TIP3    H159411   0.632   2.684   4.302 -0.4019 -0.4659  1.0491
12640TIP3    H259412   0.522   2.585   4.272 -1.6168  1.0490  0.4092
12641TIP3   OH259413   4.169   3.533   3.723  0.2469  0.0231 -0.1382
12641TIP3    H159414   4.158   3.439   3.741  1.0935 -0.1560 -0.4996
12641TIP3    H259415   4.234   3.562   3.788 -0.0116  0.3610 -0.0284
12642TIP3   OH259416   1.880   5.518  14.017 -0.1263 -0.4483 -0.3320
12642TIP3    H159417   1.786   5.519  14.003 -0.1833  1.2209 -0.0400
12642TIP3    H259418   1.916   5.568  13.944  0.5216 -0.9121 -0.3407
12643TIP3   OH259419   6.096   3.169  14.096  0.0707 -0.0878 -0.1539
12643TIP3    H159420   6.047   3.210  14.167  0.6101 -1.5383  1.1260
12643TIP3    H259421   6.063   3.079  14.093  2.2425 -0.9646  0.4113
12644TIP3   OH259422   6.137   5.459   0.020  0.0327 -0.5022  0.3009
12644TIP3    H159423   6.065   5.488   0.077  0.0168 -1.7656  0.9522
12644TIP3    H259424   6.180   5.390   0.070  0.5477 -1.0570 -0.8895
12645TIP3   OH259425   4.537   1.307   2.561  0.0295  0.0657  0.1066
12645TIP3    H159426   4.504   1.226   2.521  3.3196 -1.7113  0.6462
12645TIP3    H259427   4.468   1.372   2.544 -2.7838 -2.7888 -0.3482
12646TIP3   OH259428   4.001   4.384   6.018  0.3646  0.2504  0.2182
12646TIP3    H159429   4.016   4.376   6.112  0.7386 -4.4475 -0.0110
12646TIP3    H259430   3.906   4.391   6.009  0.3486  1.0112  0.9271
12647TIP3   OH259431   1.491   4.394  15.693  0.1452 -0.2642 -0.4841
12647TIP3    H159432   1.411   4.408  15.643  0.1490  0.6413 -0.2475
12647TIP3    H259433   1.560   4.432  15.638  0.4133 -0.9564 -0.6444
12648TIP3   OH259434   3.980   5.327  16.669  0.2872  0.5207  0.4384
12648TIP3    H159435   3.915   5.360  16.608 -0.5014  0.7506  1.3763
12648TIP3    H259436   4.026   5.405  16.700  0.9672  0.3653 -0.1686
12649TIP3   OH259437   1.971   0.808  11.917  0.0620 -0.2963  0.3782
12649TIP3    H159438   1.972   0.817  12.013 -1.1136  0.7575  0.3155
12649TIP3    H259439   2.032   0.736  11.899  0.1238 -0.6643  1.9306
12650TIP3   OH259440   6.465   4.052   5.389  0.2402 -0.3383 -0.2434
12650TIP3    H159441   6.498   4.140   5.405 -2.0640  0.2761  1.7934
12650TIP3    H259442   6.532   3.994   5.425  0.4483  0.7202  1.1474
12651TIP3   OH259443   5.247   0.681  15.649  0.3407 -0.4530 -0.2271
12651TIP3    H159444   5.258   0.657  15.558 -0.5427 -0.6393 -0.2944
12651TIP3    H259445   5.319   0.742  15.667  0.6340 -0.5710 -0.9815
12652TIP3   OH259446   6.547   0.493  13.313  0.0133 -1.1419 -0.6111
12652TIP3    H159447   6.499   0.497  13.231 -0.0065 -2.9313 -0.7095
12652TIP3    H259448   6.573   0.584  13.330 -3.6151  0.0323 -0.3921
12653TIP3   OH259449   5.946   5.288  10.277 -0.4117  0.5078 -0.2076
12653TIP3    H159450   5.944   5.199  10.243  0.3805  0.4956 -0.2423
12653TIP3    H259451   5.960   5.278  10.371 -1.8000  0.5631  0.0150
12654TIP3   OH259452   2.752   5.188   6.203 -0.6757 -0.1741 -0.6052
12654TIP3    H159453   2.719   5.151   6.286  0.4873  0.7518  0.2978
12654TIP3    H259454   2.705   5.139   6.136 -0.3771 -2.2075  0.5604
12655TIP3   OH259455   2.132   1.962   3.422  0.0998  0.4146  0.0185
12655TIP3    H159456   2.057   1.903   3.432  1.0185 -0.9370 -0.7602
12655TIP3    H259457   2.125   1.995   3.333  0.4076  0.3211 -0.0399
12656TIP3   OH259458   4.229   4.080   6.145 -0.2948  0.1531 -0.5026
12656TIP3    H159459   4.241   3.985   6.156  0.7391  0.2636 -0.5281
12656TIP3    H259460   4.159   4.088   6.081  0.3413 -0.6290 -1.3326
12657TIP3   OH259461   2.781   2.222   3.024 -0.2588  0.2210 -0.5387
12657TIP3    H159462   2.811   2.173   2.947  2.8675 -0.4773  0.9635
12657TIP3    H259463   2.832   2.303   3.023 -0.8768  0.6347  0.2947
12658TIP3   OH259464   1.607   1.106   4.846 -0.5056  0.6470 -0.7405
12658TIP3    H159465   1.518   1.073   4.835 -0.6021  1.5759 -3.5145
12658TIP3    H259466   1.596   1.201   4.857  0.0779  0.5368  1.2014
12659TIP3   OH259467   1.528   3.795   4.509 -0.2283 -0.6945 -0.7755
12659TIP3    H159468   1.456   3.827   4.455 -0.7821  1.2313  0.9887
12659TIP3    H259469   1.528   3.852   4.586  0.8761 -2.9459  1.0168
12660TIP3   OH259470   1.634   4.245   4.667 -0.2197  0.2646 -0.1195
12660TIP3    H159471   1.589   4.197   4.598  0.2529 -1.4152  0.6848
12660TIP3    H259472   1.579   4.322   4.682 -2.2335 -1.1041 -0.0012
12661TIP3   OH259473   5.802   0.764  10.907 -0.5246  0.2381 -0.2299
12661TIP3    H159474   5.710   0.756  10.934 -0.5810  0.5139 -0.3397
12661TIP3    H259475   5.804   0.843  10.853 -0.3024  0.0011 -0.5710
12662TIP3   OH259476   5.837   4.730  17.165 -0.4686 -0.2380  0.1056
12662TIP3    H159477   5.923   4.764  17.138 -0.0597 -1.6317 -0.4330
12662TIP3    H259478   5.805   4.795  17.228  1.2189  0.0507  0.7457
12663TIP3   OH259479   2.770   4.965  17.029 -0.2312  0.1629  0.2030
12663TIP3    H159480   2.712   4.966  17.105 -1.8799  1.4870 -0.9910
12663TIP3    H259481   2.764   4.875  16.995 -2.0807  0.3926 -0.2021
12664TIP3   OH259482   6.625   4.810   0.505  0.3819  0.2599 -0.1259
12664TIP3    H159483   6.640   4.756   0.583 -1.1668 -0.0676 -0.0061
12664TIP3    H259484   6.678   4.769   0.437  0.6697 -0.2992  0.4189
12665TIP3   OH259485   5.886   3.538  16.093 -0.0766  0.1940 -0.4453
12665TIP3    H159486   5.900   3.453  16.136  0.0290 -0.0256 -0.8962
12665TIP3    H259487   5.962   3.547  16.034  0.3476  0.9986  0.2157
12666TIP3   OH259488   0.408   0.830   1.933  0.2655 -0.0244 -1.0151
12666TIP3    H159489   0.376   0.741   1.920  0.3526 -0.1838 -0.2001
12666TIP3    H259490   0.396   0.847   2.027  0.2290  0.8309 -1.1657
12667TIP3   OH259491   5.793   3.677   2.354  0.0065 -0.4517  0.3733
12667TIP3    H159492   5.886   3.690   2.337 -0.0867 -2.3411 -2.1135
12667TIP3    H259493   5.790   3.600   2.412 -0.0221  0.4776  1.6626
12668TIP3   OH259494   5.829   4.315  16.578 -0.3132 -0.0440  0.4058
12668TIP3    H159495   5.776   4.394  16.586 -0.6933 -0.1987 -0.4405
12668TIP3    H259496   5.766   4.247  16.551  0.3651 -0.1369 -1.0458
12669TIP3   OH259497   0.077   0.627  17.218 -0.1906  0.0212 -0.4663
12669TIP3    H159498   0.083   0.548  17.271  0.9631  0.0610 -0.5187
12669TIP3    H259499   0.083   0.699  17.281  0.9128  0.0665 -0.6029
12670TIP3   OH259500   1.516   4.911   2.552 -0.1599  0.2914  0.2409
12670TIP3    H159501   1.452   4.980   2.569 -1.5787 -0.9492  0.1578
12670TIP3    H259502   1.523   4.908   2.456 -2.2991 -1.5227  0.0661
12671TIP3   OH259503   3.351   6.451  15.144  0.0670 -0.1580  0.2717
12671TIP3    H159504   3.390   6.536  15.165  1.7345 -0.3825 -1.6501
12671TIP3    H259505   3.271   6.473  15.095  1.1652  0.3648 -1.3715
12672TIP3   OH259506   0.046   2.718  16.849  0.3494  0.0720 -0.7267
12672TIP3    H159507   0.127   2.675  16.822  1.0745  1.1897 -0.4241
12672TIP3    H259508   0.028   2.781  16.778  0.3080  0.5338 -0.3107
12673TIP3   OH259509   3.841   0.326   2.057  0.3942  0.2373  0.1452
12673TIP3    H159510   3.916   0.384   2.071  0.6056  0.2682 -1.0521
12673TIP3    H259511   3.799   0.360   1.979 -0.5912 -0.0886  0.5240
12674TIP3   OH259512   5.158   3.377  15.710  0.3912  0.1128 -0.5485
12674TIP3    H159513   5.164   3.300  15.766  0.9376  0.7125  0.2223
12674TIP3    H259514   5.067   3.376  15.678  0.7026 -1.5113 -1.5229
12675TIP3   OH259515   1.592   2.446   3.704 -0.0188  0.1195  0.1432
12675TIP3    H159516   1.584   2.352   3.712  0.2746  0.0736 -0.0646
12675TIP3    H259517   1.580   2.480   3.793 -0.4435 -0.0865  0.1661
12676TIP3   OH259518   0.355   0.020   1.246 -0.1928  0.0458 -0.9177
12676TIP3    H159519   0.288   0.088   1.255 -0.1013  0.1612 -1.1142
12676TIP3    H259520   0.394   0.035   1.160 -0.0762 -0.1692 -0.9039
12677TIP3   OH259521   2.845   6.782   5.992 -0.2160 -0.2160 -0.0210
12677TIP3    H159522   2.750   6.769   5.998 -0.2465 -0.1835 -0.4033
12677TIP3    H259523   2.881   6.724   6.059 -0.6485  1.8267  2.1173
12678TIP3   OH259524   2.914   2.398  11.309 -0.2760  0.3123  0.1317
12678TIP3    H159525   2.901   2.305  11.290 -0.6509  0.3579  0.1464
12678TIP3    H259526   3.005   2.416  11.285  0.2295 -0.3766  1.4673
12679TIP3   OH259527   3.031   0.149  14.136 -0.0017 -0.1031 -0.0208
12679TIP3    H159528   3.011   0.070  14.186 -1.2371  0.5797  0.6296
12679TIP3    H259529   3.095   0.195  14.190 -0.9311  0.3708  0.7215
12680TIP3   OH259530   2.768   4.141   3.646 -0.2362 -0.4081  0.0763
12680TIP3    H159531   2.732   4.214   3.696 -0.3518 -0.5208  0.1604
12680TIP3    H259532   2.863   4.152   3.652 -0.2090  1.3739 -2.3057
12681TIP3   OH259533   2.778   3.397   5.567 -0.0120  0.0171  0.1970
12681TIP3    H159534   2.762   3.432   5.654  0.4507  1.2790 -0.2053
12681TIP3    H259535   2.872   3.380   5.565 -0.3767 -2.5653  0.8224
12682TIP3   OH259536   1.780   4.995   3.715 -0.6018 -0.7672 -0.0852
12682TIP3    H159537   1.855   5.005   3.774 -0.3492  1.3541 -0.7024
12682TIP3    H259538   1.816   4.952   3.638  0.5691  2.1747 -1.2977
12683TIP3   OH259539   6.523   5.690   3.195 -0.0611 -0.0046 -0.3643
12683TIP3    H159540   6.617   5.702   3.209 -0.1413  0.5193 -0.2456
12683TIP3    H259541   6.501   5.757   3.130 -0.6597  0.9600  0.8120
12684TIP3   OH259542   2.982   3.313  13.171 -0.0977 -0.1091 -0.2085
12684TIP3    H159543   2.974   3.258  13.249 -2.8679 -1.7184 -1.4332
12684TIP3    H259544   3.055   3.275  13.122  1.1769  0.4523  1.2171
12685TIP3   OH259545   0.942   1.123   0.261  0.1429  0.7904 -1.1237
12685TIP3    H159546   0.954   1.098   0.169 -1.4106  0.5203 -1.2700
12685TIP3    H259547   0.882   1.196   0.259  0.2628  0.9197 -0.3204
12686TIP3   OH259548   4.689   0.233   1.862 -0.1893 -0.1115  0.2773
12686TIP3    H159549   4.758   0.175   1.830 -0.2326  0.8570 -1.7059
12686TIP3    H259550   4.682   0.213   1.955  2.6394 -0.3792  0.5042
12687TIP3   OH259551   4.255   3.468   0.742  0.7191  1.1217 -0.0342
12687TIP3    H159552   4.166   3.440   0.721  0.5878  0.5858  1.1631
12687TIP3    H259553   4.244   3.550   0.790  0.6876 -0.0774  2.1246
12688TIP3   OH259554   0.838   0.195  11.309  0.0764 -0.1474  0.8027
12688TIP3    H159555   0.930   0.170  11.300  0.9921  3.1966 -1.1099
12688TIP3    H259556   0.803   0.190  11.220 -1.6636 -1.3045  1.4844
12689TIP3   OH259557   2.919   0.249   0.737  0.3312  0.1911  0.7563
12689TIP3    H159558   2.948   0.331   0.697  0.3598 -0.8682 -1.5378
12689TIP3    H259559   3.000   0.200   0.753  0.2197 -0.0314  0.6419
12690TIP3   OH259560   5.500   5.398   0.576  0.3902  0.6558  0.0044
12690TIP3    H159561   5.584   5.428   0.611 -0.1389  0.1794  1.8195
12690TIP3    H259562   5.493   5.308   0.607 -0.8701  0.7622  0.0577
12691TIP3   OH259563   2.360   3.007  12.752 -0.2051 -0.0626 -0.2141
12691TIP3    H159564   2.452   3.012  12.777 -0.0672  0.6737 -0.8203
12691TIP3    H259565   2.346   2.915  12.730  0.2241 -0.2982  0.4765
12692TIP3   OH259566   5.681   6.195   0.454 -0.1911  0.0531 -0.0066
12692TIP3    H159567   5.676   6.114   0.403  0.4087  0.4155 -0.6516
12692TIP3    H259568   5.704   6.166   0.542 -1.3652 -0.5914  0.1151
12693TIP3   OH259569   3.658   2.905   4.207 -0.2298 -0.1014  0.1053
12693TIP3    H159570   3.664   2.958   4.128  0.3533  0.5574  0.5766
12693TIP3    H259571   3.572   2.864   4.202 -1.4360  2.2078  0.5196
12694TIP3   OH259572   1.414   6.552  16.687  0.2111  0.5541 -0.3946
12694TIP3    H159573   1.366   6.607  16.748  0.5888  0.1333  0.2878
12694TIP3    H259574   1.351   6.532  16.618 -0.5241  0.1724  0.3768
12695TIP3   OH259575   2.684   2.292  15.553 -0.0218 -0.8288  0.3049
12695TIP3    H159576   2.720   2.338  15.628  2.0990  0.2386 -1.2793
12695TIP3    H259577   2.601   2.338  15.534  1.3196  1.4933 -0.3319
12696TIP3   OH259578   6.019   4.864   4.747  0.3980 -0.6109 -0.8121
12696TIP3    H159579   6.063   4.780   4.753  3.4703  0.8279 -1.4063
12696TIP3    H259580   5.992   4.870   4.655 -0.6311 -1.2401 -0.5770
12697TIP3   OH259581   3.493   4.798   6.214 -0.0531  0.3866  0.1183
12697TIP3    H159582   3.576   4.830   6.250  0.6045 -2.3797  1.3569
12697TIP3    H259583   3.433   4.799   6.289 -1.6197  3.3995 -0.9981
12698TIP3   OH259584   0.791   5.596  11.464  0.6394 -0.2221  0.2127
12698TIP3    H159585   0.832   5.675  11.428 -1.0260  0.5933  0.0276
12698TIP3    H259586   0.840   5.579  11.545  0.1502  1.8338  1.0006
12699TIP3   OH259587   1.582   4.672  14.032 -0.0258  0.4115 -0.0634
12699TIP3    H159588   1.546   4.724  14.104 -2.7700  0.0241 -1.0476
12699TIP3    H259589   1.513   4.670  13.966  0.9903 -2.2490 -1.2149
12700TIP3   OH259590   2.399   6.175   4.106 -0.2886  0.7105  0.1799
12700TIP3    H159591   2.471   6.150   4.048  0.6935 -1.1375  2.0524
12700TIP3    H259592   2.434   6.249   4.155  0.1795  0.1507  0.7158
12701TIP3   OH259593   5.305   3.791   1.752 -0.6146 -0.4921  0.4294
12701TIP3    H159594   5.292   3.767   1.844 -1.2862  1.0617  0.7789
12701TIP3    H259595   5.227   3.757   1.707 -0.7715 -0.3923  0.6227
12702TIP3   OH259596   0.470   3.376  10.197 -0.6938 -0.5379  0.1777
12702TIP3    H159597   0.407   3.388  10.268 -1.0429 -0.3016 -0.1634
12702TIP3    H259598   0.532   3.448  10.208 -0.3248 -0.9201  0.6682
12703TIP3   OH259599   5.170   1.391  12.892 -0.1705  0.5082  0.1065
12703TIP3    H159600   5.144   1.374  12.801 -1.3244 -0.8266  0.6577
12703TIP3    H259601   5.092   1.428  12.933  0.3886  1.2457  0.5461
12704TIP3   OH259602   3.074   2.832  11.988  0.1398  0.3736 -0.2950
12704TIP3    H159603   3.161   2.833  11.948  0.7916 -1.1295  0.9520
12704TIP3    H259604   3.027   2.763  11.941  0.2308 -0.0198  0.1852
12705TIP3   OH259605   5.491   2.603   2.983  0.2790 -0.2783  0.1712
12705TIP3    H159606   5.456   2.646   2.905 -1.4879  0.5134  1.3093
12705TIP3    H259607   5.454   2.515   2.981  1.3489 -0.7215 -0.5632
12706TIP3   OH259608   2.066   2.383  13.820  0.6974  0.0989  0.1100
12706TIP3    H159609   2.097   2.424  13.901 -0.1455 -1.2090  1.1406
12706TIP3    H259610   2.040   2.295  13.846 -0.2860 -0.1115 -1.4459
12707TIP3   OH259611   6.204   5.174  15.208 -0.5063  0.2940 -0.6708
12707TIP3    H159612   6.126   5.210  15.166 -0.0338 -0.0975 -1.9452
12707TIP3    H259613   6.172   5.100  15.259 -0.9555  0.0312 -1.3178
12708TIP3   OH259614   2.489   3.756  17.129  0.7394 -0.6144  0.3160
12708TIP3    H159615   2.422   3.803  17.179  1.7142  0.6141  0.5205
12708TIP3    H259616   2.538   3.825  17.085  0.6702 -1.6036 -1.3922
12709TIP3   OH259617   1.351   3.901  12.769  0.0763  1.1988  0.2734
12709TIP3    H159618   1.363   3.983  12.722  0.8758  0.5798 -0.6424
12709TIP3    H259619   1.440   3.871  12.788 -0.2005  0.3457  0.2472
12710TIP3   OH259620   4.975   0.730   0.218  0.0098  0.1317 -0.0226
12710TIP3    H159621   4.940   0.654   0.265  0.2686  1.0354  1.7309
12710TIP3    H259622   5.059   0.748   0.261  0.3817  0.8653 -1.0139
12711TIP3   OH259623   4.588   1.061  13.946 -0.0905 -0.2936  0.0869
12711TIP3    H159624   4.553   1.007  13.875  1.9568  0.3638 -1.5009
12711TIP3    H259625   4.629   0.998  14.005  0.3462 -0.6688 -0.5973
12712TIP3   OH259626   6.262   1.020   4.393 -0.2349 -0.0010 -0.3307
12712TIP3    H159627   6.310   1.100   4.371  0.1802 -0.0071  0.4864
12712TIP3    H259628   6.254   0.973   4.311 -0.6119  0.9458 -0.8556
12713TIP3   OH259629   0.933   5.520   1.778  0.1106 -0.1138 -0.3700
12713TIP3    H159630   0.914   5.437   1.736 -1.0305  0.4015 -0.9013
12713TIP3    H259631   1.000   5.560   1.723 -1.2383  0.4721 -1.6321
12714TIP3   OH259632   3.278   6.323   2.343  0.3319  0.5904  0.5033
12714TIP3    H159633   3.311   6.300   2.256  1.3242 -0.4589  1.1335
12714TIP3    H259634   3.238   6.409   2.331 -1.8007 -0.5679 -1.5329
12715TIP3   OH259635   5.374   3.611  13.308 -0.0458 -0.8509 -0.7181
12715TIP3    H159636   5.399   3.535  13.360  1.4740  0.1323  0.0438
12715TIP3    H259637   5.452   3.666  13.305 -1.4007  1.2214 -0.3146
12716TIP3   OH259638   4.602   4.548   2.510 -0.2447 -0.1678 -0.0714
12716TIP3    H159639   4.664   4.581   2.445  0.4647 -0.1551  0.5932
12716TIP3    H259640   4.547   4.486   2.462  0.2489 -0.1401 -0.6805
12717TIP3   OH259641   4.283   0.899   3.598 -0.7992 -0.1384  0.2814
12717TIP3    H159642   4.349   0.887   3.667 -0.2028 -0.3362 -0.3109
12717TIP3    H259643   4.200   0.878   3.640 -0.3604 -1.0052  0.7286
12718TIP3   OH259644   6.309   4.937  16.518  0.4683 -0.3235  0.0983
12718TIP3    H159645   6.361   4.919  16.597 -1.3346 -1.4345  1.0923
12718TIP3    H259646   6.347   5.018  16.483  2.9410 -1.1392  0.6539
12719TIP3   OH259647   0.963   5.304  14.522  0.0024 -0.1236 -0.1717
12719TIP3    H159648   1.043   5.298  14.471  0.3540 -0.2953  0.3857
12719TIP3    H259649   0.959   5.396  14.551  0.5953 -0.3617  0.7230
12720TIP3   OH259650   5.811   6.400  12.819  0.2536 -0.2209  0.6429
12720TIP3    H159651   5.775   6.485  12.794 -0.5233 -0.3609  1.2517
12720TIP3    H259652   5.741   6.338  12.800  0.6793 -0.6797  0.5596
12721TIP3   OH259653   4.749   6.617   2.043  0.7952  0.0236 -0.6292
12721TIP3    H159654   4.732   6.524   2.029  2.3685 -0.1191 -1.8445
12721TIP3    H259655   4.681   6.661   1.993  1.1940 -0.4893 -1.6455
12722TIP3   OH259656   5.150   2.682  15.808 -0.2008 -0.1261 -0.0578
12722TIP3    H159657   5.159   2.657  15.899  1.2603  1.6568  0.3529
12722TIP3    H259658   5.236   2.666  15.769 -0.7466 -0.6871 -1.0921
12723TIP3   OH259659   4.539   3.702   0.606  0.6528  0.4367 -0.8595
12723TIP3    H159660   4.528   3.649   0.685  1.5097 -0.5053 -1.3453
12723TIP3    H259661   4.628   3.684   0.577 -0.2661 -0.8757 -3.1804
12724TIP3   OH259662   6.441   1.702  11.015  0.3845 -0.0515 -0.2462
12724TIP3    H159663   6.453   1.797  11.018 -1.5331  0.2033  2.0779
12724TIP3    H259664   6.367   1.689  10.956 -0.5474  0.1095  0.8470
12725TIP3   OH259665   1.518   2.987   0.809 -0.9336 -0.7582 -0.1037
12725TIP3    H159666   1.523   2.913   0.748 -0.2050  0.2041 -1.2645
12725TIP3    H259667   1.434   3.029   0.787 -0.2506  0.1280 -1.1424
12726TIP3   OH259668   1.119   3.773   1.331 -0.0378 -0.4447  0.6280
12726TIP3    H159669   1.084   3.706   1.389 -1.9723 -0.2196 -0.2031
12726TIP3    H259670   1.156   3.724   1.257  0.0615 -0.6450  0.8095
12727TIP3   OH259671   2.559   5.301   0.267 -0.8301 -0.1003  0.5557
12727TIP3    H159672   2.560   5.383   0.315  0.1451  0.7463 -0.8512
12727TIP3    H259673   2.629   5.249   0.306  0.9490  1.1465 -0.8109
12728TIP3   OH259674   4.177   2.828   3.130 -0.2584 -0.1406  0.5932
12728TIP3    H159675   4.083   2.844   3.117 -0.2004  0.1516  0.5276
12728TIP3    H259676   4.199   2.764   3.062 -0.1819  0.6047 -0.1070
12729TIP3   OH259677   4.486   6.726  15.529  0.0494  0.4676 -0.1253
12729TIP3    H159678   4.570   6.686  15.509 -0.0219 -0.1028  0.6383
12729TIP3    H259679   4.497   6.761  15.617 -0.8441 -0.6414  0.4683
12730TIP3   OH259680   3.304   6.719   4.782 -0.0560  0.1481  0.5748
12730TIP3    H159681   3.389   6.680   4.799  0.3861  0.7792 -0.0829
12730TIP3    H259682   3.325   6.802   4.738 -1.0099  0.2568  0.3102
12731TIP3   OH259683   2.793   3.928  15.372 -0.5581  0.2976 -0.6294
12731TIP3    H159684   2.773   3.847  15.327  0.2593 -0.7965  0.8970
12731TIP3    H259685   2.881   3.916  15.407 -1.2751  0.8955  1.5693
12732TIP3   OH259686   1.128   5.366  11.305 -0.3908  0.3285  0.5864
12732TIP3    H159687   1.055   5.411  11.262 -0.0395  0.6756  0.3426
12732TIP3    H259688   1.205   5.419  11.282  0.0208 -0.3766  0.3301
12733TIP3   OH259689   1.218   5.667  15.491 -0.1502 -0.0830 -0.1887
12733TIP3    H159690   1.272   5.745  15.477  2.1154 -1.6294 -0.6696
12733TIP3    H259691   1.213   5.626  15.405 -2.4224  0.1362 -0.2203
12734TIP3   OH259692   2.797   6.059   5.783 -0.3682  0.5470  0.4718
12734TIP3    H159693   2.743   6.038   5.860  0.4130  1.6011  1.3475
12734TIP3    H259694   2.752   6.018   5.710 -1.5641  0.1674  1.3892
12735TIP3   OH259695   0.971   4.329  11.841  0.5126 -0.6034  0.6031
12735TIP3    H159696   0.903   4.262  11.831  0.2786 -0.3581  0.5162
12735TIP3    H259697   0.991   4.356  11.752 -0.4288  0.4563  0.6862
12736TIP3   OH259698   3.360   0.951   3.777 -0.6035  0.3807  0.5074
12736TIP3    H159699   3.396   0.919   3.694  0.0202 -0.1931  0.9929
12736TIP3    H259700   3.313   1.032   3.753  0.9495  1.1220 -0.1465
12737TIP3   OH259701   4.025   2.108  16.876  0.5629 -0.7043 -0.0122
12737TIP3    H159702   4.045   2.024  16.834 -0.3835 -0.8653 -0.1775
12737TIP3    H259703   3.931   2.120  16.861  0.3021 -0.5089  1.6276
12738TIP3   OH259704   6.046   6.092   3.572  0.1621  0.0349  0.3905
12738TIP3    H159705   6.081   6.019   3.623 -0.8029 -1.0051 -0.3779
12738TIP3    H259706   5.971   6.123   3.622  0.3034  0.2103  0.4950
12739TIP3   OH259707   3.484   1.780   4.285 -0.0158 -0.4250 -0.4177
12739TIP3    H159708   3.406   1.724   4.289 -0.4407  0.1932  0.4456
12739TIP3    H259709   3.512   1.787   4.376  0.8442 -0.3402 -0.6820
12740TIP3   OH259710   4.958   5.173  12.995  0.2063 -0.8265 -0.1150
12740TIP3    H159711   4.884   5.234  12.988  1.0537  0.0630 -1.9164
12740TIP3    H259712   4.998   5.194  13.080  1.2763  2.1419 -1.2246
12741TIP3   OH259713   0.803   2.159  16.377 -0.2212 -0.5797 -0.0227
12741TIP3    H159714   0.783   2.073  16.414  1.5465 -0.8903  0.2810
12741TIP3    H259715   0.845   2.140  16.293  1.5855 -0.1197  0.7193
12742TIP3   OH259716   5.328   0.697  11.130 -0.1646  0.3471 -0.0265
12742TIP3    H159717   5.250   0.702  11.186 -2.5892  1.0266 -3.1157
12742TIP3    H259718   5.320   0.613  11.086  0.3244  0.8183 -1.0480
12743TIP3   OH259719   0.694   1.881  15.513  0.2422 -0.1895  0.0998
12743TIP3    H159720   0.761   1.941  15.480  0.9253 -0.4415  1.0160
12743TIP3    H259721   0.615   1.905  15.464  1.2695 -0.7366 -1.9408
12744TIP3   OH259722   5.592   4.915   5.597  0.2484  0.2454  0.3175
12744TIP3    H159723   5.523   4.850   5.602  0.0291  0.5492  2.5280
12744TIP3    H259724   5.591   4.946   5.507 -0.8963 -1.4432 -0.2809
12745TIP3   OH259725   0.306   2.436  15.146  0.0525 -0.2432  0.2427
12745TIP3    H159726   0.267   2.355  15.112  1.5925 -1.1272  0.4999
12745TIP3    H259727   0.398   2.431  15.119  0.0848  1.6469 -0.1129
12746TIP3   OH259728   4.172   6.513   5.180 -0.0943 -0.0977 -0.3143
12746TIP3    H159729   4.152   6.509   5.086 -0.6328 -0.5593 -0.1885
12746TIP3    H259730   4.098   6.469   5.221  0.6457 -0.8275  0.2615
12747TIP3   OH259731   4.052   3.806  15.581 -0.3151  0.3069  0.4020
12747TIP3    H159732   3.991   3.746  15.622 -0.6758  0.6910  0.4377
12747TIP3    H259733   4.033   3.799  15.487 -0.3573  0.3659  0.4061
12748TIP3   OH259734   0.571   2.432   1.038 -0.0664  0.3995 -0.6529
12748TIP3    H159735   0.643   2.400   1.091 -0.6819 -0.1289 -0.1142
12748TIP3    H259736   0.494   2.384   1.070 -0.8527  1.7292 -0.4553
12749TIP3   OH259737   1.356   3.602   6.137  0.8558 -0.2919 -0.1471
12749TIP3    H159738   1.375   3.510   6.119 -1.7268 -0.8182 -0.6378
12749TIP3    H259739   1.297   3.600   6.213  0.0205  0.8784 -0.7347
12750TIP3   OH259740   4.345   1.485  14.649 -0.2959 -0.2723 -0.3530
12750TIP3    H159741   4.362   1.570  14.608 -0.5484 -0.4492 -0.8266
12750TIP3    H259742   4.432   1.451  14.669 -0.1180 -0.6343 -1.6666
12751TIP3   OH259743   3.147   0.958   1.007 -0.3719 -0.9002  0.4238
12751TIP3    H159744   3.068   0.979   1.058 -1.2007 -0.5697 -0.9225
12751TIP3    H259745   3.219   0.971   1.068 -1.2333  0.7029  1.1797
12752TIP3   OH259746   5.754   4.529  12.336 -0.7270 -0.1317  0.5110
12752TIP3    H159747   5.752   4.533  12.432 -0.2795  0.7329  0.5004
12752TIP3    H259748   5.664   4.543  12.309 -0.5016  2.3501  0.7688
12753TIP3   OH259749   6.633   4.541   1.154 -0.3943 -0.3849  0.0903
12753TIP3    H159750   6.635   4.468   1.215  1.0275  0.4477  1.1196
12753TIP3    H259751   6.546   4.579   1.164 -1.7942 -2.8419 -1.6907
12754TIP3   OH259752   0.742   4.029  12.817 -0.2243 -0.0954  0.1945
12754TIP3    H159753   0.816   4.082  12.790 -1.6260  1.7807 -0.1155
12754TIP3    H259754   0.744   4.032  12.913 -0.5737  0.9359  0.1740
12755TIP3   OH259755   5.388   2.279  11.369  0.2520 -0.6750 -0.5763
12755TIP3    H159756   5.352   2.247  11.452 -1.3426 -0.4791 -1.1637
12755TIP3    H259757   5.319   2.333  11.332  0.9109 -0.8098 -2.0773
12756TIP3   OH259758   2.540   0.687   4.304  0.2430  0.8270  0.6724
12756TIP3    H159759   2.488   0.608   4.291 -1.1258  2.0696 -2.3287
12756TIP3    H259760   2.629   0.656   4.321 -0.4133 -1.3178  0.3845
12757TIP3   OH259761   5.756   3.420   0.690  0.4850  0.4023  0.2338
12757TIP3    H159762   5.839   3.460   0.666  0.9383 -0.5306  0.2095
12757TIP3    H259763   5.694   3.453   0.625  0.7324  1.4444  0.5126
12758TIP3   OH259764   3.881   2.067  11.289 -0.1352  0.3232 -0.0837
12758TIP3    H159765   3.806   2.084  11.233  0.3971  1.3215 -0.5108
12758TIP3    H259766   3.860   2.108  11.373  0.7352  2.3654 -0.8107
12759TIP3   OH259767   5.694   3.143   6.697 -0.4485 -0.2456 -0.0118
12759TIP3    H159768   5.698   3.108   6.608 -1.7717 -0.0853 -0.1549
12759TIP3    H259769   5.677   3.066   6.752  1.0353 -0.4481  0.2070
12760TIP3   OH259770   4.715   4.210  16.905 -0.1156  0.4314 -0.0325
12760TIP3    H159771   4.772   4.183  16.977  0.1844  1.3530  0.0920
12760TIP3    H259772   4.629   4.220  16.945 -0.2742 -0.5027 -0.1223
12761TIP3   OH259773   3.631   2.239  11.904 -0.1242  0.5333 -0.0533
12761TIP3    H159774   3.686   2.291  11.847  1.2751  0.1786  0.9063
12761TIP3    H259775   3.640   2.149  11.871 -1.0153  0.6278 -0.5612
12762TIP3   OH259776   3.064   2.049  12.227  0.3863  0.3072  0.3515
12762TIP3    H159777   3.024   1.997  12.297  0.1443 -0.9546 -0.6689
12762TIP3    H259778   3.018   2.020  12.148  0.2641  2.0924 -0.2766
12763TIP3   OH259779   3.607   6.041   6.016 -0.6440  0.2367 -0.6393
12763TIP3    H159780   3.646   6.056   6.103  0.3627 -0.1582 -1.0064
12763TIP3    H259781   3.519   6.011   6.035 -0.1665 -0.6658  0.2943
12764TIP3   OH259782   5.923   1.651  12.577  0.0407  0.2756 -0.1591
12764TIP3    H159783   5.995   1.677  12.518  0.8386  0.6256  0.9325
12764TIP3    H259784   5.929   1.556  12.582  0.1694  0.2700 -0.3956
12765TIP3   OH259785   1.575   6.220  13.787  0.0892 -0.3135 -0.1911
12765TIP3    H159786   1.514   6.148  13.768  2.1721 -1.9020 -1.2454
12765TIP3    H259787   1.624   6.232  13.706 -0.7948  3.0466 -0.3937
12766TIP3   OH259788   5.489   0.217   4.060 -0.2998  0.6729  0.0351
12766TIP3    H159789   5.499   0.166   4.140 -0.5231 -0.2435 -0.5047
12766TIP3    H259790   5.396   0.235   4.053 -0.5474 -0.8090 -0.9283
12767TIP3   OH259791   5.424   4.178   0.093 -0.0700  0.1568  0.5844
12767TIP3    H159792   5.462   4.095   0.121 -0.4286  0.2324  1.3128
12767TIP3    H259793   5.429   4.176  -0.003  1.9709  0.2814  0.6585
12768TIP3   OH259794   4.529   4.518   1.332 -0.4086 -0.9245 -0.1249
12768TIP3    H159795   4.592   4.553   1.268  0.2275 -0.6064  0.6569
12768TIP3    H259796   4.575   4.523   1.416 -1.5328 -0.5498  0.4939
12769TIP3   OH259797   4.309   1.262  12.742  0.1783 -0.0833 -0.7792
12769TIP3    H159798   4.355   1.198  12.688  0.6372  1.0202 -1.7380
12769TIP3    H259799   4.270   1.211  12.812  2.0564 -1.1966 -0.4785
12770TIP3   OH259800   0.801   3.451   2.225  0.1049  0.0450  0.4314
12770TIP3    H159801   0.892   3.436   2.199 -0.4256  0.1609 -1.6887
12770TIP3    H259802   0.806   3.521   2.291  1.4805  0.8224 -0.4474
12771TIP3   OH259803   2.950   4.138  16.117  0.0082 -0.2435  0.5737
12771TIP3    H159804   2.985   4.213  16.164 -2.0176  0.7759  0.5394
12771TIP3    H259805   3.027   4.083  16.100  1.2659  0.9327  2.1589
12772TIP3   OH259806   4.409   5.486  13.838 -0.5919  0.5404 -0.1500
12772TIP3    H159807   4.406   5.461  13.746  2.2927 -1.0429  0.0732
12772TIP3    H259808   4.396   5.581  13.838 -1.3700  0.4760 -2.0786
12773TIP3   OH259809   3.641   6.704   5.974  0.6284  0.5774  0.0942
12773TIP3    H159810   3.645   6.646   6.050 -2.3366  0.4565  0.2621
12773TIP3    H259811   3.593   6.654   5.908  0.4821  1.8175 -0.7672
12774TIP3   OH259812   4.598   6.433  14.721 -0.1094 -0.1440  0.2678
12774TIP3    H159813   4.671   6.379  14.754 -0.7583 -1.1336  0.1299
12774TIP3    H259814   4.588   6.501  14.787  1.8086  0.8359 -0.3639
12775TIP3   OH259815   4.480   5.798  13.642 -0.6590 -0.0121  0.5817
12775TIP3    H159816   4.417   5.791  13.570 -0.7077 -1.2184  0.7276
12775TIP3    H259817   4.557   5.751  13.612 -0.3078  0.3435  0.9176
12776TIP3   OH259818   1.969   6.282   2.132 -0.0292 -0.0402 -0.3090
12776TIP3    H159819   2.003   6.354   2.186  2.0382 -1.3850  0.3041
12776TIP3    H259820   1.984   6.310   2.042  1.0729  0.2071 -0.0712
12777TIP3   OH259821   6.001   2.310  14.918 -0.1358  0.0061 -0.1948
12777TIP3    H159822   5.975   2.396  14.884 -1.1229 -0.3588 -0.3694
12777TIP3    H259823   6.007   2.324  15.013  1.2590  0.6608 -0.3513
12778TIP3   OH259824   3.068   0.490   0.012 -0.5437 -0.2413 -0.2888
12778TIP3    H159825   3.077   0.440  -0.069  0.4630 -1.1380  0.3511
12778TIP3    H259826   3.151   0.536   0.021 -0.5864 -0.2740  0.3177
12779TIP3   OH259827   6.659   6.035   1.454  0.3590  0.2811 -0.3511
12779TIP3    H159828   6.588   5.972   1.446  0.5634  0.1325 -1.1013
12779TIP3    H259829   6.718   5.996   1.519 -0.5588  0.7273  0.7841
12780TIP3   OH259830   1.192   0.411   0.877 -0.2080  0.0965  0.0851
12780TIP3    H159831   1.146   0.422   0.961  1.7675  1.7377  1.0578
12780TIP3    H259832   1.137   0.457   0.813 -0.3786  1.2941  1.0496
12781TIP3   OH259833   2.865   5.406  11.229 -0.4070 -0.0777 -0.8846
12781TIP3    H159834   2.819   5.322  11.234 -1.2409  0.4334  0.9420
12781TIP3    H259835   2.831   5.448  11.150 -0.8873 -0.9367 -1.1450
12782TIP3   OH259836   1.015   4.095   3.637 -0.4774  0.1086 -0.2444
12782TIP3    H159837   0.975   4.149   3.705  0.3928 -0.1486  0.4935
12782TIP3    H259838   0.976   4.009   3.648  0.8251 -0.3585  1.0116
12783TIP3   OH259839   2.251   6.518  10.521  0.5934 -0.0303 -0.7090
12783TIP3    H159840   2.185   6.459  10.557 -0.4685  0.9373 -1.0138
12783TIP3    H259841   2.201   6.588  10.481  1.8144  1.5590  0.4108
12784TIP3   OH259842   3.460   3.188  16.166 -0.1079  0.5734  0.5481
12784TIP3    H159843   3.483   3.244  16.092 -1.7782 -0.5667 -0.9060
12784TIP3    H259844   3.479   3.242  16.243 -2.0051  3.3940 -0.7669
12785TIP3   OH259845   2.446   5.989   1.067  0.4022  0.1432  0.5514
12785TIP3    H159846   2.359   5.950   1.071 -0.0490  1.1305  0.6087
12785TIP3    H259847   2.436   6.076   1.106  1.0849  0.8337 -0.7513
12786TIP3   OH259848   4.423   4.924   6.151  0.0747 -0.1698 -0.1169
12786TIP3    H159849   4.395   4.999   6.099 -0.1114 -1.4522 -1.9998
12786TIP3    H259850   4.518   4.918   6.136  0.3050  0.4108  1.0482
12787TIP3   OH259851   6.702   4.404  17.068  0.1881 -0.1027 -0.4924
12787TIP3    H159852   6.722   4.437  16.981 -0.2295  1.4442 -0.0244
12787TIP3    H259853   6.758   4.327  17.078  2.3852  1.3644 -1.0102
12788TIP3   OH259854   4.812   0.675  11.509 -0.4129  0.3242 -0.1909
12788TIP3    H159855   4.831   0.769  11.511 -0.6176  0.3678 -0.2508
12788TIP3    H259856   4.784   0.659  11.419 -1.1725  0.3661  0.0346
12789TIP3   OH259857   1.569   2.357   0.068  0.7320  0.1869  0.2101
12789TIP3    H159858   1.546   2.448   0.082 -0.3087  0.4815 -2.7127
12789TIP3    H259859   1.655   2.360   0.027  0.8834 -0.1784  0.4946
12790TIP3   OH259860   6.465   3.755  13.432 -0.0769  0.0677  0.2385
12790TIP3    H159861   6.398   3.807  13.477  0.6389  0.2809  1.1043
12790TIP3    H259862   6.475   3.677  13.487 -1.9494 -1.6211 -1.6444
12791TIP3   OH259863   6.659   1.809   2.442  0.1811  0.4686 -0.0913
12791TIP3    H159864   6.679   1.898   2.468 -0.0052  0.1704  1.1535
12791TIP3    H259865   6.741   1.761   2.452  0.0486  0.2977  0.2151
12792TIP3   OH259866   6.025   4.465  13.797 -0.3564 -0.2222  0.1025
12792TIP3    H159867   6.049   4.540  13.851 -2.0296  0.6270 -0.2566
12792TIP3    H259868   6.022   4.391  13.858 -1.9332  0.6576  1.1671
12793TIP3   OH259869   6.725   3.216  12.755 -0.5784 -0.3810  0.6635
12793TIP3    H159870   6.688   3.258  12.677  0.0830 -1.3052 -0.1773
12793TIP3    H259871   6.805   3.174  12.724 -0.5485 -1.1645  1.7418
12794TIP3   OH259872   1.039   5.423  15.057 -0.1107 -0.1569  0.1546
12794TIP3    H159873   0.951   5.407  15.091  0.0358 -2.3512 -0.3526
12794TIP3    H259874   1.049   5.361  14.986  2.1119 -0.4720  0.6648
12795TIP3   OH259875   2.998   3.221   1.178 -0.1995 -0.2606  0.5671
12795TIP3    H159876   2.939   3.295   1.168  0.6682  0.4870  0.7664
12795TIP3    H259877   2.995   3.176   1.093  0.4559  0.9372 -0.1295
12796TIP3   OH259878   1.275   2.972  14.768 -0.1423  0.3478  0.2424
12796TIP3    H159879   1.366   2.944  14.775 -0.2864  0.2407  2.2139
12796TIP3    H259880   1.237   2.912  14.704  0.9294 -0.2432  0.1324
12797TIP3   OH259881   2.250   3.149  10.662 -0.0104  0.2636  0.3208
12797TIP3    H159882   2.310   3.104  10.603  0.5255  0.9844  0.3060
12797TIP3    H259883   2.186   3.082  10.686 -0.2313 -0.0476 -1.0584
12798TIP3   OH259884   6.621   1.811   5.451  0.2698  0.0133 -0.3005
12798TIP3    H159885   6.703   1.821   5.402  0.5365  0.9642  0.3026
12798TIP3    H259886   6.620   1.719   5.479 -0.5682 -0.9589 -3.1997
12799TIP3   OH259887   2.309   1.004   5.197 -0.5109 -0.3723  0.1864
12799TIP3    H159888   2.328   0.911   5.183  1.5950 -0.1640  1.2145
12799TIP3    H259889   2.306   1.042   5.109 -2.4651 -1.5432 -0.3112
12800TIP3   OH259890   0.262   6.352   1.916 -0.3189  0.5316  0.0555
12800TIP3    H159891   0.199   6.407   1.961  0.5067  1.5802 -0.0389
12800TIP3    H259892   0.252   6.375   1.824  1.3506  1.9923  0.1826
12801TIP3   OH259893   1.258   1.424  12.902  0.2391  0.1794 -0.0802
12801TIP3    H159894   1.288   1.514  12.897 -1.8600  0.9216 -0.0976
12801TIP3    H259895   1.198   1.414  12.828 -1.2446 -0.5323  1.1643
12802TIP3   OH259896   2.547   0.345  16.811  0.1433 -0.0164  0.2205
12802TIP3    H159897   2.575   0.298  16.733  0.3744  0.6068 -0.0784
12802TIP3    H259898   2.464   0.386  16.786  1.0973  1.6910 -0.3233
12803TIP3   OH259899   6.764   3.433   2.514 -0.7586 -0.0421  0.2006
12803TIP3    H159900   6.718   3.499   2.461  0.2478 -0.2751 -1.0053
12803TIP3    H259901   6.842   3.479   2.547 -0.2469 -0.5110 -0.3377
12804TIP3   OH259902   2.112   1.973   6.280  0.1755 -0.1254 -0.3934
12804TIP3    H159903   2.061   2.016   6.349 -0.0482 -1.6255  0.4276
12804TIP3    H259904   2.048   1.953   6.212  0.3244  0.9997 -0.8901
12805TIP3   OH259905   5.959   5.344   3.439  0.0275 -0.7648 -0.2591
12805TIP3    H159906   6.037   5.298   3.407  0.2796 -0.7842  0.3677
12805TIP3    H259907   5.902   5.274   3.472 -1.5769 -1.0803 -3.3214
12806TIP3   OH259908   5.964   5.517   4.362  0.0673 -0.1652 -0.4180
12806TIP3    H159909   5.897   5.492   4.298 -0.0674  0.8341 -0.6916
12806TIP3    H259910   5.915   5.528   4.444  0.4767 -3.0125  0.2989
12807TIP3   OH259911   3.698   4.377   0.945 -0.2585  0.4273 -0.0651
12807TIP3    H159912   3.645   4.444   0.902 -1.5087 -1.5650 -1.7966
12807TIP3    H259913   3.742   4.331   0.874  1.1669 -0.1548  1.1295
12808TIP3   OH259914   5.245   2.776  11.203 -0.0219 -0.1564 -0.5047
12808TIP3    H159915   5.261   2.869  11.213  0.0835 -0.2288  0.0332
12808TIP3    H259916   5.283   2.753  11.118  1.3460 -0.0231  0.0533
12809TIP3   OH259917   2.497   5.635  16.036  0.8802 -0.5249  0.3502
12809TIP3    H159918   2.575   5.655  16.088  2.9493 -0.4318 -2.5892
12809TIP3    H259919   2.433   5.702  16.062  2.5691  0.8226  1.2089
12810TIP3   OH259920   5.510   3.964  13.814  0.2724  0.1696 -0.0130
12810TIP3    H159921   5.584   3.911  13.843  2.0493  2.0509 -0.8548
12810TIP3    H259922   5.498   4.029  13.883 -0.0867  0.3603 -0.2522
12811TIP3   OH259923   4.760   6.762  11.854 -0.6817  0.3824 -0.2772
12811TIP3    H159924   4.776   6.851  11.824 -0.0543 -0.3569 -2.3171
12811TIP3    H259925   4.685   6.732  11.803 -0.6249 -0.3772  0.0703
12812TIP3   OH259926   2.625   4.888   3.368 -0.2671  0.0028 -0.1033
12812TIP3    H159927   2.571   4.939   3.307  1.9656  0.1069 -2.1292
12812TIP3    H259928   2.652   4.951   3.435  0.2948  0.8751 -1.1135
12813TIP3   OH259929   2.614   0.010  11.007 -0.2654 -0.2936 -0.6648
12813TIP3    H159930   2.665   0.090  11.021 -0.7326 -0.2339  0.9377
12813TIP3    H259931   2.526   0.041  10.985 -0.4518 -0.3369 -0.0230
12814TIP3   OH259932   4.547   2.504  12.311  0.7273  0.0151  0.7052
12814TIP3    H159933   4.523   2.458  12.392  1.4408  1.3774  1.7278
12814TIP3    H259934   4.472   2.559  12.291 -0.5885 -2.2910 -1.1348
12815TIP3   OH259935   5.644   2.584  14.655  0.5915 -0.1174 -0.2712
12815TIP3    H159936   5.695   2.507  14.678 -0.5134 -0.3929  1.4276
12815TIP3    H259937   5.556   2.550  14.638 -0.3098  0.8620  2.0218
12816TIP3   OH259938   0.879   3.692  16.073 -0.1417  0.1968 -0.0427
12816TIP3    H159939   0.966   3.705  16.038 -0.4084  0.4108 -0.6376
12816TIP3    H259940   0.881   3.604  16.111  0.7408  0.7317  1.2086
12817TIP3   OH259941   4.532   3.326  15.968 -0.1609  0.7510 -0.1704
12817TIP3    H159942   4.522   3.275  16.049 -0.1601 -0.7358 -1.0636
12817TIP3    H259943   4.532   3.417  15.997  1.6448  0.2327  1.7132
12818TIP3   OH259944   1.024   4.798  12.851 -0.3008 -0.1130 -0.2076
12818TIP3    H159945   1.005   4.704  12.857  1.0673 -0.4330 -0.3392
12818TIP3    H259946   1.054   4.822  12.938 -0.4914  0.1591 -0.2183
12819TIP3   OH259947   3.974   0.079   0.762 -0.8577  0.7381 -0.3329
12819TIP3    H159948   3.957   0.067   0.856  2.2313  3.0581  0.6974
12819TIP3    H259949   3.999  -0.008   0.731 -1.0614  0.0904  1.2134
12820TIP3   OH259950   4.386   5.208  16.087 -0.4401 -0.5436 -0.2224
12820TIP3    H159951   4.476   5.207  16.054 -0.4457  0.7608 -0.2958
12820TIP3    H259952   4.395   5.235  16.179 -0.6760 -1.4407  0.0759
12821TIP3   OH259953   4.453   6.803   2.039 -0.2198  0.5727  0.6155
12821TIP3    H159954   4.518   6.873   2.033  0.2437  0.1544  0.7664
12821TIP3    H259955   4.411   6.816   2.124 -1.0067  1.4199  0.1234
12822TIP3   OH259956   5.147   6.503  11.855  0.0575 -0.5367  0.0422
12822TIP3    H159957   5.179   6.544  11.775 -0.7320  1.1788  0.5669
12822TIP3    H259958   5.052   6.506  11.847 -0.0817  1.0354  1.6612
12823TIP3   OH259959   6.127   5.849   4.404 -0.5061 -0.1735  0.1793
12823TIP3    H159960   6.039   5.833   4.369  0.5366 -1.5477 -1.9761
12823TIP3    H259961   6.154   5.765   4.441  0.6451 -0.3254 -0.9556
12824TIP3   OH259962   4.211   2.921   0.140  0.3994  0.2880  0.3031
12824TIP3    H159963   4.305   2.902   0.148  0.2140 -0.9403 -0.0915
12824TIP3    H259964   4.197   2.927   0.045  0.4243  2.5125  0.3989
12825TIP3   OH259965   1.406   2.407  15.563  0.6388 -0.5783 -0.7243
12825TIP3    H159966   1.381   2.342  15.497  0.9382 -0.4123 -1.0061
12825TIP3    H259967   1.360   2.487  15.535  1.9216 -0.1072 -1.5904
12826TIP3   OH259968   1.943   0.438   2.428 -0.2033  0.6612  0.0358
12826TIP3    H159969   1.875   0.438   2.361  0.9909  0.2869 -1.2317
12826TIP3    H259970   1.921   0.512   2.485 -1.2816  0.9572 -0.7334
12827TIP3   OH259971   6.677   1.899  14.326  0.1056  0.0302  0.2120
12827TIP3    H159972   6.605   1.955  14.356  0.7527  2.3777 -2.1432
12827TIP3    H259973   6.737   1.895  14.400 -1.0543  0.5974  1.2115
12828TIP3   OH259974   0.117   0.920  13.402  0.2442 -0.3569 -0.3015
12828TIP3    H159975   0.172   0.968  13.340 -0.3549  1.1648  0.2877
12828TIP3    H259976   0.088   0.987  13.465  0.3360 -1.7188  1.2688
12829TIP3   OH259977   5.219   4.826   3.290  0.0773  0.5692  0.3287
12829TIP3    H159978   5.292   4.763   3.294  1.2271  1.8328 -0.0893
12829TIP3    H259979   5.246   4.890   3.225 -1.6244  0.8437 -0.1418
12830TIP3   OH259980   6.283   2.621  13.401  0.3551  0.3941 -0.0907
12830TIP3    H159981   6.284   2.715  13.386  2.6481  0.1692 -2.1611
12830TIP3    H259982   6.231   2.585  13.329  0.0224  0.0266  0.3227
12831TIP3   OH259983   0.660   5.392  10.862  0.4495  0.0029 -0.5909
12831TIP3    H159984   0.626   5.452  10.796 -1.1968 -0.5179 -0.2557
12831TIP3    H259985   0.688   5.315  10.813  0.1815  0.0278 -0.7825
12832TIP3   OH259986   4.689   2.505   4.028  0.1656  0.1562 -0.6449
12832TIP3    H159987   4.765   2.501   4.087  0.5188  1.1725 -1.0007
12832TIP3    H259988   4.660   2.596   4.033 -1.4668 -0.3684 -0.0020
12833TIP3   OH259989   5.796   3.610  12.520  0.1715  0.2063  0.2286
12833TIP3    H159990   5.785   3.666  12.443  1.2442  0.4651  0.2429
12833TIP3    H259991   5.708   3.604  12.558 -0.0211  1.6651  0.0730
12834TIP3   OH259992   1.844   3.062   2.462 -0.2810 -0.1421 -0.9107
12834TIP3    H159993   1.802   3.097   2.540  1.8346  0.6631 -0.0713
12834TIP3    H259994   1.786   3.088   2.390 -0.9412  1.4010  0.1238
12835TIP3   OH259995   1.313   1.877  16.240  0.5191  0.5281  0.5124
12835TIP3    H159996   1.334   1.970  16.252  0.7277  0.4878  0.4664
12835TIP3    H259997   1.268   1.852  16.321  1.0536  0.5033  0.8053
12836TIP3   OH259998   4.608   1.411   0.358 -0.1868  0.2521 -0.0338
12836TIP3    H159999   4.521   1.373   0.343 -0.7971  1.8725 -0.9713
12836TIP3    H260000   4.659   1.385   0.282 -0.3808  0.6401 -0.3060
12837TIP3   OH260001   3.565   6.065  17.141  0.7442  0.0177  0.4755
12837TIP3    H160002   3.556   6.126  17.215  0.2358  1.0533 -0.4135
12837TIP3    H260003   3.637   6.101  17.090  0.4286 -0.1196 -0.0714
12838TIP3   OH260004   0.195   3.668  11.717  0.2485  0.1530 -0.2382
12838TIP3    H160005   0.148   3.737  11.669 -0.0138  0.3027  0.2286
12838TIP3    H260006   0.281   3.707  11.735  0.6700 -0.2170 -1.3227
12839TIP3   OH260007   2.720   5.095   3.547  0.1445 -0.4470  0.5316
12839TIP3    H160008   2.686   5.075   3.634  0.5122 -0.1214  0.7516
12839TIP3    H260009   2.811   5.119   3.561 -0.2457  1.3066  0.2927
12840TIP3   OH260010   1.011   2.606   2.041  1.0375  0.2838 -0.0503
12840TIP3    H160011   1.066   2.545   2.089  0.5199  0.9994  1.4997
12840TIP3    H260012   0.929   2.558   2.026  0.8979  0.3433  0.5188
12841TIP3   OH260013   4.174   3.468   1.831 -0.0453 -0.3440  0.5921
12841TIP3    H160014   4.115   3.394   1.820  0.8360 -1.3007  1.9139
12841TIP3    H260015   4.248   3.448   1.773 -1.3644  1.3700 -1.8904
12842TIP3   OH260016   5.092   5.089  11.554  0.0710 -0.1874 -0.1245
12842TIP3    H160017   5.159   5.027  11.525 -0.5780 -0.6406 -0.6803
12842TIP3    H260018   5.141   5.158  11.599  1.0885  0.2913 -1.8695
12843TIP3   OH260019   2.680   4.623   6.033  0.0649 -0.0190 -0.2303
12843TIP3    H160020   2.595   4.578   6.033 -0.1503  0.3759 -0.6887
12843TIP3    H260021   2.735   4.571   6.091 -0.6446  0.0009  0.4681
12844TIP3   OH260022   6.258   0.335   0.481 -0.1887  0.6382  0.5198
12844TIP3    H160023   6.311   0.368   0.409 -0.0404  1.1521  0.8608
12844TIP3    H260024   6.183   0.395   0.485 -0.1948  0.6143  0.7903
12845TIP3   OH260025   5.730   1.179   1.169 -0.4525  0.2676 -0.3323
12845TIP3    H160026   5.777   1.233   1.106  0.1130  0.6976  0.4407
12845TIP3    H260027   5.668   1.129   1.116  2.7527 -2.4770 -1.8515
12846TIP3   OH260028   0.724   3.464  11.221 -0.1754 -0.8738 -0.0903
12846TIP3    H160029   0.729   3.428  11.310  0.6848 -2.6736 -0.8126
12846TIP3    H260030   0.630   3.471  11.204 -0.3619 -1.4371  0.6175
12847TIP3   OH260031   1.593   2.983  13.996  0.1737 -0.4405  0.1438
12847TIP3    H160032   1.503   2.972  13.963  0.8035 -1.0219 -1.4971
12847TIP3    H260033   1.587   3.055  14.059 -0.9714  1.5540 -2.0656
12848TIP3   OH260034   0.803   2.899   1.329 -0.0956 -0.6909 -0.1381
12848TIP3    H160035   0.899   2.887   1.330 -0.0659 -0.4978  1.1038
12848TIP3    H260036   0.779   2.889   1.237  1.2260  0.1306 -0.6102
12849TIP3   OH260037   4.192   1.877   2.933 -0.2063  0.0147  0.2925
12849TIP3    H160038   4.196   1.949   2.996 -1.3499  3.2623 -2.9750
12849TIP3    H260039   4.098   1.860   2.922 -0.0454 -0.3442 -0.6472
12850TIP3   OH260040   5.583   3.302  13.694  0.4445  0.2837 -0.2892
12850TIP3    H160041   5.604   3.265  13.780  0.0612  1.6406  0.4128
12850TIP3    H260042   5.645   3.375  13.684  0.2591  0.3482 -1.0193
12851TIP3   OH260043   0.471   6.283   2.320 -0.2141 -0.3904 -0.1454
12851TIP3    H160044   0.550   6.338   2.327 -0.6597  0.1808  0.4991
12851TIP3    H260045   0.450   6.284   2.226 -0.3809  0.7979 -0.1108
12852TIP3   OH260046   5.331   2.049  14.546  0.4708  0.4869  0.2108
12852TIP3    H160047   5.422   2.070  14.524  0.7775  1.0152  1.8517
12852TIP3    H260048   5.337   1.964  14.591  0.0274  0.0781 -0.4888
12853TIP3   OH260049   3.915   4.539   0.787  0.1470  0.6002  0.0282
12853TIP3    H160050   3.865   4.497   0.717 -0.1010  0.7048  0.1410
12853TIP3    H260051   3.955   4.467   0.835 -0.7617  0.4430  0.5890
12854TIP3   OH260052   2.108   1.432   4.549 -0.4210 -0.1213  0.0265
12854TIP3    H160053   2.076   1.408   4.461 -2.0169 -0.8630  0.7637
12854TIP3    H260054   2.043   1.495   4.581 -0.0504 -0.1389  0.8159
12855TIP3   OH260055   6.096   2.864   3.695  0.1633 -0.1823 -0.1161
12855TIP3    H160056   6.034   2.879   3.766  0.5273  1.0263 -0.0189
12855TIP3    H260057   6.132   2.777   3.711 -0.0389 -0.0791  0.9687
12856TIP3   OH260058   6.064   4.770  12.859 -0.1752  0.2602  0.1193
12856TIP3    H160059   6.039   4.835  12.925 -0.9691  0.9489 -0.8304
12856TIP3    H260060   6.004   4.697  12.873 -0.2493  0.3481  0.2577
12857TIP3   OH260061   6.185   2.169   3.531  0.1783 -0.1875  0.3835
12857TIP3    H160062   6.137   2.236   3.483 -0.0431 -0.1258  0.6844
12857TIP3    H260063   6.234   2.218   3.597  0.5703 -0.2600  0.1487
12858TIP3   OH260064   3.993   4.365  15.143  0.4625  0.1740  0.6219
12858TIP3    H160065   4.085   4.347  15.161 -0.2423 -2.6571  1.9877
12858TIP3    H260066   3.986   4.460  15.145  3.1898  0.4351  1.3148
12859TIP3   OH260067   2.078   1.162  15.227  0.1465  0.2701 -0.2600
12859TIP3    H160068   1.997   1.118  15.253  0.5017 -0.2583 -0.0285
12859TIP3    H260069   2.050   1.232  15.169 -0.4280 -0.2554 -0.6227
12860TIP3   OH260070   1.963   5.305   6.081  0.8358 -0.3593 -0.2000
12860TIP3    H160071   1.899   5.301   6.010  0.6458 -0.8025 -0.0047
12860TIP3    H260072   1.971   5.214   6.111  0.3011 -0.0481  0.9066
12861TIP3   OH260073   2.096   1.051   5.654 -0.2136  0.0351  0.5948
12861TIP3    H160074   2.088   1.018   5.564 -0.4364 -3.0857  1.6340
12861TIP3    H260075   2.189   1.067   5.666  0.0255 -1.0382  0.2573
12862TIP3   OH260076   2.087   5.555  12.374 -0.0566  0.2325 -0.1345
12862TIP3    H160077   2.178   5.524  12.375 -0.2046 -0.2028  0.5657
12862TIP3    H260078   2.035   5.475  12.374 -0.4454  0.4755 -1.2104
12863TIP3   OH260079   4.567   6.128  15.381  0.1133  0.4633  0.1842
12863TIP3    H160080   4.516   6.051  15.407  0.0990 -0.5944 -2.6268
12863TIP3    H260081   4.643   6.127  15.438 -0.0328 -1.5004  0.4040
12864TIP3   OH260082   6.457   1.067   1.483  0.0547  0.2374 -0.0634
12864TIP3    H160083   6.435   1.014   1.559  1.2933 -1.3344 -0.7326
12864TIP3    H260084   6.372   1.092   1.445 -0.6256 -2.3539 -0.4158
12865TIP3   OH260085   6.826   2.045   4.124  0.1791  0.4029  0.2203
12865TIP3    H160086   6.831   1.963   4.076  0.5922 -0.1468  1.1744
12865TIP3    H260087   6.912   2.086   4.111 -0.3499  1.1736 -1.0600
12866TIP3   OH260088   1.675   3.020  13.470 -0.2034  0.1885  0.0134
12866TIP3    H160089   1.684   3.082  13.398  2.2785  0.5193  0.5385
12866TIP3    H260090   1.598   3.050  13.517  1.2540  3.3683  0.6464
12867TIP3   OH260091   4.870   5.302   3.381  0.2702 -0.7939 -0.4513
12867TIP3    H160092   4.872   5.257   3.465  0.2846 -0.5479 -0.3187
12867TIP3    H260093   4.900   5.391   3.401 -1.7180 -0.1079 -0.3227
12868TIP3   OH260094   1.685   3.697  14.821 -0.0432 -0.0214  0.0235
12868TIP3    H160095   1.696   3.779  14.773 -3.0637  0.9121  0.7025
12868TIP3    H260096   1.627   3.644  14.766 -3.0740  0.8272  2.1403
12869TIP3   OH260097   3.311   4.399  16.811 -0.1233 -0.4320  0.1221
12869TIP3    H160098   3.285   4.491  16.806  1.0372 -0.1234 -0.4165
12869TIP3    H260099   3.246   4.353  16.757 -0.1688  0.1855 -0.3629
12870TIP3   OH260100   6.249   5.828  11.848  0.1777 -0.3257  1.1694
12870TIP3    H160101   6.160   5.826  11.883 -0.6414 -0.7864 -0.8095
12870TIP3    H260102   6.256   5.750  11.795  0.9482  0.8495 -0.5448
12871TIP3   OH260103   5.525   5.215   0.269  0.0387 -0.2741  0.3736
12871TIP3    H160104   5.444   5.166   0.253  0.5427 -0.3818 -2.3739
12871TIP3    H260105   5.554   5.185   0.355 -3.0712  0.1872  1.7148
12872TIP3   OH260106   3.398   3.512  10.981 -0.3207 -0.1969 -0.1850
12872TIP3    H160107   3.378   3.520  10.887  1.7439  0.0108 -0.6701
12872TIP3    H260108   3.388   3.419  11.000  1.1226 -0.6018 -1.1523
12873TIP3   OH260109   1.276   4.105  17.047  0.1776  0.1243  0.0055
12873TIP3    H160110   1.338   4.091  16.975 -0.5837 -0.4969 -0.5400
12873TIP3    H260111   1.308   4.050  17.118 -0.3077 -1.0071 -0.6252
12874TIP3   OH260112   1.012   4.480  16.447 -0.3745 -0.0000  0.5816
12874TIP3    H160113   1.097   4.481  16.492 -1.5651 -2.0338  3.1391
12874TIP3    H260114   0.948   4.489  16.517 -2.3058  0.0293 -1.1206
12875TIP3   OH260115   3.048   5.166  15.084 -0.0936 -0.2740 -0.6633
12875TIP3    H160116   3.043   5.261  15.071  1.5757 -0.0427  0.1037
12875TIP3    H260117   3.069   5.156  15.177 -2.3167 -1.5135 -0.2271
12876TIP3   OH260118   0.549   2.302   3.801 -0.5318  0.1810  0.2887
12876TIP3    H160119   0.584   2.214   3.786 -0.3033  0.3493 -0.2097
12876TIP3    H260120   0.616   2.360   3.765 -0.8810  0.5452  0.2210
12877TIP3   OH260121   1.953   3.420  16.243 -0.5788  0.2143  0.4510
12877TIP3    H160122   1.967   3.459  16.156  1.0557 -0.3600  0.4185
12877TIP3    H260123   1.872   3.460  16.274 -2.5307 -1.2164 -2.2763
12878TIP3   OH260124   2.641   3.282  16.699 -0.5808 -0.1356  0.0182
12878TIP3    H160125   2.613   3.234  16.776 -0.9910 -1.0185 -0.6615
12878TIP3    H260126   2.611   3.229  16.625 -1.4120  1.3456 -0.7689
12879TIP3   OH260127   3.579   1.888  13.723  0.1631 -0.2741  0.2143
12879TIP3    H160128   3.616   1.948  13.787 -2.5151 -1.3886  3.0273
12879TIP3    H260129   3.508   1.938  13.682  1.0783  0.0218 -1.0709
12880TIP3   OH260130   1.214   6.679  16.847  0.2257 -0.4730  0.1792
12880TIP3    H160131   1.136   6.693  16.793  0.7470 -1.1446 -0.7958
12880TIP3    H260132   1.183   6.630  16.923 -0.2772 -0.8790 -0.2861
12881TIP3   OH260133   5.022   4.254  11.659  0.0084 -0.0417 -0.4093
12881TIP3    H160134   4.945   4.197  11.658  1.1597 -1.6747  0.0391
12881TIP3    H260135   5.029   4.286  11.569  0.0462 -1.6345 -1.0059
12882TIP3   OH260136   4.740   1.531   3.874 -0.0905  0.3008  0.7667
12882TIP3    H160137   4.705   1.606   3.923  1.4944  0.5084  1.6666
12882TIP3    H260138   4.785   1.571   3.799 -0.1599  0.1826  0.6632
12883TIP3   OH260139   4.129   3.711  14.023 -0.8241 -0.3000  0.2873
12883TIP3    H160140   4.046   3.684  14.062 -0.9055 -0.5117 -0.0324
12883TIP3    H260141   4.190   3.641  14.047 -1.2025 -1.1440 -1.1476
12884TIP3   OH260142   0.294   2.389   3.061 -0.3234  0.1808 -0.3119
12884TIP3    H160143   0.367   2.444   3.088 -2.3982  4.0591 -1.8363
12884TIP3    H260144   0.230   2.398   3.132 -1.2762  1.0918 -1.2490
12885TIP3   OH260145   1.326   2.970  10.988 -0.4900 -0.6665 -0.1205
12885TIP3    H160146   1.243   3.002  11.024 -1.1432 -1.6200 -0.7389
12885TIP3    H260147   1.393   3.020  11.035 -1.4167  3.1935 -2.4035
12886TIP3   OH260148   6.419   4.888  16.758  0.0461  0.3362  0.1506
12886TIP3    H160149   6.491   4.831  16.730  1.3943  2.6306 -1.4223
12886TIP3    H260150   6.439   4.908  16.850  1.8897  1.4218 -0.4117
12887TIP3   OH260151   6.000   1.652  11.300 -0.1593  0.6433  1.0557
12887TIP3    H160152   5.992   1.730  11.245  1.1325  0.3432  0.4119
12887TIP3    H260153   5.943   1.587  11.260 -1.1619  1.2143  1.5350
12888TIP3   OH260154   5.597   6.094  12.915  0.6019  0.3667 -0.3507
12888TIP3    H160155   5.584   6.135  12.829 -3.4284 -0.0979 -0.1511
12888TIP3    H260156   5.549   6.149  12.976 -0.8757 -1.9630  0.7246
12889TIP3   OH260157   2.544   2.940  16.209 -0.0190  0.3031  0.2174
12889TIP3    H160158   2.469   2.907  16.260  0.9691  0.6104  1.9732
12889TIP3    H260159   2.610   2.872  16.218  0.4283  0.7032 -0.0242
12890TIP3   OH260160   3.075   1.495   0.259 -0.4147  0.0122 -0.2579
12890TIP3    H160161   3.041   1.416   0.218 -2.4492  1.1129 -0.8609
12890TIP3    H260162   3.139   1.464   0.323 -0.4584 -2.0292 -1.1481
12891TIP3   OH260163   5.004   1.862   1.278 -0.3336  0.5567  0.1918
12891TIP3    H160164   5.079   1.860   1.219  1.1741  1.4474  1.9829
12891TIP3    H260165   4.968   1.950   1.269 -0.6210  0.4162 -0.0282
12892TIP3   OH260166   0.383   4.749   3.938 -0.1480 -0.7248 -0.3642
12892TIP3    H160167   0.410   4.793   4.018  1.9016 -0.5395 -1.1149
12892TIP3    H260168   0.393   4.815   3.869  1.0300 -1.7245 -1.1974
12893TIP3   OH260169   0.020   5.444  15.310  0.0444 -0.4441 -0.3004
12893TIP3    H160170   0.093   5.389  15.338  0.7958 -0.4339 -2.1147
12893TIP3    H260171  -0.011   5.403  15.229 -0.9653  0.4346 -0.3796
12894TIP3   OH260172   6.730   5.916   1.878  0.2471 -0.1940  0.5007
12894TIP3    H160173   6.717   5.919   1.973  0.5196 -1.2940  0.5826
12894TIP3    H260174   6.801   5.854   1.865 -1.7300 -2.3813 -0.5811
12895TIP3   OH260175   0.084   6.017  15.754 -0.3960  0.0489 -0.1992
12895TIP3    H160176   0.113   6.053  15.838  0.6478 -1.7378  0.2611
12895TIP3    H260177   0.035   6.088  15.713  1.6829  2.0563  0.5598
12896TIP3   OH260178   4.242   2.970   3.720 -0.0214  0.6179 -0.8319
12896TIP3    H160179   4.250   2.944   3.629 -1.1841 -1.1515 -0.4694
12896TIP3    H260180   4.257   3.065   3.719 -0.5048  0.7169 -2.9118
12897TIP3   OH260181   0.354   1.445  10.600  0.0180  0.4181  0.3415
12897TIP3    H160182   0.337   1.532  10.563  0.1421  1.0453  1.6953
12897TIP3    H260183   0.307   1.385  10.542 -3.1315  1.7049  1.3398
12898TIP3   OH260184   6.645   4.337  14.143 -0.9841 -0.0227 -0.0014
12898TIP3    H160185   6.735   4.361  14.120 -0.7038 -0.3502  0.7298
12898TIP3    H260186   6.654   4.273  14.213 -1.8010  1.0392  1.1257
12899TIP3   OH260187   3.792   1.693  15.567  0.3290 -0.2523 -0.2824
12899TIP3    H160188   3.887   1.704  15.573  0.2080  1.1274 -0.4600
12899TIP3    H260189   3.760   1.718  15.654  0.1236 -0.7385 -0.2165
12900TIP3   OH260190   2.694   0.622   3.800  0.3166 -0.1423  0.4753
12900TIP3    H160191   2.762   0.555   3.794 -0.2321 -0.7546  0.9608
12900TIP3    H260192   2.644   0.599   3.878 -0.4853  0.2585  0.0962
12901TIP3   OH260193   1.832   0.570  14.645  0.0017  0.3139 -0.4983
12901TIP3    H160194   1.915   0.612  14.666  0.0738 -0.6077  1.1922
12901TIP3    H260195   1.765   0.626  14.684 -0.0395 -0.0218 -0.0874
12902TIP3   OH260196   5.817   0.803   1.672  0.4060  0.1836  0.4773
12902TIP3    H160197   5.734   0.804   1.720  1.0793  1.7947  1.6990
12902TIP3    H260198   5.806   0.734   1.607 -1.6139 -0.1376  1.0862
12903TIP3   OH260199   3.564   5.702   2.813  0.6994  0.2245  0.2953
12903TIP3    H160200   3.544   5.609   2.805 -0.4631  0.5672 -1.6019
12903TIP3    H260201   3.599   5.726   2.727 -0.1331  1.7452  0.3393
12904TIP3   OH260202   3.743   1.592   4.644  0.1617  0.4538 -0.5309
12904TIP3    H160203   3.708   1.516   4.690  1.3147 -1.4700 -2.6129
12904TIP3    H260204   3.826   1.611   4.689  0.7288 -0.6887 -1.0485
12905TIP3   OH260205   3.974   5.759   2.893  0.8101  0.1408 -0.2613
12905TIP3    H160206   3.906   5.797   2.948  2.4300  0.3281  1.7424
12905TIP3    H260207   3.953   5.789   2.804 -0.7708  1.5509  0.5363
12906TIP3   OH260208   5.819   0.674  14.342  0.0706 -1.2595 -0.0801
12906TIP3    H160209   5.887   0.701  14.280  0.2061  1.2161  0.9979
12906TIP3    H260210   5.866   0.665  14.425 -0.8951  1.2261  0.8497
12907TIP3   OH260211   3.746   2.269  14.060  0.0484  0.2251 -0.3902
12907TIP3    H160212   3.669   2.315  14.095  0.8398  2.2379 -1.1026
12907TIP3    H260213   3.815   2.287  14.124  0.3490 -0.0527 -0.6378
12908TIP3   OH260214   3.515   4.188  13.215  0.4515 -0.5213 -0.7625
12908TIP3    H160215   3.499   4.115  13.156 -0.1275  0.7893 -2.2895
12908TIP3    H260216   3.610   4.201  13.213  0.4814 -0.7772 -1.0440
12909TIP3   OH260217   5.994   6.720  13.745 -0.5184 -0.0509 -0.1256
12909TIP3    H160218   6.066   6.777  13.774 -0.8781  0.3070  0.0682
12909TIP3    H260219   5.966   6.675  13.825 -1.1684  0.5518 -0.0029
12910TIP3   OH260220   6.164   3.764   5.838 -0.2648  0.0951 -0.2346
12910TIP3    H160221   6.256   3.738   5.842 -0.3734 -0.3438 -0.4494
12910TIP3    H260222   6.119   3.700   5.895 -0.1091  1.8995  2.0608
12911TIP3   OH260223   6.072   1.258  15.780  0.4948  0.3146 -0.6633
12911TIP3    H160224   6.038   1.339  15.819  0.9839  0.3960 -0.3911
12911TIP3    H260225   6.159   1.282  15.748  1.0423 -0.3324  0.2879
12912TIP3   OH260226   6.735   0.667   2.269  0.2625 -0.0294  0.5427
12912TIP3    H160227   6.754   0.751   2.311  0.5654 -0.3413  1.0434
12912TIP3    H260228   6.672   0.625   2.328 -1.7259  0.8149 -0.8803
12913TIP3   OH260229   3.231   2.597  15.255 -0.3375  0.4511 -0.0491
12913TIP3    H160230   3.312   2.624  15.212 -0.5078  0.2458 -0.4994
12913TIP3    H260231   3.207   2.515  15.212 -1.4064  1.1000 -0.7302
12914TIP3   OH260232   0.118   1.709   1.876  0.6546  0.1811  0.0930
12914TIP3    H160233   0.046   1.747   1.826 -0.3958 -1.4294  0.2963
12914TIP3    H260234   0.173   1.666   1.811 -2.4182 -4.8102  0.1721
12915TIP3   OH260235   1.412   5.683  13.294  0.0681  0.0251  0.4171
12915TIP3    H160236   1.374   5.686  13.382  0.3844 -0.5146  0.5760
12915TIP3    H260237   1.340   5.707  13.236  0.1129  1.3514  0.8905
12916TIP3   OH260238   6.399   6.720   4.587  0.3190  0.2163 -0.2776
12916TIP3    H160239   6.338   6.744   4.517  2.8435 -0.9903 -3.1951
12916TIP3    H260240   6.456   6.796   4.596 -1.5837  1.4241  2.5823
12917TIP3   OH260241   5.416   2.463   2.496 -0.0887  0.2643  0.2855
12917TIP3    H160242   5.502   2.421   2.496  0.3701  1.1117  1.7206
12917TIP3    H260243   5.434   2.555   2.482 -0.9643  0.2175 -1.4149
12918TIP3   OH260244   1.168   4.731  16.588 -0.0411  0.0540 -0.0415
12918TIP3    H160245   1.234   4.789  16.627 -0.2945  0.9409 -0.8906
12918TIP3    H260246   1.208   4.644  16.591  0.0305  0.1013  2.0034
12919TIP3   OH260247   4.774   0.800   0.495 -0.2267  0.1001 -0.4787
12919TIP3    H160248   4.758   0.792   0.589 -1.5987 -0.6154 -0.7527
12919TIP3    H260249   4.760   0.711   0.461  0.8957  0.2039 -1.2862
12920TIP3   OH260250   2.161   5.103   4.949  1.0152  0.0250  0.7647
12920TIP3    H160251   2.149   5.024   5.002  0.3186 -0.9322 -0.7605
12920TIP3    H260252   2.083   5.107   4.894  0.3652  2.5634  1.7363
12921TIP3   OH260253   5.795   4.351   3.410  0.3379 -0.0687 -0.0248
12921TIP3    H160254   5.827   4.308   3.331 -1.3068 -0.6615 -0.4251
12921TIP3    H260255   5.863   4.337   3.475  0.5455 -1.9882 -0.5780
12922TIP3   OH260256   0.596   2.191  16.569  0.7263 -0.0522  0.4197
12922TIP3    H160257   0.576   2.099  16.552  0.1435 -0.0169  0.8502
12922TIP3    H260258   0.685   2.204  16.535 -0.0412 -0.1672 -1.7827
12923TIP3   OH260259   5.652   6.021   0.227 -0.1630 -0.0847  0.6269
12923TIP3    H160260   5.711   6.006   0.153 -0.7700 -0.1536  0.1471
12923TIP3    H260261   5.580   5.958   0.213 -0.7361  0.5306  0.7738
12924TIP3   OH260262   0.539   3.294   1.133 -0.8884  0.2894 -0.4358
12924TIP3    H160263   0.519   3.225   1.070 -2.1878  1.0187 -0.8563
12924TIP3    H260264   0.617   3.337   1.099  2.3619 -3.2576  1.7420
12925TIP3   OH260265   1.756   1.013  15.295  0.0643  0.3898  0.5036
12925TIP3    H160266   1.687   1.068  15.330 -0.4941 -0.1265  0.2363
12925TIP3    H260267   1.717   0.969  15.220  0.7037  0.1404  0.3025
12926TIP3   OH260268   0.998   3.232   5.568  0.0192 -0.2392  0.4494
12926TIP3    H160269   1.037   3.147   5.545 -0.5116 -2.1085  5.2757
12926TIP3    H260270   1.067   3.278   5.615 -0.5406  0.8936  0.1989
12927TIP3   OH260271   1.201   6.251   3.236  0.3295  0.1725 -0.0323
12927TIP3    H160272   1.277   6.263   3.179  0.0026 -0.8949 -0.7307
12927TIP3    H260273   1.234   6.266   3.324  1.0718  0.8948 -0.4204
12928TIP3   OH260274   4.645   6.463  15.517  0.7471  0.0938 -0.2115
12928TIP3    H160275   4.607   6.435  15.434 -0.8090  1.0127  0.1285
12928TIP3    H260276   4.713   6.399  15.536  0.3732 -0.7674 -1.6453
12929TIP3   OH260277   1.742   4.529  11.160  0.5475  0.1372  0.7102
12929TIP3    H160278   1.670   4.465  11.164  0.5650  0.1431  1.1668
12929TIP3    H260279   1.784   4.513  11.076  0.3151 -0.1992  0.6575
12930TIP3   OH260280   3.264   4.931   4.790 -0.1257 -0.3671 -0.7985
12930TIP3    H160281   3.332   4.886   4.740  0.2728 -1.5882  0.7478
12930TIP3    H260282   3.184   4.915   4.740  0.6252  0.7816 -2.4478
12931TIP3   OH260283   5.358   3.792   2.761 -0.0143 -0.1015 -0.0794
12931TIP3    H160284   5.337   3.861   2.699  1.1850 -0.8063 -1.3319
12931TIP3    H260285   5.398   3.837   2.835 -0.2893  0.6451 -0.3767
12932TIP3   OH260286   3.271   6.517   5.294  0.2972  0.0245 -0.0903
12932TIP3    H160287   3.242   6.540   5.382 -1.8888 -0.4348 -0.6088
12932TIP3    H260288   3.322   6.437   5.305 -0.7827 -0.5885  0.7082
12933TIP3   OH260289   3.736   4.923   4.363  0.4357  0.0184 -0.4898
12933TIP3    H160290   3.708   4.878   4.443  0.7919 -1.5708 -1.2073
12933TIP3    H260291   3.673   4.894   4.296 -0.2853  1.8781 -0.6588
12934TIP3   OH260292   4.129   0.891  12.325  0.8709  0.2904 -0.4654
12934TIP3    H160293   4.177   0.810  12.308  0.6721  0.2393 -0.7956
12934TIP3    H260294   4.095   0.917  12.239 -1.6308 -0.8838  0.0733
12935TIP3   OH260295   3.202   4.717  14.440  0.0509 -0.6455  0.2023
12935TIP3    H160296   3.208   4.754  14.528 -0.9585 -1.4624  0.6425
12935TIP3    H260297   3.168   4.629  14.454 -1.6264 -0.2503 -1.0909
12936TIP3   OH260298   2.925   3.609  14.346 -0.3622  0.2140 -0.7464
12936TIP3    H160299   2.833   3.607  14.317 -0.4918  2.1494 -0.5655
12936TIP3    H260300   2.957   3.520  14.328 -2.2077 -0.4595 -0.9777
12937TIP3   OH260301   0.216   4.797  15.799  0.5726  0.4037 -0.0684
12937TIP3    H160302   0.226   4.813  15.892  0.9501  1.2391 -0.2419
12937TIP3    H260303   0.173   4.712  15.793 -2.2046  1.6058  0.9536
12938TIP3   OH260304   1.433   3.176  10.557 -0.0227  0.4349  0.1296
12938TIP3    H160305   1.460   3.084  10.559  2.8108  1.1475 -0.8376
12938TIP3    H260306   1.339   3.173  10.542 -0.0775 -2.2898  0.5261
12939TIP3   OH260307   1.702   1.042  12.951 -0.0717  0.2894 -0.1660
12939TIP3    H160308   1.673   1.046  13.042 -1.1020  0.9045 -0.5153
12939TIP3    H260309   1.634   1.088  12.901  0.9116  0.7426 -1.1410
12940TIP3   OH260310   2.153   4.233   5.524 -0.1726  0.3008 -0.2266
12940TIP3    H160311   2.152   4.276   5.610 -1.1697  0.7594 -0.4561
12940TIP3    H260312   2.244   4.207   5.512  0.0086  0.3416  0.9154
12941TIP3   OH260313   5.222   4.532  15.107  0.2660  0.5785  0.4110
12941TIP3    H160314   5.174   4.580  15.174  1.1213 -0.8409  2.1046
12941TIP3    H260315   5.314   4.546  15.127  0.5490 -1.5950  0.9155
12942TIP3   OH260316   5.319   0.109  12.564  0.2858 -0.3240  0.1839
12942TIP3    H160317   5.237   0.152  12.587  0.7415  0.5326  0.2447
12942TIP3    H260318   5.360   0.088  12.647 -1.1593 -3.4107  0.2615
12943TIP3   OH260319   1.701   5.390  16.106  0.1566 -0.1744 -0.3210
12943TIP3    H160320   1.690   5.304  16.064 -1.2037  0.1182 -0.6192
12943TIP3    H260321   1.703   5.452  16.033 -1.3002  0.2553 -0.0291
12944TIP3   OH260322   2.533   0.848   1.402  0.1125  0.5367 -0.1374
12944TIP3    H160323   2.535   0.944   1.405 -0.4673  0.5971 -1.1181
12944TIP3    H260324   2.514   0.821   1.492 -2.3385  1.4495 -0.3130
12945TIP3   OH260325   0.877   2.215  13.539 -0.3590 -0.1919 -0.0838
12945TIP3    H160326   0.832   2.138  13.573 -0.0672  0.1509  1.1250
12945TIP3    H260327   0.938   2.180  13.474 -1.5192 -0.7756 -0.8757
12946TIP3   OH260328   1.356   0.783   4.972 -0.4647  0.0312 -0.0969
12946TIP3    H160329   1.317   0.723   4.909  0.3863 -0.5299 -0.1104
12946TIP3    H260330   1.294   0.786   5.045 -0.8180 -0.3530 -0.3785
12947TIP3   OH260331   0.919   4.824  10.385  0.1063 -0.5617  0.0360
12947TIP3    H160332   0.969   4.750  10.419  1.3886  0.5537  0.6933
12947TIP3    H260333   0.904   4.880  10.461  0.6303  0.6413 -0.7031
12948TIP3   OH260334   6.172   2.192   3.235  0.1882 -0.9223  0.3275
12948TIP3    H160335   6.092   2.238   3.211  0.5516  0.4902  1.6851
12948TIP3    H260336   6.180   2.204   3.330  2.1710 -0.6970  0.1862
12949TIP3   OH260337   5.380   6.493  14.751 -0.1585  0.6459  0.1420
12949TIP3    H160338   5.320   6.535  14.812  0.0359 -0.1485  0.8975
12949TIP3    H260339   5.326   6.431  14.703  0.0173  0.0061  0.7495
12950TIP3   OH260340   6.501   2.429   0.095 -0.5703  0.1547 -0.3276
12950TIP3    H160341   6.534   2.480   0.021  0.7408  0.2767  0.3109
12950TIP3    H260342   6.445   2.490   0.143 -0.8871  0.2747 -0.8408
12951TIP3   OH260343   0.452   2.655  11.373  0.6770  0.3657  0.2854
12951TIP3    H160344   0.392   2.647  11.447  1.0224 -0.1355  0.5158
12951TIP3    H260345   0.442   2.746  11.344  0.7517  0.6469  1.1253
12952TIP3   OH260346   0.760   3.694   3.242  0.3493 -0.0051  0.0379
12952TIP3    H160347   0.827   3.700   3.311 -0.4607 -2.3226  1.1524
12952TIP3    H260348   0.807   3.715   3.161  1.9385  0.3845  1.0052
12953TIP3   OH260349   2.605   1.382  11.230 -0.0243 -0.1203 -0.1285
12953TIP3    H160350   2.647   1.453  11.180  1.1113 -0.3685  0.4384
12953TIP3    H260351   2.576   1.320  11.164  1.9615 -0.7165 -0.4936
12954TIP3   OH260352   3.500   1.326   5.331  0.3116  0.0273 -0.0635
12954TIP3    H160353   3.562   1.289   5.394 -0.2043 -1.1650 -0.2460
12954TIP3    H260354   3.434   1.370   5.385  0.3193 -0.2796  0.1947
12955TIP3   OH260355   0.442   1.409   6.226  0.1401 -0.5213 -0.0087
12955TIP3    H160356   0.529   1.383   6.195  0.3147  0.3946 -0.3114
12955TIP3    H260357   0.447   1.504   6.234 -0.7871 -0.4787  0.1195
12956TIP3   OH260358   2.016   1.154  12.947 -0.3850  0.0978 -0.4703
12956TIP3    H160359   1.941   1.170  13.004 -0.1241 -0.4124  0.0264
12956TIP3    H260360   1.981   1.106  12.872 -0.5556 -0.1302 -0.2444
12957TIP3   OH260361   6.798   6.009  14.236  0.1437 -0.0101  0.4961
12957TIP3    H160362   6.854   5.963  14.174 -0.3439 -0.0133  0.0566
12957TIP3    H260363   6.715   6.020  14.190  0.4905  2.0517  0.2430
12958TIP3   OH260364   2.043   4.666   5.036 -0.0433  0.0716 -0.4285
12958TIP3    H160365   2.024   4.575   5.058  1.4447  0.6092  4.0092
12958TIP3    H260366   2.134   4.666   5.007 -0.2524  0.0997 -1.1062
12959TIP3   OH260367   5.816   3.270   1.371 -0.0773  0.2164  0.0315
12959TIP3    H160368   5.771   3.272   1.456 -0.1707  0.6998 -0.0250
12959TIP3    H260369   5.762   3.325   1.315  0.2772  0.3355 -0.1949
12960TIP3   OH260370   1.134   3.951  14.664  0.3686 -0.0693 -0.3186
12960TIP3    H160371   1.167   4.009  14.595  0.9570  0.0329  0.0377
12960TIP3    H260372   1.194   3.965  14.737  1.7624 -2.5765 -0.8748
12961TIP3   OH260373   1.523   3.279  10.984  0.2562  0.4713  0.0034
12961TIP3    H160374   1.458   3.211  10.998  0.2733  0.3815 -0.3311
12961TIP3    H260375   1.585   3.270  11.056 -1.9303  2.7608  2.3754
12962TIP3   OH260376   0.224   6.715  14.756 -0.5241  0.3291 -0.6162
12962TIP3    H160377   0.176   6.635  14.773  0.9508 -0.2484  1.1188
12962TIP3    H260378   0.207   6.734  14.664 -2.8245 -0.6250 -0.4597
12963TIP3   OH260379   0.636   6.806   1.734 -0.2324  0.0112  0.3170
12963TIP3    H160380   0.613   6.830   1.644 -0.0544  0.0416  0.2785
12963TIP3    H260381   0.692   6.729   1.725  0.0065  0.1751  0.3872
12964TIP3   OH260382   2.058   0.180  12.848 -0.4641  0.1166  0.2738
12964TIP3    H160383   2.116   0.140  12.913  1.9154 -0.2403 -1.8954
12964TIP3    H260384   2.075   0.274  12.855  1.9580 -0.0828 -1.5656
12965TIP3   OH260385   3.484   1.748   6.695  0.2172  0.1014 -0.2558
12965TIP3    H160386   3.492   1.679   6.628  1.1408 -2.3585  2.1940
12965TIP3    H260387   3.535   1.715   6.769  2.3003  4.3476  0.4650
12966TIP3   OH260388   5.391   4.438   3.801 -0.0598  0.5731 -0.4727
12966TIP3    H160389   5.416   4.349   3.775 -1.8442 -0.0807 -0.0549
12966TIP3    H260390   5.304   4.450   3.764 -0.1557  1.8618  0.1512
12967TIP3   OH260391   5.011   6.483   3.128 -0.4360 -0.1325 -0.5614
12967TIP3    H160392   4.964   6.501   3.047 -2.6456  0.6283  0.7963
12967TIP3    H260393   4.945   6.490   3.197  1.7014  1.1669  1.5280
12968TIP3   OH260394   5.119   2.048   0.272 -0.0400  0.0062 -0.1594
12968TIP3    H160395   5.099   2.118   0.210 -2.2508 -1.2193 -0.9083
12968TIP3    H260396   5.171   1.985   0.222  0.2452  0.1539 -0.0530
12969TIP3   OH260397   4.523   5.638  15.645  0.1134 -0.1534 -0.4166
12969TIP3    H160398   4.463   5.572  15.609 -0.1325 -0.4198  0.4614
12969TIP3    H260399   4.572   5.592  15.712  0.4118  0.3928 -0.2564
12970TIP3   OH260400   6.669   4.881  14.730 -0.0525  0.2904 -0.4710
12970TIP3    H160401   6.659   4.867  14.636  1.1355  2.6895 -1.0345
12970TIP3    H260402   6.669   4.793  14.767  0.4107 -0.7910 -2.8118
12971TIP3   OH260403   3.350   1.539   2.173 -0.0086  0.0460 -0.5435
12971TIP3    H160404   3.317   1.534   2.263 -1.1134  0.4901 -0.9014
12971TIP3    H260405   3.386   1.627   2.166 -1.7052  0.7445 -1.0826
12972TIP3   OH260406   0.285   3.642   3.508  0.0734 -0.0718  0.2507
12972TIP3    H160407   0.245   3.715   3.554  1.3268  1.0175 -0.3162
12972TIP3    H260408   0.315   3.583   3.577  1.8405  1.4774  0.8632
12973TIP3   OH260409   4.402   5.077  13.325  0.6045 -0.2427 -0.4170
12973TIP3    H160410   4.363   4.991  13.314  0.1054  0.1562 -2.0307
12973TIP3    H260411   4.438   5.076  13.414 -0.1683 -1.7830 -0.0895
12974TIP3   OH260412   5.137   6.318  15.446 -0.3728 -0.3904  0.4111
12974TIP3    H160413   5.099   6.399  15.413  0.1620 -0.1821  0.3026
12974TIP3    H260414   5.230   6.337  15.457 -0.4598 -0.5616  1.6686
12975TIP3   OH260415   0.480   4.412   5.939 -0.1671  0.0560  0.3572
12975TIP3    H160416   0.506   4.371   6.021 -0.6327  0.0112  0.4886
12975TIP3    H260417   0.415   4.478   5.965  0.4772  0.7866  0.1352
12976TIP3   OH260418   0.443   0.571  13.682 -0.0423  0.3252  0.5118
12976TIP3    H160419   0.532   0.562  13.647 -0.6482  0.8976 -1.3202
12976TIP3    H260420   0.442   0.659  13.721  0.0139  0.5905 -0.0725
12977TIP3   OH260421   0.588   0.068  12.874  0.2839  0.0306  0.1886
12977TIP3    H160422   0.600   0.114  12.791  1.0694 -0.6494 -0.0905
12977TIP3    H260423   0.598   0.136  12.940 -1.2945  0.7716 -0.2707
12978TIP3   OH260424   6.670   1.756   2.147 -0.3735  0.5194 -0.0643
12978TIP3    H160425   6.595   1.788   2.197  0.6965  4.0185 -0.4213
12978TIP3    H260426   6.740   1.818   2.167  2.0574 -1.8170 -0.8188
12979TIP3   OH260427   6.502   0.898   4.557  0.3095 -0.0878 -0.5299
12979TIP3    H160428   6.481   0.949   4.635 -1.2498 -1.0295 -0.2803
12979TIP3    H260429   6.461   0.946   4.485 -0.9625 -0.8055 -0.3240
12980TIP3   OH260430   2.197   4.018  16.412  0.1492 -0.2345 -0.4547
12980TIP3    H160431   2.116   4.069  16.403 -1.2709 -2.2824 -0.1435
12980TIP3    H260432   2.243   4.031  16.329 -1.5634 -0.7030 -1.5352
12981TIP3   OH260433   0.241   5.190  13.068 -0.9334  0.1235  0.0658
12981TIP3    H160434   0.203   5.144  12.994  0.6291  1.1928 -1.4847
12981TIP3    H260435   0.303   5.126  13.106  0.3180  0.4590 -1.3142
12982TIP3   OH260436   0.849   5.740   4.650  0.1170 -0.2649 -0.2095
12982TIP3    H160437   0.854   5.831   4.678  0.0042 -0.2955 -0.0830
12982TIP3    H260438   0.803   5.696   4.722  0.5980 -0.5104 -0.0494
12983TIP3   OH260439   3.251   3.589   4.927 -0.2692 -0.2257 -0.5246
12983TIP3    H160440   3.213   3.501   4.921  0.9184 -0.8957  0.9869
12983TIP3    H260441   3.196   3.634   4.991  0.5975 -0.7492  0.6336
12984TIP3   OH260442   5.047   1.218   4.510  0.3460 -0.2406  0.3239
12984TIP3    H160443   5.009   1.165   4.440  1.8153 -0.8278 -0.0629
12984TIP3    H260444   4.973   1.240   4.567 -0.7059 -0.5726 -0.8849
12985TIP3   OH260445   5.931   3.206  17.046  0.7848  0.4899  0.8431
12985TIP3    H160446   5.916   3.115  17.072  0.2152  0.6211  0.9770
12985TIP3    H260447   5.936   3.202  16.950  3.8388 -0.1382  0.9116
12986TIP3   OH260448   2.064   2.128  13.611 -0.8708 -0.6640 -0.2265
12986TIP3    H160449   2.154   2.158  13.621 -0.6560 -1.1626 -0.6367
12986TIP3    H260450   2.012   2.208  13.605 -0.5889 -0.3467  1.0911
12987TIP3   OH260451   0.057   1.330   3.018  1.2050  0.0733  0.3157
12987TIP3    H160452   0.139   1.331   3.067  0.8403 -2.3799  1.1400
12987TIP3    H260453   0.064   1.253   2.961 -0.1556  0.3276 -0.2306
12988TIP3   OH260454   6.599   4.546   2.196  0.0625  0.2150 -0.2130
12988TIP3    H160455   6.587   4.589   2.112 -0.4767  0.3986 -0.0491
12988TIP3    H260456   6.524   4.575   2.248 -0.1077 -0.6297  0.0237
12989TIP3   OH260457   1.584   3.064   2.139 -0.0242 -0.5077 -0.4065
12989TIP3    H160458   1.626   3.133   2.089  1.4926 -2.1813 -1.6028
12989TIP3    H260459   1.653   2.998   2.151 -1.4174 -1.8601  0.5754
12990TIP3   OH260460   4.898   5.184   1.803  0.5751  0.1740  0.2448
12990TIP3    H160461   4.987   5.217   1.794  0.5796  0.2579  0.5853
12990TIP3    H260462   4.882   5.185   1.898  0.7630 -1.2809  0.3140
12991TIP3   OH260463   0.904   4.623   1.088  0.2143  0.4881 -0.2584
12991TIP3    H160464   0.984   4.626   1.139  0.5453 -1.6084 -0.5360
12991TIP3    H260465   0.833   4.620   1.153  0.5012  0.1570  0.0428
12992TIP3   OH260466   1.749   5.877  11.479 -0.4353 -0.1548  0.0574
12992TIP3    H160467   1.833   5.923  11.483 -0.3807 -0.3351  2.6498
12992TIP3    H260468   1.722   5.885  11.388  1.6902  1.1605 -0.5394
12993TIP3   OH260469   5.277   0.572   0.152  0.2930 -0.1365  0.1922
12993TIP3    H160470   5.318   0.617   0.078 -3.8429  1.0463 -1.6620
12993TIP3    H260471   5.243   0.642   0.207 -0.9544 -0.9671  0.5258
12994TIP3   OH260472   5.387   1.854   3.807 -0.2718  0.8084  0.1375
12994TIP3    H160473   5.382   1.929   3.747  2.3836  2.3430  1.6527
12994TIP3    H260474   5.436   1.788   3.758 -2.1542  0.1742 -1.0068
12995TIP3   OH260475   0.630   2.218  12.478  0.3614  0.0065  0.3700
12995TIP3    H160476   0.556   2.269  12.509  0.5793  1.2090 -0.9540
12995TIP3    H260477   0.640   2.244  12.386 -1.2893 -4.5214 -1.3741
12996TIP3   OH260478   0.418   3.376  15.381  0.0446 -0.1224  0.2592
12996TIP3    H160479   0.473   3.415  15.450  1.6396 -0.6180 -0.6726
12996TIP3    H260480   0.396   3.449  15.324 -0.8435  0.1989  1.0055
12997TIP3   OH260481   6.737   0.797   6.047 -0.0439 -0.3496 -0.0577
12997TIP3    H160482   6.766   0.872   5.995 -0.0718 -1.5107 -1.8528
12997TIP3    H260483   6.818   0.755   6.076  0.0371 -0.9070 -1.0351
12998TIP3   OH260484   5.638   3.824   5.234  0.3981  0.6370 -0.2296
12998TIP3    H160485   5.597   3.741   5.261 -0.4460  0.5452 -1.6536
12998TIP3    H260486   5.715   3.798   5.183 -0.5654  0.6407 -1.7652
12999TIP3   OH260487   5.028   2.208   0.060  0.6190  0.6587 -0.2075
12999TIP3    H160488   4.943   2.170   0.035  0.6547 -1.2910  2.1796
12999TIP3    H260489   5.037   2.286   0.005 -2.1950  0.3253 -1.3198
13000TIP3   OH260490   3.529   6.127   5.697  0.1060 -0.1911 -0.2974
13000TIP3    H160491   3.486   6.048   5.664  3.1091 -2.1530  0.0879
13000TIP3    H260492   3.616   6.125   5.656  0.2855  2.9826 -0.2682
13001TIP3   OH260493   2.254   2.464   0.390 -0.2648 -0.3089  0.7405
13001TIP3    H160494   2.179   2.409   0.412 -0.6434  0.4315  1.3143
13001TIP3    H260495   2.241   2.486   0.297 -1.0772  0.3037  0.9920
13002TIP3   OH260496   3.872   2.085   5.568  0.8018  0.3571  0.4875
13002TIP3    H160497   3.808   2.016   5.589 -0.1775  1.5787  1.6779
13002TIP3    H260498   3.824   2.146   5.513  0.8825  1.3646  1.5119
13003TIP3   OH260499   6.030   3.322  16.577 -0.2870  0.4312 -0.3670
13003TIP3    H160500   6.000   3.412  16.564  2.0140  1.3142 -0.1323
13003TIP3    H260501   6.092   3.306  16.506  2.2385  0.4925  1.6393
13004TIP3   OH260502   6.610   4.891  15.939 -0.4739 -0.3144 -0.1453
13004TIP3    H160503   6.678   4.948  15.902  1.2272 -1.8166  0.5121
13004TIP3    H260504   6.568   4.944  16.006  1.3710  0.0841  0.7642
13005TIP3   OH260505   2.451   4.413  11.555 -0.0510  0.0757  0.2176
13005TIP3    H160506   2.401   4.364  11.490  0.8926  2.2597 -2.3843
13005TIP3    H260507   2.538   4.423  11.515  0.2912  2.2754  1.3779
13006TIP3   OH260508   2.727   0.196  16.969 -0.0590  0.0445  0.6335
13006TIP3    H160509   2.815   0.180  16.937 -0.7375 -0.8085 -0.8931
13006TIP3    H260510   2.683   0.242  16.898 -0.5282  1.6284  1.8593
13007TIP3   OH260511   1.593   0.005  14.636 -0.3808  0.2190 -0.1556
13007TIP3    H160512   1.573   0.075  14.574  3.0188  0.7249 -0.8634
13007TIP3    H260513   1.637   0.049  14.709  0.2668 -0.9764  0.2053
13008TIP3   OH260514   1.569   6.537   2.263  0.7641  0.1885  0.4225
13008TIP3    H160515   1.521   6.620   2.269  1.4588  0.6542 -0.3698
13008TIP3    H260516   1.539   6.497   2.181  3.0611  1.3714 -1.0984
13009TIP3   OH260517   0.578   5.649  11.692  0.2361 -0.3277  0.3251
13009TIP3    H160518   0.501   5.593  11.691  0.3863 -0.5700  1.3823
13009TIP3    H260519   0.614   5.642  11.603 -1.1366  0.0709 -0.2914
13010TIP3   OH260520   6.633   1.001  13.782  0.4002 -0.2629  0.3343
13010TIP3    H160521   6.671   0.914  13.771  1.9209  0.2026  1.4970
13010TIP3    H260522   6.570   0.991  13.854 -1.8163 -1.0375 -1.5989
13011TIP3   OH260523   5.340   0.271  12.241  0.3866 -0.2553 -0.2806
13011TIP3    H160524   5.313   0.325  12.167 -0.6798  0.3169  0.5005
13011TIP3    H260525   5.393   0.329  12.295 -1.9853  0.5827  1.3330
13012TIP3   OH260526   3.903   4.759   0.998  0.0258  0.0088  0.3281
13012TIP3    H160527   3.856   4.718   1.071 -1.5634 -0.3088 -0.8320
13012TIP3    H260528   3.916   4.688   0.935  1.3227  0.2920  0.2522
13013TIP3   OH260529   2.658   0.398   2.248  0.0830  0.1913  0.2418
13013TIP3    H160530   2.709   0.468   2.288  2.2809 -0.8260 -0.6648
13013TIP3    H260531   2.570   0.436   2.239  1.0736  2.6790  0.1765
13014TIP3   OH260532   2.900   6.765   0.211  0.3473  0.2403 -0.4919
13014TIP3    H160533   2.911   6.787   0.303 -1.0521  0.1367 -0.2811
13014TIP3    H260534   2.898   6.849   0.165  1.1320  0.2883 -0.4530
13015TIP3   OH260535   0.956   0.932  16.916  0.3669  0.3659  0.5054
13015TIP3    H160536   1.048   0.960  16.914  0.6585 -0.5394  0.5609
13015TIP3    H260537   0.947   0.886  16.999 -0.6916  2.1737  1.4451
13016TIP3   OH260538   5.988   4.967   2.669 -0.4567  0.1651 -0.5410
13016TIP3    H160539   6.011   5.031   2.737 -1.3920 -1.4745  1.4353
13016TIP3    H260540   5.953   5.021   2.598  1.9904  2.0719 -0.4461
13017TIP3   OH260541   5.270   3.303   3.119 -0.4138 -0.3244  1.3335
13017TIP3    H160542   5.196   3.359   3.145 -1.6584 -1.7165  0.9749
13017TIP3    H260543   5.256   3.222   3.168  0.6268 -0.7789  0.8977
13018TIP3   OH260544   1.963   0.026   4.556  0.4751 -0.4002  0.1770
13018TIP3    H160545   1.887   0.079   4.535  0.2688 -1.0562 -0.8022
13018TIP3    H260546   2.023   0.086   4.599 -0.4431  0.2116  0.6513
13019TIP3   OH260547   5.042   0.288   4.906 -0.7871  0.0725  0.4287
13019TIP3    H160548   5.126   0.242   4.905 -0.1226  1.1706  2.0589
13019TIP3    H260549   5.061   0.373   4.946 -2.3655  1.0191 -0.6994
13020TIP3   OH260550   0.096   1.396   5.562 -0.2758 -0.2070 -0.0497
13020TIP3    H160551   0.143   1.440   5.633  1.7393 -1.0051 -0.8206
13020TIP3    H260552   0.035   1.462   5.529  2.1868  1.8558 -0.7553
13021TIP3   OH260553   3.353   4.371  14.710  0.6253  0.2957  0.1008
13021TIP3    H160554   3.391   4.346  14.626 -3.4968 -0.0385 -1.9235
13021TIP3    H260555   3.274   4.420  14.686 -0.5318  0.5174  3.8135
13022TIP3   OH260556   6.382   5.665  15.004 -0.3224  0.2751 -0.3152
13022TIP3    H160557   6.440   5.741  15.017 -0.3073  0.4096 -1.1585
13022TIP3    H260558   6.439   5.598  14.966 -0.7232  0.4169 -1.1803
13023TIP3   OH260559   1.089   3.873  13.152 -0.2180  0.0286 -0.0492
13023TIP3    H160560   1.135   3.950  13.120 -1.5742  0.6463 -0.5729
13023TIP3    H260561   1.134   3.799  13.111  1.9659  0.3991  1.5129
13024TIP3   OH260562   4.779   0.997   2.751 -0.0387  0.2089 -0.1629
13024TIP3    H160563   4.868   1.032   2.758  0.5712 -1.4606  1.1188
13024TIP3    H260564   4.774   0.962   2.662  1.6626 -2.2469  0.6074
13025TIP3   OH260565   6.262   0.453  10.931 -0.0347  0.1340 -0.2625
13025TIP3    H160566   6.309   0.382  10.975 -0.6602  0.5720  1.1645
13025TIP3    H260567   6.258   0.523  10.996 -1.6224  0.5363 -0.7506
13026TIP3   OH260568   0.672   0.727  13.642  0.3486 -0.1297 -0.0630
13026TIP3    H160569   0.745   0.783  13.668 -0.3890  0.9293 -0.1942
13026TIP3    H260570   0.646   0.760  13.556  1.8771 -2.7023 -1.6365
13027TIP3   OH260571   3.374   0.914  13.383 -0.4248 -0.3866 -0.0321
13027TIP3    H160572   3.405   0.893  13.471 -0.2741  1.6743  0.4476
13027TIP3    H260573   3.397   1.006  13.370 -2.8771  0.1450 -1.1628
13028TIP3   OH260574   3.721   5.053  11.771 -0.2371 -0.1330 -0.4378
13028TIP3    H160575   3.690   5.081  11.685  2.0574  1.7331 -0.7843
13028TIP3    H260576   3.814   5.076  11.771 -0.5571  1.9784  3.2776
13029TIP3   OH260577   0.856   5.501  13.758 -0.1273 -0.8106  0.4508
13029TIP3    H160578   0.817   5.527  13.841  0.2583  3.0553 -0.4077
13029TIP3    H260579   0.947   5.480  13.780  0.1919  0.9593  0.9687
13030TIP3   OH260580   5.136   2.575   2.090  0.4042 -0.1156  0.4385
13030TIP3    H160581   5.117   2.610   2.177  1.3479  0.0854  0.5756
13030TIP3    H260582   5.053   2.540   2.059 -0.0886  0.4189  1.1440
13031TIP3   OH260583   4.980   0.986  16.827 -0.0530 -0.4259  0.4503
13031TIP3    H160584   4.915   1.048  16.860  1.5774  0.6156  1.8915
13031TIP3    H260585   5.033   1.037  16.766 -3.3091 -2.4060 -4.7326
13032TIP3   OH260586   2.786   3.091  14.558 -0.1390 -0.5107  0.1790
13032TIP3    H160587   2.775   3.111  14.651  0.1110  1.2191 -0.1202
13032TIP3    H260588   2.787   3.177  14.516  1.2624 -1.1922 -1.2562
13033TIP3   OH260589   4.471   2.931  13.763  0.0358 -0.0661  0.1863
13033TIP3    H160590   4.518   2.856  13.727 -1.0512 -0.5357 -0.2881
13033TIP3    H260591   4.405   2.952  13.697 -0.4578  0.5527  0.8583
13034TIP3   OH260592   2.006   0.707  13.732 -0.1424 -0.1925  0.5980
13034TIP3    H160593   2.076   0.749  13.682 -0.3780  0.3035  0.6816
13034TIP3    H260594   1.998   0.620  13.694 -0.9300  0.4785 -0.8309
13035TIP3   OH260595   1.753   2.843   5.593 -0.6014  0.3556 -0.0750
13035TIP3    H160596   1.844   2.815   5.593 -0.5590  0.4812 -0.7767
13035TIP3    H260597   1.715   2.802   5.516 -1.0168  0.6905 -0.0549
13036TIP3   OH260598   1.544   0.373   0.184 -0.3671  0.3707  0.0394
13036TIP3    H160599   1.624   0.320   0.184  0.2729  1.2991  1.3119
13036TIP3    H260600   1.499   0.348   0.103  0.4751 -1.2543  0.0370
13037TIP3   OH260601   1.033   1.965  15.558  0.2225  0.1276 -0.1505
13037TIP3    H160602   1.054   1.918  15.477  2.7922  0.2883  0.3130
13037TIP3    H260603   1.070   1.911  15.628 -1.9559 -0.0079  0.9615
13038TIP3   OH260604   0.358   5.375  10.594 -0.1776  0.2670  0.3371
13038TIP3    H160605   0.407   5.408  10.518  0.4331 -0.9812  0.1756
13038TIP3    H260606   0.272   5.417  10.586  0.0038  0.4592 -0.8275
13039TIP3   OH260607   5.488   2.443  16.907 -1.1487 -0.2182  0.3318
13039TIP3    H160608   5.500   2.355  16.869  0.2109  0.0459  0.1000
13039TIP3    H260609   5.485   2.427  17.001 -0.9951 -0.5309  0.2882
13040TIP3   OH260610   5.744   1.043   2.823 -0.0286  0.6595 -0.4263
13040TIP3    H160611   5.690   1.109   2.868 -0.3324  2.8268 -3.6440
13040TIP3    H260612   5.834   1.071   2.840 -0.0704  0.3638  0.3161
13041TIP3   OH260613   1.723   2.366   6.298  0.0990 -0.2717  0.0561
13041TIP3    H160614   1.643   2.321   6.326  0.1784 -1.7601 -1.9260
13041TIP3    H260615   1.791   2.300   6.306  1.2845  1.0938  2.0959
13042TIP3   OH260616   5.622   1.289   0.157 -0.4751 -0.1204  0.0140
13042TIP3    H160617   5.694   1.227   0.166 -0.5389 -0.1061  0.7356
13042TIP3    H260618   5.572   1.279   0.238 -0.5173  0.8294  0.1190
13043TIP3   OH260619   5.508   4.833  11.689 -0.1412  0.3166  0.2371
13043TIP3    H160620   5.570   4.877  11.747  0.1013  0.6526 -0.2638
13043TIP3    H260621   5.499   4.745  11.725  1.0144  0.1025  0.0262
13044TIP3   OH260622   6.761   3.054   2.805  0.1864  0.3449 -0.1666
13044TIP3    H160623   6.798   3.082   2.721  1.9387  0.3384  0.5438
13044TIP3    H260624   6.736   2.963   2.790 -1.9120  1.0474 -1.3683
13045TIP3   OH260625   0.421   3.739   3.946 -0.0354 -0.1758  0.0371
13045TIP3    H160626   0.370   3.802   3.997  0.1348  0.0797 -0.1065
13045TIP3    H260627   0.445   3.786   3.867  0.9483 -0.0915  0.3797
13046TIP3   OH260628   0.803   3.962   2.698  0.4711  0.4053  0.4503
13046TIP3    H160629   0.874   3.932   2.641 -0.4670  0.0544 -0.5641
13046TIP3    H260630   0.771   4.042   2.657 -0.8520 -0.3726 -0.0775
13047TIP3   OH260631   0.739   1.486   1.820 -0.2231 -0.5039 -0.3446
13047TIP3    H160632   0.672   1.450   1.762 -0.4758  0.4936 -0.7072
13047TIP3    H260633   0.822   1.461   1.780 -0.3769 -1.3050 -0.1759
13048TIP3   OH260634   4.204   3.171  10.445 -0.1434  0.3101 -0.0867
13048TIP3    H160635   4.209   3.231  10.371  0.2052 -0.4706 -0.7152
13048TIP3    H260636   4.263   3.209  10.511 -0.8349  1.2693 -0.0028
13049TIP3   OH260637   2.173   1.576   5.335  0.5106 -0.1591 -0.3892
13049TIP3    H160638   2.126   1.527   5.267 -1.9174  0.3451  0.8053
13049TIP3    H260639   2.210   1.508   5.392 -3.7768 -0.9874  1.9085
13050TIP3   OH260640   5.522   0.708  16.475  0.7644  0.7248 -0.5977
13050TIP3    H160641   5.569   0.747  16.548  0.4355  2.3088 -1.1795
13050TIP3    H260642   5.541   0.765  16.401 -0.9909  0.6811 -1.1407
13051TIP3   OH260643   0.104   1.891  14.516  0.2928  0.4907  0.5855
13051TIP3    H160644   0.121   1.966  14.572  2.5385 -0.2909  1.0385
13051TIP3    H260645   0.114   1.815  14.574 -0.0827 -0.2434 -0.2815
13052TIP3   OH260646   2.213   3.043  10.238 -0.5447  0.5634 -0.4402
13052TIP3    H160647   2.228   3.006  10.325  1.5862 -1.5673 -1.5819
13052TIP3    H260648   2.301   3.064  10.206 -1.3275  1.8884 -1.8614
13053TIP3   OH260649   3.943   4.429  11.655 -0.0402 -0.8172 -0.0071
13053TIP3    H160650   3.872   4.467  11.707  0.9737  0.4120  0.5467
13053TIP3    H260651   3.921   4.336  11.649 -0.4141 -0.9392  2.2962
13054TIP3   OH260652   0.008   4.265   1.891  0.6806 -0.4206 -0.3850
13054TIP3    H160653   0.042   4.235   1.975  3.1849 -0.5756 -1.3807
13054TIP3    H260654  -0.056   4.198   1.866  1.3429 -1.4181  0.5025
13055TIP3   OH260655   2.852   1.003  12.043  0.6233 -0.0185  0.1433
13055TIP3    H160656   2.924   1.065  12.042  0.1365  0.6769  2.3621
13055TIP3    H260657   2.870   0.944  11.970  2.5645  1.0823 -0.3315
13056TIP3   OH260658   4.823   2.188  17.088  0.4172  0.0859  0.5699
13056TIP3    H160659   4.743   2.217  17.131 -0.8960 -1.6226 -0.6077
13056TIP3    H260660   4.853   2.264  17.039  0.1143  1.0499  1.8235
13057TIP3   OH260661   1.084   1.795   2.416  0.4149  0.4273 -0.2941
13057TIP3    H160662   1.145   1.724   2.394 -0.0746 -0.9008  2.3188
13057TIP3    H260663   1.117   1.830   2.498 -1.0738  1.2194 -0.0105
13058TIP3   OH260664   1.475   0.639   2.874  0.4412 -0.0387  0.7264
13058TIP3    H160665   1.559   0.600   2.848 -0.5020 -1.2795 -0.6448
13058TIP3    H260666   1.411   0.595   2.818 -1.3690 -0.4996  3.0534
13059TIP3   OH260667   5.696   0.269  12.587 -0.2824  0.2744  0.1692
13059TIP3    H160668   5.715   0.182  12.621 -1.1968  0.2540  0.6622
13059TIP3    H260669   5.735   0.270  12.500  0.0618 -0.4867  0.3057
13060TIP3   OH260670   6.655   3.918   5.150  0.2418  0.1462 -0.1583
13060TIP3    H160671   6.644   3.878   5.064  0.0303  0.1191 -0.1201
13060TIP3    H260672   6.687   4.007   5.131 -1.6834  0.8401 -0.3755
13061TIP3   OH260673   5.524   4.646  16.059 -0.4432  0.2796 -1.1461
13061TIP3    H160674   5.456   4.699  16.101 -2.0352 -2.5165  0.0474
13061TIP3    H260675   5.490   4.631  15.970 -0.6522  0.1347 -1.0416
13062TIP3   OH260676   2.639   2.032  12.672  0.5651  0.3205  0.2260
13062TIP3    H160677   2.663   2.125  12.669  0.9845  0.2091  0.1350
13062TIP3    H260678   2.573   2.022  12.603 -0.6986  0.8927  1.2960
13063TIP3   OH260679   3.201   3.653   0.279 -0.3386 -0.1515 -0.8861
13063TIP3    H160680   3.239   3.694   0.357 -0.9396 -2.6196  0.8077
13063TIP3    H260681   3.223   3.560   0.287 -3.6877 -1.1361 -1.6001
13064TIP3   OH260682   4.206   6.097   4.628 -0.3658 -0.0742 -0.5585
13064TIP3    H160683   4.251   6.145   4.697 -1.5431  0.6273 -0.2524
13064TIP3    H260684   4.193   6.009   4.665 -1.1843  0.3602  0.2194
13065TIP3   OH260685   1.413   1.811  16.826  0.7179 -0.1427  0.0072
13065TIP3    H160686   1.392   1.857  16.745  0.6105  1.6015  0.9983
13065TIP3    H260687   1.496   1.766  16.807  0.6742  0.2061 -1.0638
13066TIP3   OH260688   3.529   1.929   1.198 -0.3009 -0.2642 -0.2029
13066TIP3    H160689   3.448   1.902   1.157 -0.6826 -1.5095  1.2570
13066TIP3    H260690   3.509   2.012   1.240 -1.0974 -0.9574  0.8396
13067TIP3   OH260691   0.729   3.108  11.033  0.1239 -0.5178  0.2928
13067TIP3    H160692   0.778   3.177  11.077  0.0691 -0.1381 -0.2361
13067TIP3    H260693   0.637   3.134  11.043  0.1084 -0.4558  0.0035
13068TIP3   OH260694   2.392   4.942  16.474 -0.3146 -0.3450 -0.0386
13068TIP3    H160695   2.310   4.987  16.457  0.5872  1.5356  0.2603
13068TIP3    H260696   2.454   4.982  16.413  0.3876 -1.7337 -0.2736
13069TIP3   OH260697   3.734   5.493  13.586 -0.9257 -0.4519  0.0152
13069TIP3    H160698   3.687   5.418  13.621  0.0126 -0.2637  1.7677
13069TIP3    H260699   3.748   5.472  13.494 -1.2497 -2.1197  0.3295
13070TIP3   OH260700   0.262   2.330   3.768  0.1564  0.1794 -0.5609
13070TIP3    H160701   0.282   2.421   3.791 -1.1565  1.2276 -3.0843
13070TIP3    H260702   0.347   2.289   3.752  0.7599  0.9781  0.5509
13071TIP3   OH260703   0.947   1.060   3.978 -0.3606  0.4078  0.0988
13071TIP3    H160704   0.901   1.123   3.921  0.7007 -0.0030 -1.2795
13071TIP3    H260705   0.982   1.113   4.049  0.4180  1.3865 -0.9782
13072TIP3   OH260706   6.490   0.068  14.728  0.0482 -0.3426 -0.3805
13072TIP3    H160707   6.578   0.033  14.710 -0.9248 -2.4244 -1.4741
13072TIP3    H260708   6.502   0.125  14.804  2.5128  0.2846 -1.1543
13073TIP3   OH260709   5.144   1.954  15.000  0.2733  0.7302  0.0389
13073TIP3    H160710   5.155   2.049  15.005 -1.3367  1.0030 -0.9076
13073TIP3    H260711   5.121   1.928  15.089  0.1285  1.3188  0.1792
13074TIP3   OH260712   0.589   5.039   4.254 -0.2626  0.1367 -0.0953
13074TIP3    H160713   0.626   5.066   4.338  0.1704  0.1502 -0.2887
13074TIP3    H260714   0.574   5.121   4.207 -1.7519  0.2285  0.4687
13075TIP3   OH260715   4.012   1.640  13.563 -0.2060  0.3363 -0.3096
13075TIP3    H160716   3.962   1.567  13.525 -0.4180 -0.7757  1.9561
13075TIP3    H260717   3.949   1.711  13.569 -0.3351  0.3376 -1.3800
13076TIP3   OH260718   6.336   1.469   0.567 -0.0273  0.0652 -0.1502
13076TIP3    H160719   6.374   1.537   0.511  0.7885 -0.4230 -0.2094
13076TIP3    H260720   6.378   1.481   0.652 -1.2696  0.8077  0.3835
13077TIP3   OH260721   5.089   2.284  14.001  0.3750 -0.2747 -0.1501
13077TIP3    H160722   4.998   2.301  13.976  0.7444  1.2124 -0.5927
13077TIP3    H260723   5.129   2.249  13.922  0.2546 -0.7259 -0.0167
13078TIP3   OH260724   3.091   0.782   6.548 -0.6308 -0.2313 -0.6419
13078TIP3    H160725   3.159   0.715   6.545  0.9206  0.8293  3.7594
13078TIP3    H260726   3.138   0.865   6.544 -1.7452  0.5201  0.7618
13079TIP3   OH260727   6.308   3.865   0.164 -0.2732 -1.0344  0.2065
13079TIP3    H160728   6.396   3.872   0.128 -0.1320 -0.2114  0.6747
13079TIP3    H260729   6.265   3.947   0.140 -1.1395 -1.6998 -0.5790
13080TIP3   OH260730   1.578   0.699  13.935  0.2448 -0.3441 -0.2986
13080TIP3    H160731   1.517   0.638  13.894 -0.3494  0.8004 -1.1650
13080TIP3    H260732   1.536   0.723  14.018  1.0491 -2.0002  0.6429
13081TIP3   OH260733   4.879   0.037   4.632  0.5755 -0.5376 -0.7987
13081TIP3    H160734   4.960   0.077   4.600 -0.5082  1.5103 -1.1901
13081TIP3    H260735   4.822   0.032   4.555 -0.5297  0.4279 -0.0944
13082TIP3   OH260736   6.073   5.018  14.200  0.5801  0.0746 -0.2229
13082TIP3    H160737   6.082   4.953  14.130 -0.1731 -2.0925  1.5456
13082TIP3    H260738   5.991   5.063  14.180 -0.3201 -1.4363 -0.0916
13083TIP3   OH260739   0.308   3.505   1.718  0.7176 -0.2732  0.0577
13083TIP3    H160740   0.359   3.533   1.642  1.7294  1.5923  1.3476
13083TIP3    H260741   0.357   3.538   1.793 -1.3448 -0.2069  1.4486
13084TIP3   OH260742   5.704   3.014   2.744 -0.2605 -0.0003  0.1580
13084TIP3    H160743   5.715   2.930   2.788 -2.3204 -1.8709 -2.5430
13084TIP3    H260744   5.636   3.059   2.795  0.8827  0.1347  1.6451
13085TIP3   OH260745   3.755   5.780   3.887 -0.4324  0.2871 -0.7331
13085TIP3    H160746   3.755   5.774   3.791 -0.9352  0.5589 -0.7510
13085TIP3    H260747   3.788   5.867   3.906 -0.8528  0.4371 -0.6766
13086TIP3   OH260748   2.167   4.715  13.110 -0.3161  0.2242  1.0007
13086TIP3    H160749   2.255   4.679  13.108 -0.6847 -0.7046  0.2633
13086TIP3    H260750   2.175   4.797  13.157  0.6215 -0.6756  2.4780
13087TIP3   OH260751   2.581   0.569  15.956  0.1955 -0.0353  0.1241
13087TIP3    H160752   2.519   0.500  15.982  0.6470 -0.7604 -0.6575
13087TIP3    H260753   2.614   0.603  16.039  0.1960 -0.9871  0.5329
13088TIP3   OH260754   4.429   5.720   6.292  0.1152 -0.7850 -0.1907
13088TIP3    H160755   4.381   5.784   6.346  0.5217 -0.5518 -0.1019
13088TIP3    H260756   4.364   5.688   6.230  0.5676  1.8742 -2.2143
13089TIP3   OH260757   3.300   2.921  11.195 -0.1558  0.4355  0.1067
13089TIP3    H160758   3.338   2.944  11.110  0.8153 -1.3378  0.0268
13089TIP3    H260759   3.373   2.886  11.245 -1.0051  0.2146  1.2144
13090TIP3   OH260760   1.903   0.795   3.991  0.1608  0.0190  0.1780
13090TIP3    H160761   1.970   0.853   4.028  0.7053 -0.4812 -0.0156
13090TIP3    H260762   1.951   0.735   3.934 -0.8517  1.9972 -2.9970
13091TIP3   OH260763   2.496   6.158  12.313 -0.3458  0.6027 -0.6420
13091TIP3    H160764   2.528   6.246  12.292 -0.8154  0.9379  0.0143
13091TIP3    H260765   2.538   6.135  12.395 -0.5437  0.3839 -0.5991
13092TIP3   OH260766   0.466   3.430   2.246 -0.2219  0.2456  0.5222
13092TIP3    H160767   0.425   3.507   2.284 -1.8804  0.0986 -0.8577
13092TIP3    H260768   0.510   3.463   2.167  0.6040  0.0606  0.8955
13093TIP3   OH260769   2.710   4.288   0.729 -0.8956 -0.0525  0.0164
13093TIP3    H160770   2.776   4.357   0.738 -1.6164  0.6913 -0.1637
13093TIP3    H260771   2.659   4.314   0.652 -1.1988 -0.7764 -0.0333
13094TIP3   OH260772   1.395   2.206   3.021  0.0419  0.3322 -0.5375
13094TIP3    H160773   1.384   2.134   3.084 -0.3067  1.0390  0.2321
13094TIP3    H260774   1.481   2.242   3.043 -0.6360  1.4178  0.4465
13095TIP3   OH260775   1.827   0.469   0.261 -0.8993 -0.1322 -0.0223
13095TIP3    H160776   1.828   0.376   0.239 -0.7479  0.4712 -3.0513
13095TIP3    H260777   1.738   0.485   0.293 -0.8481 -1.3301  0.8025
13096TIP3   OH260778   2.770   3.158  10.796  0.5337  0.0632 -0.3813
13096TIP3    H160779   2.862   3.134  10.801  0.9041  0.9613 -2.2232
13096TIP3    H260780   2.749   3.156  10.702 -1.4426 -0.5364  0.0104
13097TIP3   OH260781   2.239   1.257  14.505  0.1740  0.1487 -0.3314
13097TIP3    H160782   2.308   1.277  14.569 -0.5121  0.2908  0.3754
13097TIP3    H260783   2.177   1.329  14.514 -0.8156 -0.7321  0.0995
13098TIP3   OH260784   3.664   2.332   0.686 -0.1357 -0.0671  0.1578
13098TIP3    H160785   3.698   2.244   0.702 -1.7620 -0.8426 -0.3900
13098TIP3    H260786   3.732   2.391   0.718  1.2619 -1.5193 -0.0351
13099TIP3   OH260787   6.251   1.492   1.838  0.1260 -0.4189 -0.1978
13099TIP3    H160788   6.345   1.482   1.857  0.0955  0.2539  0.3225
13099TIP3    H260789   6.249   1.516   1.745  0.5700  0.8311  0.0840
13100TIP3   OH260790   6.432   1.596  11.557  0.0300 -0.2707 -0.1404
13100TIP3    H160791   6.471   1.649  11.488  0.6967  0.5468  0.8322
13100TIP3    H260792   6.348   1.639  11.576  0.3805  0.2207  0.3549
13101TIP3   OH260793   4.345   2.491  11.007 -0.3847 -0.1613 -0.1091
13101TIP3    H160794   4.405   2.564  11.021 -1.4973  0.3208  2.7522
13101TIP3    H260795   4.282   2.525  10.943 -0.3887  1.1173  0.5321
13102TIP3   OH260796   0.080   2.079   2.219  0.5327  0.1092 -0.3478
13102TIP3    H160797   0.097   2.001   2.166  0.2627 -0.4281  0.3420
13102TIP3    H260798   0.139   2.069   2.294  2.2324  1.7552 -1.3907
13103TIP3   OH260799   2.749   3.738  12.268  0.8316 -0.2708 -0.5043
13103TIP3    H160800   2.817   3.758  12.204 -0.1237  0.2305 -1.3777
13103TIP3    H260801   2.743   3.642  12.267  0.5773 -0.2473 -1.4174
13104TIP3   OH260802   1.953   2.849  12.926  0.0726  0.2442  0.2018
13104TIP3    H160803   1.860   2.865  12.939  0.8026  2.5443  4.3550
13104TIP3    H260804   1.996   2.930  12.955  3.4179 -1.5975  0.9068
13105TIP3   OH260805   5.566   1.357  10.916 -0.5698  0.2097  0.6983
13105TIP3    H160806   5.551   1.303  10.838  0.6162 -0.3419  0.8256
13105TIP3    H260807   5.570   1.446  10.884 -2.9763  0.3270  0.5279
13106TIP3   OH260808   5.086   0.229  12.618  0.0344  0.2481  0.2977
13106TIP3    H160809   4.991   0.226  12.609  0.1670 -0.9424 -1.1806
13106TIP3    H260810   5.112   0.305  12.566 -0.0275 -0.2459 -0.4739
13107TIP3   OH260811   6.173   2.821  13.665  0.0298  0.3739  0.3709
13107TIP3    H160812   6.146   2.907  13.698  2.6815  1.6699 -0.4633
13107TIP3    H260813   6.099   2.790  13.613 -1.3275  1.7541  1.4094
13108TIP3   OH260814   4.398   2.777   5.216 -0.1838 -0.1879  0.2832
13108TIP3    H160815   4.393   2.872   5.221 -1.0547 -0.0906 -1.6411
13108TIP3    H260816   4.342   2.746   5.287 -2.4563  0.7926 -1.0068
13109TIP3   OH260817   1.366   5.854  12.300 -0.0812  0.0882 -0.3583
13109TIP3    H160818   1.301   5.906  12.254 -0.8836  0.2615  0.9168
13109TIP3    H260819   1.402   5.796  12.233 -3.2985 -1.7501 -0.7106
13110TIP3   OH260820   0.373   0.981  12.531  0.5346 -0.3380  0.0462
13110TIP3    H160821   0.413   0.967  12.445  0.5449  1.9110 -0.3715
13110TIP3    H260822   0.447   1.003  12.588  0.3659 -0.4171  0.2942
13111TIP3   OH260823   3.448   0.627  13.348 -0.2066  0.4865 -0.6777
13111TIP3    H160824   3.444   0.720  13.372 -0.7211  0.8981 -2.2607
13111TIP3    H260825   3.366   0.591  13.381  0.1600  0.4937  0.2758
13112TIP3   OH260826   1.994   5.373   3.378 -0.1043 -0.0008  0.1492
13112TIP3    H160827   2.050   5.344   3.306 -0.9964 -0.1906 -0.4903
13112TIP3    H260828   2.012   5.312   3.449 -0.5835 -0.9868 -0.5522
13113TIP3   OH260829   1.314   1.064   4.851  0.1284 -0.1867 -0.2672
13113TIP3    H160830   1.220   1.081   4.838  0.2246  0.4118 -0.2200
13113TIP3    H260831   1.320   0.970   4.868 -0.5749 -0.0594  0.7686
13114TIP3   OH260832   6.727   3.749  14.959  0.3602  0.2664  0.1571
13114TIP3    H160833   6.793   3.732  14.892 -0.2713  0.1605 -0.4473
13114TIP3    H260834   6.649   3.704  14.929  0.7852 -2.1658  2.3360
13115TIP3   OH260835   2.005   5.808  13.213 -0.3018  0.6270  0.0553
13115TIP3    H160836   1.958   5.861  13.277 -0.9262 -0.2655  0.3633
13115TIP3    H260837   1.936   5.757  13.170  0.2635  0.1948 -0.3431
13116TIP3   OH260838   0.107   2.006  10.328  0.0462  0.3326 -0.0104
13116TIP3    H160839   0.028   2.060  10.341 -3.0944 -3.7533 -0.2130
13116TIP3    H260840   0.118   1.959  10.410  2.2016  0.5813 -0.1074
13117TIP3   OH260841   0.350   3.293  16.623  0.4485  0.3028 -0.1868
13117TIP3    H160842   0.355   3.234  16.698  1.1404  1.5291  0.7678
13117TIP3    H260843   0.439   3.292  16.586  0.0457 -0.5054 -1.1883
13118TIP3   OH260844   6.209   2.969   1.223  0.8861 -0.2382 -0.3299
13118TIP3    H160845   6.162   2.924   1.152  0.1913 -0.8472  0.4950
13118TIP3    H260846   6.140   3.015   1.271  1.4486  0.7678 -0.4696
13119TIP3   OH260847   4.567   4.809  15.605  0.6503  0.1555 -0.0013
13119TIP3    H160848   4.474   4.827  15.618  0.6430  1.2502 -1.3016
13119TIP3    H260849   4.574   4.714  15.605 -0.6349  0.0353 -0.9077
13120TIP3   OH260850   4.233   3.568   2.450  0.3480 -0.2207 -0.3461
13120TIP3    H160851   4.260   3.624   2.523  1.3489  1.0635 -1.6511
13120TIP3    H260852   4.175   3.503   2.490  1.5256 -0.0888  1.7348
13121TIP3   OH260853   6.621   3.242  14.167 -0.4955  0.2362  0.1053
13121TIP3    H160854   6.602   3.232  14.073 -0.5660 -1.0043  0.2319
13121TIP3    H260855   6.562   3.312  14.195 -0.2052  0.8925 -0.8461
13122TIP3   OH260856   5.548   1.578  16.363  0.1133 -0.0324  0.3637
13122TIP3    H160857   5.541   1.514  16.434  0.9368 -0.4364  0.0843
13122TIP3    H260858   5.482   1.550  16.300 -0.3426  0.0913  0.7788
13123TIP3   OH260859   1.727   0.817  15.503  0.3347 -0.0215 -0.2263
13123TIP3    H160860   1.633   0.797  15.507  0.4648 -0.8710 -0.8912
13123TIP3    H260861   1.734   0.886  15.437  0.1618  0.1335 -0.0829
13124TIP3   OH260862   1.816   3.828  13.348 -0.4773 -0.2391  0.3403
13124TIP3    H160863   1.743   3.785  13.394  1.1906 -2.3675  1.1477
13124TIP3    H260864   1.796   3.816  13.255 -0.0720 -2.9135  0.5203
13125TIP3   OH260865   6.722   4.468   6.102  0.0692  0.3898 -0.4747
13125TIP3    H160866   6.806   4.490   6.061  0.0888  0.0062 -0.6386
13125TIP3    H260867   6.693   4.388   6.058  0.0994 -0.0402  0.2653
13126TIP3   OH260868   5.051   5.015   2.548 -0.3085 -0.0475 -0.3249
13126TIP3    H160869   5.105   4.944   2.514  0.0934  0.4645 -0.7814
13126TIP3    H260870   5.023   5.063   2.471  0.8512  1.3072  0.0622
13127TIP3   OH260871   2.498   1.299  15.049 -0.4643  0.3277  0.3728
13127TIP3    H160872   2.560   1.237  15.011 -1.7688 -1.1007  0.4695
13127TIP3    H260873   2.548   1.344  15.117  1.1220  0.9792 -1.1491
13128TIP3   OH260874   5.726   2.110   1.186  0.1590  0.2239 -0.5412
13128TIP3    H160875   5.796   2.045   1.183 -2.0918 -2.4099 -0.0692
13128TIP3    H260876   5.738   2.155   1.270  1.3442 -0.0411 -0.5506
13129TIP3   OH260877   6.795   0.433  17.018  0.0373  0.3469  0.3429
13129TIP3    H160878   6.844   0.513  17.000  0.3717 -0.1921 -1.3607
13129TIP3    H260879   6.863   0.369  17.042 -0.1449  0.3664  0.9120
13130TIP3   OH260880   0.900   3.547   5.065  0.5794  0.1276 -0.1988
13130TIP3    H160881   0.893   3.638   5.038 -0.8315  0.3482  0.8233
13130TIP3    H260882   0.989   3.538   5.099 -0.0615  1.8612  2.1868
13131TIP3   OH260883   1.340   2.683  10.282 -0.1274  0.6972  0.5954
13131TIP3    H160884   1.268   2.690  10.220 -0.4343 -0.0231  0.8652
13131TIP3    H260885   1.328   2.757  10.342 -0.5871  0.6349  0.5786
13132TIP3   OH260886   0.963   5.667  15.609 -0.5874  0.6010  0.4899
13132TIP3    H160887   0.928   5.655  15.521 -0.7229  0.7515  0.5249
13132TIP3    H260888   1.057   5.678  15.595 -0.4177 -0.6629  0.4633
13133TIP3   OH260889   0.273   3.537  15.887  0.2867 -0.3771  0.1411
13133TIP3    H160890   0.197   3.532  15.829  0.7924 -1.5621 -0.4564
13133TIP3    H260891   0.291   3.631  15.896  0.4098 -0.1658 -1.9252
13134TIP3   OH260892   2.634   4.210   1.350  0.0810 -0.2314 -0.4461
13134TIP3    H160893   2.561   4.225   1.290 -0.7037  0.2544  0.5970
13134TIP3    H260894   2.596   4.161   1.423  0.8106 -0.0399  0.0735
13135TIP3   OH260895   4.904   6.153   5.942  0.4327  0.1063  0.3097
13135TIP3    H160896   4.900   6.186   6.032  1.6903  0.3459  0.3025
13135TIP3    H260897   4.970   6.208   5.900  1.5613 -1.4688 -0.0904
13136TIP3   OH260898   0.308   3.486  16.968 -0.4375 -0.3287  0.2618
13136TIP3    H160899   0.345   3.465  17.054  0.0460 -0.2389  0.0825
13136TIP3    H260900   0.265   3.405  16.940  0.9855 -0.9665 -0.2049
13137TIP3   OH260901   0.909   5.214   3.056 -0.5962 -0.3489 -0.2378
13137TIP3    H160902   0.899   5.121   3.033  0.1640 -0.1986 -1.2456
13137TIP3    H260903   0.832   5.256   3.017 -2.8376 -0.9603  3.0977
13138TIP3   OH260904   0.693   2.668   0.423 -0.3044 -0.1292  0.0335
13138TIP3    H160905   0.649   2.731   0.481  0.6631  0.6203 -0.0105
13138TIP3    H260906   0.757   2.624   0.479  0.7758  0.7385 -0.4739
13139TIP3   OH260907   6.202   4.265   0.601 -0.2266 -0.3178  0.5720
13139TIP3    H160908   6.281   4.310   0.632 -0.2077 -0.4607  0.7329
13139TIP3    H260909   6.147   4.335   0.566 -0.0292 -0.2171  0.4605
13140TIP3   OH260910   5.864   6.474   4.460  0.4863  0.0118 -0.5546
13140TIP3    H160911   5.910   6.396   4.430  0.0059 -0.2892 -0.5255
13140TIP3    H260912   5.841   6.455   4.551 -2.9336 -1.4374 -1.5397
13141TIP3   OH260913   4.087   5.966  11.349  0.3032 -0.0740 -0.1695
13141TIP3    H160914   4.109   6.042  11.402  0.0745 -0.7994  0.9935
13141TIP3    H260915   4.038   5.908  11.408 -0.7301 -0.5215 -1.4091
13142TIP3   OH260916   5.045   3.098  13.067  0.0176 -0.1739 -0.3470
13142TIP3    H160917   4.976   3.150  13.024  2.3409  2.4062 -1.2376
13142TIP3    H260918   5.045   3.129  13.158  0.6239  0.5477 -0.5881
13143TIP3   OH260919   2.541   0.614  13.757 -0.0435  0.4643 -0.1299
13143TIP3    H160920   2.601   0.664  13.700  0.9627  2.0826  2.1804
13143TIP3    H260921   2.591   0.536  13.781 -0.4588 -0.2111 -1.3488
13144TIP3   OH260922   5.515   0.382   1.000 -0.2703  0.2773 -0.3261
13144TIP3    H160923   5.499   0.347   0.912 -1.4339 -2.7117  0.9473
13144TIP3    H260924   5.584   0.326   1.036  1.0146  2.1905  0.3042
13145TIP3   OH260925   1.558   0.527  11.915  0.5545 -0.6541 -0.1504
13145TIP3    H160926   1.642   0.527  11.869  1.1161  1.0042  0.7630
13145TIP3    H260927   1.558   0.446  11.966  1.8615 -0.4391  0.2263
13146TIP3   OH260928   1.986   4.196  11.554 -0.3185 -0.0548  0.7785
13146TIP3    H160929   2.050   4.191  11.626  0.2937 -0.1890  0.2332
13146TIP3    H260930   1.987   4.288  11.529  1.3264 -0.4182 -0.6887
13147TIP3   OH260931   0.568   2.209  15.710 -0.3937 -0.7599 -0.3477
13147TIP3    H160932   0.651   2.214  15.663 -0.6683 -2.0252 -0.9926
13147TIP3    H260933   0.593   2.213  15.803  0.3344 -0.5889 -0.5469
13148TIP3   OH260934   3.816   4.353   3.989 -0.3569  0.0034  0.2472
13148TIP3    H160935   3.739   4.387   3.944  0.1368 -0.1464 -0.7628
13148TIP3    H260936   3.888   4.408   3.958  0.1141 -0.5964  0.2512
13149TIP3   OH260937   5.455   0.251   3.497 -0.0400  0.0467  0.1267
13149TIP3    H160938   5.434   0.158   3.499 -0.8130  0.1436 -1.5469
13149TIP3    H260939   5.422   0.281   3.412  0.1459  1.8607  0.6571
13150TIP3   OH260940   6.293   2.194   1.715  0.0381  0.5704 -0.4161
13150TIP3    H160941   6.206   2.187   1.754  0.9004 -1.0522  1.3588
13150TIP3    H260942   6.304   2.113   1.666  0.5882  0.7257 -0.5639
13151TIP3   OH260943   6.279   2.159  14.520 -0.5255 -0.0966 -0.5151
13151TIP3    H160944   6.265   2.067  14.542  4.0325 -0.7607  0.6694
13151TIP3    H260945   6.361   2.159  14.471 -1.2220  3.2749 -1.9686
13152TIP3   OH260946   2.075   0.750   1.995 -0.4992  0.1540  0.0130
13152TIP3    H160947   2.020   0.672   2.008  0.5376 -0.3812  1.4109
13152TIP3    H260948   2.126   0.756   2.075 -0.0272  1.8667 -0.3952
13153TIP3   OH260949   1.503   1.924  12.157 -0.4174 -0.6490  0.6242
13153TIP3    H160950   1.563   1.853  12.133 -0.2662 -0.9185  1.7475
13153TIP3    H260951   1.416   1.886  12.152 -0.4158 -0.5986  0.1683
13154TIP3   OH260952   3.566   2.727   3.840 -0.5437 -0.0294  0.5384
13154TIP3    H160953   3.510   2.694   3.769  0.7999  1.7006 -1.4652
13154TIP3    H260954   3.589   2.649   3.891 -3.7161 -0.9612  0.7560
13155TIP3   OH260955   5.334   1.219   0.661 -0.0097 -0.5560  0.8565
13155TIP3    H160956   5.375   1.260   0.584  0.7571 -1.7495  0.6116
13155TIP3    H260957   5.406   1.174   0.705 -1.0665 -3.0692  0.1868
13156TIP3   OH260958   3.446   3.195   4.713 -0.1371 -0.2418  0.1302
13156TIP3    H160959   3.452   3.220   4.805  1.1684 -1.4634  0.4080
13156TIP3    H260960   3.498   3.116   4.707 -1.9218 -1.3911 -1.2379
13157TIP3   OH260961   0.709   3.777   6.583  0.0014 -0.2509  0.0520
13157TIP3    H160962   0.677   3.782   6.493 -1.1050 -0.4864  0.4110
13157TIP3    H260963   0.792   3.730   6.577 -0.3475 -0.7779 -0.7787
13158TIP3   OH260964   5.375   5.144  14.325 -0.0621  0.1817  0.7717
13158TIP3    H160965   5.300   5.095  14.358  1.3939 -1.6332  1.5283
13158TIP3    H260966   5.429   5.080  14.280  2.1542  0.9068  2.1947
13159TIP3   OH260967   2.629   5.158  12.583  0.5199 -0.1319  0.1677
13159TIP3    H160968   2.611   5.072  12.621  2.0943  0.0568  1.4361
13159TIP3    H260969   2.669   5.140  12.498  1.3367 -0.6793  0.6587
13160TIP3   OH260970   1.487   5.698  15.030  0.2370 -0.6716  0.9313
13160TIP3    H160971   1.579   5.722  15.027  0.2836 -0.9094 -2.2840
13160TIP3    H260972   1.482   5.613  14.985 -1.3593 -1.5890  2.6496
13161TIP3   OH260973   4.635   1.442  16.075  0.0114  0.3473  0.2397
13161TIP3    H160974   4.587   1.462  15.995 -1.4770 -0.3357  0.9404
13161TIP3    H260975   4.619   1.518  16.131 -0.2414  0.1168  0.4766
13162TIP3   OH260976   4.606   3.063  11.706 -0.5977 -0.1519  0.1949
13162TIP3    H160977   4.560   2.985  11.737 -0.1097 -0.5209  0.0165
13162TIP3    H260978   4.675   3.078  11.771 -0.4405 -0.1115  0.0232
13163TIP3   OH260979   5.497   5.510  16.638 -0.0424 -0.3583  0.2119
13163TIP3    H160980   5.485   5.453  16.561 -0.4776  0.5544 -0.4133
13163TIP3    H260981   5.453   5.463  16.709 -1.1655 -0.4146 -0.4901
13164TIP3   OH260982   4.127   3.189   2.804  0.3005  0.4851  0.1190
13164TIP3    H160983   4.059   3.127   2.778  1.4990 -0.0564 -1.9428
13164TIP3    H260984   4.111   3.205   2.897 -1.7574 -0.7080  0.0189
13165TIP3   OH260985   4.000   4.506   5.775  0.4560  0.2882  0.0080
13165TIP3    H160986   3.906   4.494   5.781  0.5170  0.4004  1.7717
13165TIP3    H260987   4.036   4.453   5.846  2.0062 -2.1422 -2.4049
13166TIP3   OH260988   5.771   4.728   4.841  0.1585  0.2691 -0.2462
13166TIP3    H160989   5.848   4.772   4.805  0.9891 -1.0239 -0.1331
13166TIP3    H260990   5.796   4.636   4.845 -0.3177  0.1821  2.5284
13167TIP3   OH260991   6.112   1.907  15.878 -0.2412 -0.1585 -0.0255
13167TIP3    H160992   6.201   1.874  15.893 -0.0132  0.4219 -0.0691
13167TIP3    H260993   6.085   1.941  15.963 -0.2867 -0.0209 -0.0940
13168TIP3   OH260994   4.162   3.676  15.108  0.0587  0.4468 -0.5769
13168TIP3    H160995   4.095   3.739  15.135 -0.3435  0.1067 -0.7686
13168TIP3    H260996   4.211   3.720  15.039  0.5418  0.9982  0.0964
13169TIP3   OH260997   0.319   4.882   2.405  0.3072  0.1893  0.8620
13169TIP3    H160998   0.314   4.853   2.313  1.1253 -0.7183  1.0905
13169TIP3    H260999   0.373   4.960   2.402  0.8067 -0.1568  0.6305
13170TIP3   OH261000   6.695   4.903   4.902  0.1582 -0.6494  0.5922
13170TIP3    H161001   6.650   4.913   4.986  0.3492  1.0464  0.5181
13170TIP3    H261002   6.708   4.992   4.870  2.6462 -1.1001  0.1136
13171TIP3   OH261003   3.037   2.940  16.073 -0.1170  0.3127 -0.7114
13171TIP3    H161004   3.065   2.911  16.160  0.8538  0.6677 -0.8903
13171TIP3    H261005   2.971   3.007  16.090 -2.7847 -2.2342 -0.2896
13172TIP3   OH261006   6.161   3.637  15.866 -0.0108  0.4019  0.0859
13172TIP3    H161007   6.238   3.671  15.820 -0.7725 -0.0113 -1.5585
13172TIP3    H261008   6.102   3.712  15.874  1.1191  1.1441  2.7889
13173TIP3   OH261009   5.320   0.176  13.814  0.1216  0.8515  0.1439
13173TIP3    H161010   5.400   0.214  13.849 -1.4643  2.4029  2.4123
13173TIP3    H261011   5.284   0.124  13.886 -1.6192  1.3769 -0.2961
13174TIP3   OH261012   6.321   1.211  14.315  0.3881 -0.3926  0.0860
13174TIP3    H161013   6.351   1.291  14.357  0.4856 -0.2696 -0.2110
13174TIP3    H261014   6.387   1.145  14.339  0.0184 -0.5151  0.7714
13175TIP3   OH261015   4.408   5.123   4.427  0.0885 -0.3691  0.2639
13175TIP3    H161016   4.355   5.189   4.382 -0.8013 -1.3130 -0.1169
13175TIP3    H261017   4.469   5.092   4.360  0.1727 -0.2923  0.3043
13176TIP3   OH261018   6.548   1.755  16.510 -0.0127  0.0096 -0.0070
13176TIP3    H161019   6.561   1.848  16.530  0.5003  0.1510 -0.9160
13176TIP3    H261020   6.545   1.752  16.414 -0.3431 -0.8713  0.0270
13177TIP3   OH261021   6.517   6.304   4.835  0.0894  0.2689 -0.1058
13177TIP3    H161022   6.564   6.224   4.812  0.7911  0.7325 -0.3143
13177TIP3    H261023   6.528   6.360   4.759  1.7819  1.5321  0.9836
13178TIP3   OH261024   4.768   6.582   4.104 -0.2478  0.0369  0.1040
13178TIP3    H161025   4.785   6.674   4.085 -0.3047 -0.0883 -0.5734
13178TIP3    H261026   4.855   6.541   4.102 -0.0110  0.3561  2.0611
13179TIP3   OH261027   0.326   1.827   2.322 -0.0143 -0.6082  0.3866
13179TIP3    H161028   0.328   1.894   2.391  3.1949  0.4961 -0.6263
13179TIP3    H261029   0.413   1.787   2.324 -0.2705 -1.4732 -2.1459
13180TIP3   OH261030   4.702   5.809  16.618 -0.2942  0.1289  0.3893
13180TIP3    H161031   4.745   5.825  16.535 -2.5869 -1.4095 -1.2072
13180TIP3    H261032   4.662   5.894  16.641  0.8853  0.7246  0.2828
13181TIP3   OH261033   0.423   2.901   5.273 -0.1111 -1.4313  0.1564
13181TIP3    H161034   0.477   2.916   5.195  2.5335  1.5099  2.2803
13181TIP3    H261035   0.333   2.908   5.242  0.8129 -0.8775 -2.6972
13182TIP3   OH261036   2.875   6.588   1.657  0.2666  0.1842 -0.2860
13182TIP3    H161037   2.926   6.519   1.614 -1.2947 -1.5420  0.4496
13182TIP3    H261038   2.806   6.608   1.594 -0.6260 -0.6345  0.3943
13183TIP3   OH261039   4.422   3.510   3.130  0.6354  0.2994 -0.1140
13183TIP3    H161040   4.400   3.535   3.040 -1.3410  0.3668  0.3260
13183TIP3    H261041   4.408   3.590   3.181 -0.4962 -0.2975  0.5506
13184TIP3   OH261042   2.841   2.151   5.457 -0.1508  0.2313  0.0146
13184TIP3    H161043   2.792   2.220   5.412 -0.4431 -0.0654 -0.1259
13184TIP3    H261044   2.904   2.120   5.392 -1.0962 -0.7386 -0.4723
13185TIP3   OH261045   1.370   3.952  10.258  0.3738  0.2104 -0.0355
13185TIP3    H161046   1.399   4.032  10.302  0.8387  0.4959 -0.8424
13185TIP3    H261047   1.444   3.892  10.266 -0.1484 -0.3424  0.9942
13186TIP3   OH261048   4.670   6.615  15.261 -0.3295  0.3913  0.2850
13186TIP3    H161049   4.597   6.554  15.267 -0.3391  0.4069  0.3294
13186TIP3    H261050   4.726   6.580  15.191 -0.1571  0.1446  0.5424
13187TIP3   OH261051   4.733   5.897   0.550 -0.2370  0.1235 -0.0389
13187TIP3    H161052   4.671   5.899   0.477 -2.9022  0.1957  2.0767
13187TIP3    H261053   4.717   5.978   0.598  1.2058 -0.0681  0.8170
13188TIP3   OH261054   2.662   2.231   3.762  0.3693 -0.3276 -0.4299
13188TIP3    H161055   2.664   2.136   3.750 -0.4624 -0.3773 -0.2825
13188TIP3    H261056   2.575   2.257   3.729 -0.2695  0.0896  1.4875
13189TIP3   OH261057   2.614   2.302  16.357  0.6319  0.8496 -0.4056
13189TIP3    H161058   2.592   2.302  16.263 -0.5987 -0.4408 -0.1472
13189TIP3    H261059   2.534   2.332  16.400  0.1655 -1.4109  0.4025
13190TIP3   OH261060   5.294   5.732   2.457  0.4571 -0.1758 -0.1235
13190TIP3    H161061   5.308   5.640   2.482 -0.1020 -0.5704 -1.2021
13190TIP3    H261062   5.377   5.760   2.420 -0.0023 -0.9634 -1.8611
13191TIP3   OH261063   0.975   2.960  11.048  0.0567 -0.0635 -0.3804
13191TIP3    H161064   1.024   3.042  11.039 -0.2790  0.4063  1.6346
13191TIP3    H261065   0.883   2.987  11.047 -0.1060 -0.6073 -1.2092
13192TIP3   OH261066   1.852   6.351  11.379 -0.2039  0.5891  0.3377
13192TIP3    H161067   1.787   6.348  11.450  1.2861  2.3912  1.9031
13192TIP3    H261068   1.936   6.344  11.424  0.7677 -1.2297 -1.5875
13193TIP3   OH261069   0.262   2.582  12.148 -0.1022 -0.2588 -0.0188
13193TIP3    H161070   0.324   2.538  12.205 -1.0068  1.7089  2.7333
13193TIP3    H261071   0.299   2.574  12.060  2.9912 -0.8376  1.2232
13194TIP3   OH261072   4.171   1.168  12.977 -0.3553 -0.2382  0.1051
13194TIP3    H161073   4.224   1.170  13.057  0.9046  2.0284 -0.6921
13194TIP3    H261074   4.177   1.077  12.947  3.8491 -0.0574 -0.3220
13195TIP3   OH261075   6.203   2.115   6.234  0.2599 -0.5187 -0.2373
13195TIP3    H161076   6.203   2.206   6.204 -2.6002 -0.6329 -0.8463
13195TIP3    H261077   6.147   2.114   6.311 -0.3136 -1.8300 -0.6255
13196TIP3   OH261078   2.920   3.340  14.795 -0.1414 -0.3062 -0.1148
13196TIP3    H161079   2.862   3.268  14.818  0.3330 -0.6324  0.0837
13196TIP3    H261080   3.008   3.304  14.805  0.3725  1.4526  4.5012
13197TIP3   OH261081   2.362   2.644  16.266  0.2930  0.3934  0.1805
13197TIP3    H161082   2.294   2.656  16.200 -0.5226 -0.9450  0.7475
13197TIP3    H261083   2.442   2.626  16.215  0.5323  3.0257 -0.5250
13198TIP3   OH261084   0.599   1.266   3.754  0.2847 -0.1098 -0.3729
13198TIP3    H161085   0.529   1.226   3.807  1.7739  0.6771  2.3736
13198TIP3    H261086   0.575   1.358   3.749 -0.0884 -0.2487 -1.5852
13199TIP3   OH261087   4.893   5.075  12.000  0.0520 -0.2793  0.2392
13199TIP3    H161088   4.975   5.025  12.005 -0.3580 -1.0229 -0.3565
13199TIP3    H261089   4.922   5.167  11.997  0.8334 -0.4926  0.7741
13200TIP3   OH261090   1.992   5.184  16.691 -0.2980  0.0230  0.3195
13200TIP3    H161091   1.950   5.236  16.623 -1.7615  0.6173  1.6067
13200TIP3    H261092   2.079   5.164  16.657 -1.5777 -1.2468 -2.4793
13201TIP3   OH261093   4.408   2.070   5.696  0.6676 -0.4070  0.2657
13201TIP3    H161094   4.338   2.076   5.761  1.4055 -0.7203  1.1220
13201TIP3    H261095   4.488   2.092   5.745  1.2550 -0.7285 -0.5183
13202TIP3   OH261096   6.337   3.605   3.109 -0.0421  0.2785 -0.0776
13202TIP3    H161097   6.306   3.585   3.021  1.5431 -0.3167 -0.5367
13202TIP3    H261098   6.257   3.622   3.159 -0.9466  1.3835 -1.7869
13203TIP3   OH261099   2.209   2.734  15.197 -0.0811 -0.7401 -0.0766
13203TIP3    H161100   2.239   2.790  15.126  0.9881 -1.3578 -0.1248
13203TIP3    H261101   2.135   2.782  15.236  0.0462  0.1235 -0.8746
13204TIP3   OH261102   2.503   2.949  14.742  0.1700 -0.5721  0.2702
13204TIP3    H161103   2.515   3.019  14.679  0.1318 -1.2461 -0.5008
13204TIP3    H261104   2.539   2.984  14.824  0.9756  0.0168 -0.3140
13205TIP3   OH261105   2.344   5.913  14.468 -0.1341 -0.2145 -0.5110
13205TIP3    H161106   2.387   5.997  14.478 -2.0592  0.8949 -0.9752
13205TIP3    H261107   2.375   5.880  14.384  0.2071  0.2917 -0.5891
13206TIP3   OH261108   0.970   0.502  11.414  0.1031  0.0592  0.6122
13206TIP3    H161109   0.929   0.416  11.404  1.0960 -0.4120  0.5446
13206TIP3    H261110   1.034   0.491  11.484  1.3025  0.3264 -0.3985
13207TIP3   OH261111   4.444   6.485   5.452  0.0905  0.2553 -0.2441
13207TIP3    H161112   4.538   6.467   5.443 -0.0941 -0.2329 -1.3473
13207TIP3    H261113   4.405   6.446   5.374 -1.0495  0.3494  0.2640
13208TIP3   OH261114   2.725   3.073   3.984 -0.3119 -0.4104  0.0543
13208TIP3    H161115   2.698   3.097   4.073 -1.2812 -2.0588  0.2474
13208TIP3    H261116   2.791   3.138   3.961 -1.1727  1.0011  1.3645
13209TIP3   OH261117   4.420   2.652  13.434  0.0029  0.0460 -0.0344
13209TIP3    H161118   4.445   2.625  13.522  0.8101  0.2476 -0.1949
13209TIP3    H261119   4.373   2.734  13.446  0.2068  0.1290  0.2001
13210TIP3   OH261120   5.218   0.386   4.045 -0.3354 -0.1275 -0.1917
13210TIP3    H161121   5.268   0.427   3.975  0.9044 -1.0744  0.1031
13210TIP3    H261122   5.134   0.431   4.044  0.7422  2.0206 -0.2496
13211TIP3   OH261123   2.963   6.737  16.277  0.7662 -0.0505 -0.0825
13211TIP3    H161124   2.934   6.682  16.204 -0.3034  2.3701 -1.5825
13211TIP3    H261125   2.931   6.690  16.355 -1.9679 -0.5712 -1.3829
13212TIP3   OH261126   2.826   3.550  11.120 -0.4341 -0.2374  0.2346
13212TIP3    H161127   2.820   3.556  11.216  0.6946  2.8994  0.2196
13212TIP3    H261128   2.800   3.460  11.101  0.8310 -1.5005  3.5938
13213TIP3   OH261129   2.534   3.408   0.424 -0.0714  0.7535 -0.1518
13213TIP3    H161130   2.469   3.478   0.433  0.0790  0.6408  2.6089
13213TIP3    H261131   2.488   3.329   0.450  0.2376  0.0609 -1.6160
13214TIP3   OH261132   3.163   3.236  16.872  0.0404  0.0888  0.4135
13214TIP3    H161133   3.068   3.239  16.860  0.2499  0.3441 -1.3630
13214TIP3    H261134   3.197   3.203  16.790  1.5323  0.4341  0.8623
13215TIP3   OH261135   0.464   5.555  16.427 -0.2905  0.2076 -0.1722
13215TIP3    H161136   0.483   5.578  16.336  1.6442 -0.8777 -0.0944
13215TIP3    H261137   0.444   5.461  16.424 -0.4525  0.2173  0.4988
13216TIP3   OH261138   4.820   0.460   1.815 -0.7226  0.5393  0.2824
13216TIP3    H161139   4.839   0.492   1.903  1.2475 -2.7329  1.2307
13216TIP3    H261140   4.773   0.378   1.830  0.0031 -0.2973 -1.6964
13217TIP3   OH261141   0.693   0.284  14.240 -0.0709 -0.2440  0.0248
13217TIP3    H161142   0.758   0.275  14.170  0.5758  0.4997  0.5142
13217TIP3    H261143   0.743   0.277  14.321 -0.8368 -1.2713  0.4386
13218TIP3   OH261144   4.739   3.731   3.925 -0.4367  0.3385  0.3863
13218TIP3    H161145   4.731   3.800   3.858 -1.1506 -1.1220 -1.1221
13218TIP3    H261146   4.650   3.723   3.960 -0.1610  0.7756  1.1976
13219TIP3   OH261147   1.162   5.872   3.908 -0.3817 -0.1853  0.1783
13219TIP3    H161148   1.182   5.867   3.815  0.3720  0.1088  0.3186
13219TIP3    H261149   1.088   5.933   3.914 -1.0452 -0.9320 -0.3057
13220TIP3   OH261150   3.165   6.808  15.153  0.0379  0.0602  0.4132
13220TIP3    H161151   3.248   6.837  15.115 -0.3011 -0.8562 -1.1012
13220TIP3    H261152   3.123   6.758  15.083 -1.6416  0.2180  1.2777
13221TIP3   OH261153   0.679   2.544  17.106  0.2167 -0.0864  0.0937
13221TIP3    H161154   0.722   2.520  17.188  0.9561 -0.4461 -0.3838
13221TIP3    H261155   0.617   2.613  17.130  0.1331 -0.4783  1.0126
13222TIP3   OH261156   4.756   1.873  17.176  0.4425 -0.1163 -0.2423
13222TIP3    H161157   4.797   1.896  17.259 -0.4221 -1.1137  0.4817
13222TIP3    H261158   4.761   1.954  17.124 -0.8130  1.1636  1.5069
13223TIP3   OH261159   1.370   5.784   1.822 -0.1574 -0.2882  0.1557
13223TIP3    H161160   1.338   5.872   1.801 -3.3026 -0.9866  1.3283
13223TIP3    H261161   1.386   5.787   1.917  0.3913 -0.7929  0.0797
13224TIP3   OH261162   6.819   3.204   1.076 -0.8579  0.0031 -0.1240
13224TIP3    H161163   6.886   3.200   1.144 -2.2857  2.4494  1.5821
13224TIP3    H261164   6.777   3.117   1.079  0.5057 -0.6644  0.5778
13225TIP3   OH261165   6.618   3.675  12.373  0.3353 -0.3833  0.4456
13225TIP3    H161166   6.562   3.674  12.295 -1.1814  1.4050  1.4341
13225TIP3    H261167   6.708   3.671  12.338 -0.3211 -0.5570 -1.3217
13226TIP3   OH261168   1.018   1.010  11.948  0.3124 -0.3034  0.7684
13226TIP3    H161169   1.011   1.053  12.033  2.6861  0.7766  0.5252
13226TIP3    H261170   1.071   0.932  11.965 -0.1816 -0.7128  0.4575
13227TIP3   OH261171   3.463   3.102  12.353  0.1026 -0.2316 -0.0083
13227TIP3    H161172   3.546   3.054  12.357  0.8297  1.0968  2.1367
13227TIP3    H261173   3.480   3.185  12.396 -2.3239  0.1338  0.4259
13228TIP3   OH261174   1.579   5.879  15.422  0.4587  0.3145 -0.0066
13228TIP3    H161175   1.568   5.969  15.451 -0.9012  0.4084 -0.7706
13228TIP3    H261176   1.659   5.881  15.368 -0.4360  1.4135 -1.3446
13229TIP3   OH261177   0.934   1.314  12.372 -0.4108  0.4454 -0.1049
13229TIP3    H161178   0.862   1.321  12.435 -1.3937 -1.2773 -0.9444
13229TIP3    H261179   0.894   1.337  12.288  0.2076  0.2071 -0.4721
13230TIP3   OH261180   6.605   3.464  11.956  0.3492 -0.5279 -0.4546
13230TIP3    H161181   6.618   3.541  11.901  0.1385  0.2064  0.5175
13230TIP3    H261182   6.532   3.418  11.915  0.7458 -0.4554 -1.2842
13231TIP3   OH261183   5.606   0.422  12.813  0.0172 -0.0898 -0.4715
13231TIP3    H161184   5.610   0.362  12.739  1.6265 -0.5541 -0.0329
13231TIP3    H261185   5.696   0.452  12.825 -0.3536  0.5927  0.7996
13232TIP3   OH261186   0.016   2.407   2.790 -0.9206 -0.2684 -0.0999
13232TIP3    H161187   0.008   2.353   2.712 -0.6602 -1.1830  0.4799
13232TIP3    H261188   0.110   2.420   2.801 -1.0105  2.7739 -1.8230
13233TIP3   OH261189   3.384   1.172   3.534 -0.2522 -0.2581  0.2822
13233TIP3    H161190   3.301   1.201   3.497 -0.7049  1.0676  2.1868
13233TIP3    H261191   3.425   1.121   3.464 -2.1402  0.0103 -1.0992
13234TIP3   OH261192   2.835   3.555  13.144 -0.2302 -0.1514 -0.2412
13234TIP3    H161193   2.754   3.508  13.161  1.1235 -3.0928 -1.2905
13234TIP3    H261194   2.901   3.487  13.131  1.5871  1.9444 -3.5484
13235TIP3   OH261195   2.186   4.457  15.029  0.1677 -0.3474 -0.3586
13235TIP3    H161196   2.235   4.461  15.111  0.4935  0.0077 -0.5654
13235TIP3    H261197   2.180   4.548  15.001  1.3341 -0.5944 -1.4749
13236TIP3   OH261198   2.270   0.086  14.720  0.4031  0.2961 -0.5405
13236TIP3    H161199   2.322   0.011  14.694  2.6256  2.3397 -2.4686
13236TIP3    H261200   2.216   0.106  14.643  0.1446  0.9049 -0.2120
13237TIP3   OH261201   3.085   6.400  16.258 -0.4791 -0.0722  0.3047
13237TIP3    H161202   3.161   6.455  16.280 -1.6726  1.1360  1.6005
13237TIP3    H261203   3.037   6.451  16.193 -0.1168 -0.9231 -0.6594
13238TIP3   OH261204   0.968   1.358  16.440 -0.1721 -0.4665  0.6909
13238TIP3    H161205   0.903   1.376  16.372  2.5765  2.0247 -1.5184
13238TIP3    H261206   0.954   1.428  16.505 -0.0626 -0.2826  0.5163
13239TIP3   OH261207   0.384   3.620   0.858 -0.1852  0.1516 -0.1526
13239TIP3    H161208   0.328   3.659   0.926 -0.7962  2.6727 -1.9782
13239TIP3    H261209   0.332   3.547   0.824 -1.0102  0.5236  0.2763
13240TIP3   OH261210   3.652   4.975  14.186  0.1438 -0.5325 -0.2407
13240TIP3    H161211   3.605   5.007  14.109 -0.4604 -0.0576  0.3144
13240TIP3    H261212   3.699   5.051  14.219 -1.9156  0.0686  1.5405
13241TIP3   OH261213   4.620   5.749  11.683  0.4305  0.3478  0.5236
13241TIP3    H161214   4.688   5.693  11.645  0.5728  0.6461  0.3365
13241TIP3    H261215   4.606   5.817  11.618  1.3217  1.3869  1.3781
13242TIP3   OH261216   2.777   6.545  14.024  0.2781  0.2062 -0.2195
13242TIP3    H161217   2.773   6.507  13.937  1.1858  2.3693 -1.2849
13242TIP3    H261218   2.686   6.546  14.054 -0.2377  0.6719 -1.7342
13243TIP3   OH261219   5.942   4.248   3.194  0.0522 -0.2994 -0.2499
13243TIP3    H161220   5.883   4.316   3.160  0.2030 -0.1704 -0.2527
13243TIP3    H261221   5.979   4.207   3.115 -0.5365 -0.8274 -0.2633
13244TIP3   OH261222   4.705   0.524   2.109  0.3336  0.6298  0.8650
13244TIP3    H161223   4.672   0.605   2.147 -0.1340  1.5631 -1.3795
13244TIP3    H261224   4.634   0.461   2.122 -0.5282  1.4022  0.0577
13245TIP3   OH261225   2.681   4.036   1.134 -0.0744  0.2466 -0.0934
13245TIP3    H161226   2.640   4.094   1.197 -1.4430  0.1624 -0.8787
13245TIP3    H261227   2.650   4.067   1.049 -0.3081 -1.2135 -0.5654
13246TIP3   OH261228   1.915   0.795  16.210  0.0210 -0.3912 -0.3045
13246TIP3    H161229   1.933   0.736  16.137  1.6808 -0.8590  0.4261
13246TIP3    H261230   1.852   0.748  16.265  0.6774 -1.1377 -0.1689
13247TIP3   OH261231   0.574   2.815   3.417  0.5247 -0.0525 -0.5074
13247TIP3    H161232   0.667   2.822   3.395  0.9839 -2.1080  0.4946
13247TIP3    H261233   0.561   2.722   3.436 -1.5586  0.3260  0.1685
13248TIP3   OH261234   5.267   1.007  11.667 -0.1773  0.9606 -0.6306
13248TIP3    H161235   5.347   0.989  11.617  0.4043 -0.2864  0.6852
13248TIP3    H261236   5.289   1.083  11.721 -0.7339  2.1683 -2.0179
13249TIP3   OH261237   2.685   3.097   0.805  0.3821 -0.0550  0.6575
13249TIP3    H161238   2.606   3.052   0.775  0.1555  0.5471  0.3439
13249TIP3    H261239   2.755   3.061   0.751  0.0071  0.8656 -0.4786
13250TIP3   OH261240   5.816   2.889   1.713  0.3638  0.2400 -0.0178
13250TIP3    H161241   5.844   2.798   1.726  2.3950  1.0501  2.1316
13250TIP3    H261242   5.810   2.924   1.802 -0.4329  2.2059 -0.8033
13251TIP3   OH261243   4.073   0.181   1.937  0.1688  0.6695  0.2577
13251TIP3    H161244   4.092   0.225   1.855  0.2673  0.4545  0.1638
13251TIP3    H261245   4.032   0.248   1.992 -2.6954  0.0716 -1.0050
13252TIP3   OH261246   1.647   1.591   6.196  0.1630 -0.0456 -0.5514
13252TIP3    H161247   1.725   1.541   6.221 -0.1015  0.4955  1.5977
13252TIP3    H261248   1.653   1.672   6.246 -3.0413 -1.0792  1.9142
13253TIP3   OH261249   2.988   2.135  16.725  0.6129 -0.1295  0.8435
13253TIP3    H161250   2.995   2.227  16.748  0.7404  0.2535 -0.6672
13253TIP3    H261251   2.902   2.108  16.758  0.1647  0.7877  0.4533
13254TIP3   OH261252   5.447   5.212  12.233  0.4903 -0.2453 -0.6050
13254TIP3    H161253   5.501   5.194  12.156 -0.4035  0.4631 -1.4170
13254TIP3    H261254   5.486   5.290  12.272  0.5330 -0.2001 -0.7374
13255TIP3   OH261255   2.278   4.245  11.451  0.0207 -0.0626 -0.5522
13255TIP3    H161256   2.244   4.286  11.372  0.4073  1.7790  0.1873
13255TIP3    H261257   2.204   4.196  11.487 -0.4716  0.0222 -1.4379
13256TIP3   OH261258   1.474   3.248   1.024 -0.6196  0.5415  0.0495
13256TIP3    H161259   1.386   3.259   0.988 -0.9557  1.4422  1.1223
13256TIP3    H261260   1.524   3.320   0.987  0.1605 -0.8896 -1.8930
13257TIP3   OH261261   3.412   1.622   4.713 -0.1161  0.1489 -0.3387
13257TIP3    H161262   3.473   1.549   4.725 -2.4622 -2.0344 -0.8946
13257TIP3    H261263   3.455   1.678   4.648  0.9814 -1.6687 -1.2654
13258TIP3   OH261264   3.624   1.261   2.214 -0.7191 -0.8551  0.5946
13258TIP3    H161265   3.679   1.332   2.248 -2.5121  0.4884  0.8734
13258TIP3    H261266   3.682   1.185   2.209  1.8582  1.0704 -1.6511
13259TIP3   OH261267   2.227   5.095   4.556  0.3425  0.2912  0.4732
13259TIP3    H161268   2.155   5.140   4.600 -1.8276 -1.3194 -1.2279
13259TIP3    H261269   2.265   5.038   4.624  1.8847  3.0364  2.1183
13260TIP3   OH261270   2.552   3.727  11.209  0.1479  0.6429 -0.2856
13260TIP3    H161271   2.473   3.773  11.235  0.0284  0.5800 -0.5344
13260TIP3    H261272   2.578   3.768  11.127  0.9259  1.3227  0.2866
13261TIP3   OH261273   1.380   0.912  14.684  0.0715  0.4636 -0.3337
13261TIP3    H161274   1.387   0.820  14.711 -0.6397  0.0958 -1.3509
13261TIP3    H261275   1.469   0.936  14.660  0.1208 -0.2308 -0.8900
13262TIP3   OH261276   2.691   0.064  15.459 -0.0355 -0.3155  0.3436
13262TIP3    H161277   2.652   0.036  15.376  0.2621 -1.5370  0.5893
13262TIP3    H261278   2.764   0.004  15.472  0.6468  0.6053  0.9229
13263TIP3   OH261279   1.889   4.180  13.190  0.5505  0.2314 -0.4236
13263TIP3    H161280   1.944   4.110  13.156 -0.8709 -1.2032  0.0855
13263TIP3    H261281   1.883   4.162  13.284 -1.3582 -0.1415 -0.5692
13264TIP3   OH261282   0.258   4.223   0.679 -0.1195  0.1889 -0.3037
13264TIP3    H161283   0.236   4.130   0.673  0.2754  0.0403  0.3963
13264TIP3    H261284   0.353   4.224   0.689 -0.2803  0.5610  1.4729
13265TIP3   OH261285   4.971   6.622  10.884 -0.1283 -0.5695  0.8692
13265TIP3    H161286   4.920   6.635  10.964 -1.4746 -2.6244  0.4007
13265TIP3    H261287   4.914   6.653  10.814  0.5973  0.1536  0.5784
13266TIP3   OH261288   4.255   4.377  13.157  0.3817  0.5181  0.1044
13266TIP3    H161289   4.270   4.371  13.063  1.7299  0.4305  0.2965
13266TIP3    H261290   4.249   4.286  13.187  0.6241  0.5315  0.1954
13267TIP3   OH261291   5.969   1.756  16.677 -0.4257  0.1577  0.7960
13267TIP3    H161292   6.041   1.818  16.686 -0.2269 -0.3355  3.2601
13267TIP3    H261293   5.907   1.781  16.746 -2.4959  0.3198 -0.9883
13268TIP3   OH261294   2.760   1.441  12.956 -0.3788 -0.3919 -0.5157
13268TIP3    H161295   2.795   1.511  13.012  0.8880 -2.2393  1.1428
13268TIP3    H261296   2.838   1.403  12.914 -0.7691 -2.1132  0.2363
13269TIP3   OH261297   5.615   3.673  15.051 -0.0271  0.3966 -0.1969
13269TIP3    H161298   5.645   3.742  14.992  0.4110  1.0642  0.7760
13269TIP3    H261299   5.569   3.719  15.121  0.8072 -0.2285  0.7969
13270TIP3   OH261300   0.601   4.393   2.346  0.1261  0.2686 -0.5435
13270TIP3    H161301   0.535   4.413   2.279 -0.7138  0.2147  0.2458
13270TIP3    H261302   0.669   4.459   2.333  1.3798 -1.4009 -3.2430
13271TIP3   OH261303   5.890   1.162   5.059 -0.0313 -1.0233 -0.1041
13271TIP3    H161304   5.938   1.229   5.108 -2.0239 -0.9090  1.8418
13271TIP3    H261305   5.919   1.079   5.096 -0.2816 -1.0231  0.0988
13272TIP3   OH261306   3.516   4.174   5.398  0.0292  0.0814 -0.0269
13272TIP3    H161307   3.576   4.249   5.392  1.1728 -0.8974 -1.4042
13272TIP3    H261308   3.441   4.199   5.344  0.3393  0.3039 -0.3617
13273TIP3   OH261309   6.506   5.397   3.293  0.4278 -0.2479 -0.0242
13273TIP3    H161310   6.565   5.393   3.369 -1.9194  2.3879  2.1591
13273TIP3    H261311   6.523   5.483   3.254 -0.1728 -0.5489 -0.9819
13274TIP3   OH261312   4.698   3.906  12.131  0.0331 -0.5960 -0.3559
13274TIP3    H161313   4.689   3.987  12.081  1.2462 -1.9086 -2.9480
13274TIP3    H261314   4.612   3.892  12.170 -0.3820  1.5833 -0.3719
13275TIP3   OH261315   0.548   4.928  13.006  0.5219 -0.0605  0.0641
13275TIP3    H161316   0.594   4.846  12.989 -0.7754 -1.0017  0.8296
13275TIP3    H261317   0.496   4.943  12.926  2.0600  0.9837 -0.7854
13276TIP3   OH261318   1.584   1.902  12.624  0.0302  0.0843 -0.0346
13276TIP3    H161319   1.570   1.961  12.550 -0.1531  0.2647  0.1394
13276TIP3    H261320   1.678   1.904  12.639 -0.0834  1.2696  0.7185
13277TIP3   OH261321   2.956   0.131  11.938 -0.3725  0.2909  0.3263
13277TIP3    H161322   2.954   0.227  11.935  0.9156  0.3169 -0.7104
13277TIP3    H261323   2.940   0.104  11.848 -0.9019 -0.4906  0.6444
13278TIP3   OH261324   3.381   5.647  12.796  0.4633 -0.0262  0.6965
13278TIP3    H161325   3.322   5.655  12.722  0.2501 -1.3195  0.6922
13278TIP3    H261326   3.375   5.731  12.842  0.9385  0.9596 -0.9698
13279TIP3   OH261327   2.288   3.379  14.328 -0.2625 -0.0319 -0.4515
13279TIP3    H161328   2.231   3.324  14.274 -0.1861  0.7585 -1.3748
13279TIP3    H261329   2.374   3.337  14.323  0.0455  0.7042 -2.0291
13280TIP3   OH261330   1.333   4.802   5.180  0.3492 -0.3318 -0.4426
13280TIP3    H161331   1.366   4.810   5.269 -0.5574 -1.0603 -0.0252
13280TIP3    H261332   1.291   4.886   5.162  0.3006 -0.2779 -0.0827
13281TIP3   OH261333   5.345   3.276   2.297  0.2653 -0.5592  0.2130
13281TIP3    H161334   5.307   3.256   2.212 -0.1914 -0.0272  0.2780
13281TIP3    H261335   5.430   3.315   2.277 -0.5743  1.2463 -0.1225
13282TIP3   OH261336   0.616   5.607  17.066  0.1229  0.1336 -0.1425
13282TIP3    H161337   0.671   5.566  17.133  0.4791  1.2132  0.2473
13282TIP3    H261338   0.677   5.656  17.012 -0.3773  0.8158 -0.0980
13283TIP3   OH261339   5.487   6.791  15.390  0.2149 -0.6139 -0.3007
13283TIP3    H161340   5.502   6.703  15.427  1.1045  0.0848  1.0715
13283TIP3    H261341   5.425   6.832  15.451  0.5265  0.0327 -0.4143
13284TIP3   OH261342   6.702   3.872   0.347 -0.4104  0.4898  0.2813
13284TIP3    H161343   6.707   3.934   0.274 -0.2256  0.7029  0.4731
13284TIP3    H261344   6.765   3.905   0.412 -0.3364  0.1228  0.4020
13285TIP3   OH261345   0.965   4.450   2.521 -0.2953  0.2462 -0.0477
13285TIP3    H161346   0.880   4.458   2.563 -1.6003  0.3751 -2.5379
13285TIP3    H261347   0.995   4.362   2.543 -0.7947  0.3972  1.2924
13286TIP3   OH261348   0.860   0.223   0.034  0.2365  0.6967 -0.1249
13286TIP3    H161349   0.900   0.285  -0.027  2.2640 -0.4288 -0.0134
13286TIP3    H261350   0.930   0.162   0.056 -1.1921 -0.5454  1.2206
13287TIP3   OH261351   5.890   5.813   5.026 -0.3476 -0.0276 -0.3353
13287TIP3    H161352   5.959   5.814   5.092  0.4913 -1.3569 -1.1511
13287TIP3    H261353   5.904   5.892   4.975  3.2064 -2.1258 -3.0348
13288TIP3   OH261354   5.254   5.052  17.201  0.0786 -0.4790  0.4985
13288TIP3    H161355   5.277   5.026  17.290  0.6659 -1.8451 -0.0429
13288TIP3    H261356   5.172   5.101  17.212 -0.3997 -1.4859  1.6877
13289TIP3   OH261357   2.427   4.225   5.420 -0.3809  0.0423 -1.1438
13289TIP3    H161358   2.423   4.321   5.418 -0.0496  0.0481 -1.5141
13289TIP3    H261359   2.506   4.206   5.471 -0.2464 -0.0312 -1.3794
13290TIP3   OH261360   4.130   4.711  12.933  0.5662 -0.0458 -0.5777
13290TIP3    H161361   4.062   4.731  12.870 -0.4615 -1.4112  0.0657
13290TIP3    H261362   4.100   4.752  13.015 -0.7136 -2.5807  0.3141
13291TIP3   OH261363   4.339   4.180   4.436  0.1940 -0.4465 -0.6956
13291TIP3    H161364   4.261   4.178   4.491  0.3141 -0.2793 -0.5212
13291TIP3    H261365   4.388   4.102   4.462 -0.0449 -0.7042 -0.9992
13292TIP3   OH261366   5.694   2.003  12.012  0.1624 -0.4828 -0.6368
13292TIP3    H161367   5.717   2.094  12.029 -0.0937 -0.3480 -0.9979
13292TIP3    H261368   5.732   1.984  11.926 -0.6314 -0.4080 -1.0178
13293TIP3   OH261369   3.570   5.923  12.047 -0.0437  0.2126 -0.2088
13293TIP3    H161370   3.636   5.896  11.984 -1.2895 -0.5851 -1.2146
13293TIP3    H261371   3.610   5.906  12.132  1.4975  0.9105 -0.7602
13294TIP3   OH261372   3.232   5.252   3.788  0.5786 -0.0776  0.7437
13294TIP3    H161373   3.315   5.223   3.750  1.1511  1.1765  0.9795
13294TIP3    H261374   3.232   5.213   3.876  0.6969 -0.4569  0.5794
13295TIP3   OH261375   3.769   5.173  14.386  0.3718  0.0325 -0.4240
13295TIP3    H161376   3.860   5.195  14.407  0.4891  0.5938 -1.4501
13295TIP3    H261377   3.754   5.089  14.429  1.6533 -0.4828 -0.9278
13296TIP3   OH261378   3.916   1.964  15.996  0.2981  0.3546 -0.0373
13296TIP3    H161379   3.940   1.890  16.052 -1.0410  0.3626  0.5855
13296TIP3    H261380   3.956   2.040  16.039  1.2207  0.0801 -0.3831
13297TIP3   OH261381   1.721   3.612  17.046 -0.7067  0.5944  0.6725
13297TIP3    H161382   1.678   3.530  17.070 -1.4972  0.3751 -1.2804
13297TIP3    H261383   1.761   3.643  17.127 -1.2610 -1.1891  1.6859
13298TIP3   OH261384   6.639   6.257   4.031 -0.7981 -0.2656 -0.4281
13298TIP3    H161385   6.688   6.217   4.103 -4.1619  0.6645  2.6979
13298TIP3    H261386   6.685   6.338   4.013  1.6882 -1.7793 -1.4435
13299TIP3   OH261387   4.473   1.742   5.131 -0.0906 -0.4062 -0.5355
13299TIP3    H161388   4.409   1.704   5.191  1.4892 -0.1941  1.3997
13299TIP3    H261389   4.551   1.687   5.141  1.3092  1.5888  0.1719
13300TIP3   OH261390   1.117   2.720  14.953  0.6824  0.1717 -0.5450
13300TIP3    H161391   1.186   2.709  15.019  0.1624 -2.1484 -0.2859
13300TIP3    H261392   1.117   2.638  14.905 -1.8221  0.1266 -0.5966
13301TIP3   OH261393   0.321   0.306  13.039  0.2673  0.0613 -0.5585
13301TIP3    H161394   0.312   0.363  12.963  1.0313  2.2381  0.8745
13301TIP3    H261395   0.280   0.355  13.110  1.8502 -0.6900  0.9508
13302TIP3   OH261396   4.710   2.800   0.838  0.3281 -0.3061  0.3223
13302TIP3    H161397   4.736   2.835   0.923  2.1576  2.7934 -1.3422
13302TIP3    H261398   4.628   2.845   0.817 -0.1009 -1.0360  0.3919
13303TIP3   OH261399   0.735   6.157  13.492 -0.2521 -0.0709  0.1257
13303TIP3    H161400   0.697   6.115  13.570 -1.2201  0.6791  0.0757
13303TIP3    H261401   0.662   6.166  13.431  0.3955 -0.2119 -0.6944
13304TIP3   OH261402   4.271   6.578  16.524  0.9557  0.3680 -0.2170
13304TIP3    H161403   4.328   6.547  16.594 -0.3667  0.7858  1.1036
13304TIP3    H261404   4.329   6.627  16.466  2.1317 -0.1880  0.4431
13305TIP3   OH261405   1.062   1.993  13.313 -0.5127  0.3096 -0.5745
13305TIP3    H161406   1.123   1.939  13.263 -0.0420  1.1377 -0.9141
13305TIP3    H261407   0.980   1.989  13.263 -0.7049 -0.6488 -0.2180
13306TIP3   OH261408   1.605   2.643   6.505 -0.0694 -0.2606  0.1702
13306TIP3    H161409   1.618   2.646   6.600  0.2928  2.6113  0.1449
13306TIP3    H261410   1.517   2.678   6.492  0.5344  1.1001 -0.5558
13307TIP3   OH261411   6.526   1.171   3.505  0.1481 -0.1103 -0.2086
13307TIP3    H161412   6.566   1.112   3.569 -1.7310 -1.1093  0.1368
13307TIP3    H261413   6.526   1.121   3.423  0.7265  0.3777 -0.5142
13308TIP3   OH261414   4.123   4.748   1.988 -0.0467  0.3859 -0.6581
13308TIP3    H161415   4.060   4.819   2.006  1.1418  0.9987  1.4181
13308TIP3    H261416   4.158   4.769   1.902 -1.7809  0.6933 -1.3387
13309TIP3   OH261417   4.750   0.396  11.766  0.1193  0.2015  0.0402
13309TIP3    H161418   4.832   0.441  11.746  0.8358 -0.8955  0.4190
13309TIP3    H261419   4.702   0.396  11.683  0.4652  0.9277 -0.1657
13310TIP3   OH261420   4.641   3.877   6.563  0.1121  0.3224 -0.1674
13310TIP3    H161421   4.641   3.855   6.470 -1.1994 -1.2356  0.1587
13310TIP3    H261422   4.699   3.811   6.602  0.6564  0.9690  0.1316
13311TIP3   OH261423   4.552   4.137   3.071  0.5007  0.2760 -0.0029
13311TIP3    H161424   4.473   4.139   3.017  0.5687  0.5653 -0.0888
13311TIP3    H261425   4.523   4.172   3.156  0.4810  0.1577  0.0404
13312TIP3   OH261426   3.805   4.608   5.351 -0.1439  0.3104  0.2382
13312TIP3    H161427   3.895   4.598   5.384  0.3705 -0.0531 -1.2165
13312TIP3    H261428   3.814   4.662   5.273 -1.0013 -0.8963 -0.7288
13313TIP3   OH261429   5.596   3.588  11.197  0.5553  0.2210 -0.2850
13313TIP3    H161430   5.592   3.671  11.244  0.3539  0.5449 -0.8751
13313TIP3    H261431   5.658   3.603  11.126 -0.1477  0.1398 -0.9302
13314TIP3   OH261432   3.589   1.693  15.382  0.2403  0.0821 -0.3389
13314TIP3    H161433   3.520   1.633  15.411 -1.3420  1.7763 -0.3695
13314TIP3    H261434   3.661   1.677  15.443  0.1711 -2.3225 -0.8091
13315TIP3   OH261435   1.143   6.506   4.849 -0.1584  0.0122 -0.1536
13315TIP3    H161436   1.052   6.538   4.852 -0.3587 -0.5955  0.3441
13315TIP3    H261437   1.193   6.574   4.894 -0.4093  0.2041 -0.1574
13316TIP3   OH261438   0.858   5.856  17.175  0.3520  0.1216 -0.3298
13316TIP3    H161439   0.853   5.803  17.095  1.2469  0.0660 -0.3547
13316TIP3    H261440   0.866   5.946  17.143 -1.1236  0.2908 -0.2862
13317TIP3   OH261441   5.220   4.887   4.796 -0.5803 -0.3203 -0.1628
13317TIP3    H161442   5.295   4.943   4.776 -0.7376  0.7997  2.1122
13317TIP3    H261443   5.175   4.878   4.712  0.9602  0.6761 -1.1610
13318TIP3   OH261444   4.025   0.458   2.692 -0.0704  0.3513  0.5593
13318TIP3    H161445   4.007   0.546   2.657  2.5964  0.8764  0.3478
13318TIP3    H261446   4.015   0.401   2.616 -2.5123  0.2939  0.8414
13319TIP3   OH261447   3.490   4.352   4.351  0.4181 -0.9109 -0.3957
13319TIP3    H161448   3.538   4.432   4.328 -1.8246  1.4284  2.2933
13319TIP3    H261449   3.420   4.346   4.286  1.4266 -1.5824 -1.4583
13320TIP3   OH261450   2.752   0.796  16.722 -0.4423 -0.5665 -0.1321
13320TIP3    H161451   2.706   0.863  16.672 -2.0717 -1.3713  0.2189
13320TIP3    H261452   2.693   0.720  16.722  0.9045 -1.6677  0.3259
13321TIP3   OH261453   1.983   5.929  16.871 -0.0065 -0.3740 -0.1735
13321TIP3    H161454   1.935   6.004  16.905 -2.5454 -1.4478 -1.1931
13321TIP3    H261455   2.072   5.963  16.855 -1.0336  2.3881 -0.5987
13322TIP3   OH261456   5.945   6.800   2.285  0.1806  0.2819 -0.7259
13322TIP3    H161457   5.944   6.793   2.381 -0.1658 -0.2374 -0.7627
13322TIP3    H261458   5.954   6.710   2.254 -0.6323  0.3475 -1.1886
13323TIP3   OH261459   1.848   2.595   0.674  0.0937 -0.2160  0.1511
13323TIP3    H161460   1.856   2.502   0.652  2.1835 -0.8352  2.9393
13323TIP3    H261461   1.769   2.600   0.728 -0.0502 -0.3424 -0.0457
13324TIP3   OH261462   0.181   2.288  13.297 -0.1967 -0.0658 -0.1496
13324TIP3    H161463   0.091   2.320  13.296  0.3978  1.8401  0.8594
13324TIP3    H261464   0.230   2.358  13.341  1.2692 -2.3685  2.1162
13325TIP3   OH261465   1.027   4.864  13.663  0.3025  0.6833 -0.1198
13325TIP3    H161466   1.059   4.773  13.667  0.5598  0.8089  1.0323
13325TIP3    H261467   1.105   4.915  13.641  1.3090  1.1205  3.7893
13326TIP3   OH261468   3.748   0.192   0.605 -0.3380  0.1512  0.4094
13326TIP3    H161469   3.809   0.167   0.674 -0.5517  0.1150  0.5838
13326TIP3    H261470   3.803   0.237   0.540 -0.0852 -0.0946  0.4524
13327TIP3   OH261471   4.236   0.408  14.993 -0.6993  0.2002 -0.1684
13327TIP3    H161472   4.254   0.315  14.986  1.5644  0.6368 -1.1564
13327TIP3    H261473   4.307   0.443  15.048 -1.7319  1.2995  0.5329
13328TIP3   OH261474   4.363   5.828   2.681 -0.0753 -0.2312 -0.5537
13328TIP3    H161475   4.294   5.767   2.657  0.9198 -1.9709  0.7264
13328TIP3    H261476   4.333   5.867   2.763 -0.0444 -0.1544 -0.5793
13329TIP3   OH261477   5.768   3.770  14.465 -0.5021 -0.4258  0.0540
13329TIP3    H161478   5.850   3.801  14.502 -0.5911  1.3890 -1.1409
13329TIP3    H261479   5.780   3.777  14.370 -2.1218  0.2135 -0.1477
13330TIP3   OH261480   1.178   5.520  14.773  0.0440  0.3968  0.4993
13330TIP3    H161481   1.122   5.453  14.814  2.1052 -2.6962 -1.2707
13330TIP3    H261482   1.267   5.493  14.795  1.0478  1.1498 -2.2522
13331TIP3   OH261483   3.950   6.173   4.801 -0.4653  0.5712  0.4496
13331TIP3    H161484   3.880   6.124   4.758  0.9102 -0.8469 -0.2894
13331TIP3    H261485   4.016   6.184   4.733  1.1039 -0.3526  1.7367
13332TIP3   OH261486   1.807   3.755   0.053 -0.4859 -0.1312 -0.0974
13332TIP3    H161487   1.813   3.662   0.075  1.2781 -0.1557 -0.5358
13332TIP3    H261488   1.735   3.788   0.107 -1.0210 -1.6938  0.2059
13333TIP3   OH261489   6.539   1.047  12.997 -0.4374 -0.1499  0.1145
13333TIP3    H161490   6.633   1.065  12.997 -0.2770 -0.9170 -0.5581
13333TIP3    H261491   6.510   1.070  13.085  0.6561 -1.2320  0.7847
13334TIP3   OH261492   1.027   6.143  11.560  0.3708  0.4464 -0.2900
13334TIP3    H161493   1.116   6.177  11.570  0.3821  0.2732  0.2384
13334TIP3    H261494   0.986   6.202  11.497  0.4737  1.2862  0.4084
13335TIP3   OH261495   4.423   4.876   5.653 -0.0437 -0.2732 -0.2535
13335TIP3    H161496   4.422   4.935   5.578  3.3690 -0.5753 -0.6820
13335TIP3    H261497   4.472   4.924   5.720 -0.5570 -1.1300  0.7513
13336TIP3   OH261498   5.925   4.352  14.758  0.1816  0.4687 -0.0460
13336TIP3    H161499   5.921   4.296  14.836  1.3103  0.1165 -0.2293
13336TIP3    H261500   5.983   4.424  14.782  1.1154 -0.0170 -0.7799
13337TIP3   OH261501   4.978   5.552   3.457  0.1626 -0.1794  0.3957
13337TIP3    H161502   4.995   5.637   3.417  0.1312 -0.4624 -0.2270
13337TIP3    H261503   4.965   5.572   3.550 -1.1646  0.6740  0.0609
13338TIP3   OH261504   3.473   2.979   3.036  0.3159 -0.1307  0.0671
13338TIP3    H161505   3.466   2.992   3.131 -0.3048 -0.1082  0.0179
13338TIP3    H261506   3.383   2.975   3.005  0.5126  0.2127 -0.5723
13339TIP3   OH261507   1.178   0.499  14.743 -0.1578 -0.1608 -0.3849
13339TIP3    H161508   1.104   0.559  14.751 -0.5757 -0.5307 -1.3149
13339TIP3    H261509   1.157   0.425  14.799  0.0952  0.2862  0.3193
13340TIP3   OH261510   1.701   5.097  13.708  0.1476  0.5560  0.0554
13340TIP3    H161511   1.728   5.111  13.617  1.0972  2.9352  0.6230
13340TIP3    H261512   1.750   5.020  13.736  1.9025  1.3496 -0.6958
13341TIP3   OH261513   6.553   6.270  14.233  0.2340  0.2773 -0.4957
13341TIP3    H161514   6.498   6.318  14.170 -1.1290  1.1999  1.3181
13341TIP3    H261515   6.537   6.178  14.213  0.1939  0.5312 -1.7654
13342TIP3   OH261516   3.350   3.792   0.500 -0.1500 -0.2262  0.1779
13342TIP3    H161517   3.325   3.781   0.591 -0.7453 -2.3262 -0.1886
13342TIP3    H261518   3.345   3.887   0.485  0.4989  0.2325  2.4367
13343TIP3   OH261519   2.492   5.160  11.894  0.1241 -0.7291  0.3285
13343TIP3    H161520   2.468   5.222  11.825  2.0587  0.0065  0.2541
13343TIP3    H261521   2.586   5.175  11.908  0.2721 -2.4703  1.5092
13344TIP3   OH261522   5.339   1.900   1.523 -0.1927 -0.8476  0.4660
13344TIP3    H161523   5.273   1.834   1.543 -0.5184 -0.2490  1.4214
13344TIP3    H261524   5.290   1.975   1.492  0.1548 -0.9173 -0.2811
13345TIP3   OH261525   2.787   6.077  15.890 -0.1653 -0.1295  0.0357
13345TIP3    H161526   2.851   6.071  15.960 -0.3353  0.1791  0.2204
13345TIP3    H261527   2.753   5.988  15.880  0.0222 -0.2178  0.1910
13346TIP3   OH261528   3.703   6.736  11.882 -0.9493  0.1338 -0.2230
13346TIP3    H161529   3.641   6.747  11.954  0.2419  0.2882  0.8308
13346TIP3    H261530   3.780   6.696  11.923 -0.9082 -1.5227 -1.7782
13347TIP3   OH261531   1.650   6.806   0.746  0.4451 -0.0232 -0.3050
13347TIP3    H161532   1.578   6.781   0.688  1.4534 -0.0894 -1.5764
13347TIP3    H261533   1.609   6.859   0.814 -0.8806 -0.5273 -0.6786
13348TIP3   OH261534   1.180   3.378  13.992  0.1169 -0.2796  0.1241
13348TIP3    H161535   1.203   3.336  13.908  0.1772 -0.2092  0.1053
13348TIP3    H261536   1.190   3.308  14.056 -0.0016 -0.3538  0.0627
13349TIP3   OH261537   2.220   5.963  12.893  0.6763  0.2004 -0.3152
13349TIP3    H161538   2.151   6.006  12.943  0.5347  1.8615 -1.8049
13349TIP3    H261539   2.258   5.899  12.953  1.0418  2.5796  2.1755
13350TIP3   OH261540   4.197   5.503   4.896 -0.0012  0.4752  0.0536
13350TIP3    H161541   4.232   5.592   4.897 -0.3267  0.6310 -1.0454
13350TIP3    H261542   4.228   5.464   4.978  1.6176  1.0288 -0.2594
13351TIP3   OH261543   4.786   4.250   6.009 -0.1056 -0.0768 -0.1161
13351TIP3    H161544   4.809   4.243   6.102 -1.2510  0.2111  0.2122
13351TIP3    H261545   4.695   4.281   6.010 -0.4199 -0.9089 -1.3304
13352TIP3   OH261546   0.149   0.233   2.081 -0.6949  0.2517  0.4230
13352TIP3    H161547   0.059   0.264   2.065 -0.5653 -0.3339 -1.6153
13352TIP3    H261548   0.158   0.155   2.027  1.1260  0.4170  0.4432
13353TIP3   OH261549   3.095   3.760  11.345  0.0948 -0.0291 -0.1971
13353TIP3    H161550   3.012   3.785  11.387  0.1795  0.0180 -0.0588
13353TIP3    H261551   3.072   3.683  11.293  0.1327 -0.5262  0.4929
13354TIP3   OH261552   0.333   5.497  15.655  0.1251  0.1680  0.6416
13354TIP3    H161553   0.400   5.565  15.652  1.6275 -1.2679 -0.9033
13354TIP3    H261554   0.264   5.528  15.596  1.0892  0.1095 -0.5478
13355TIP3   OH261555   6.213   4.106  14.114 -0.0565  0.5304 -0.0105
13355TIP3    H161556   6.269   4.179  14.139 -1.3057  1.0238  1.4036
13355TIP3    H261557   6.215   4.047  14.189  1.0409 -1.0304 -1.1678
13356TIP3   OH261558   4.330   0.026  14.535 -0.5752 -0.4013 -0.0069
13356TIP3    H161559   4.298  -0.055  14.576 -0.9055 -0.1406  0.2590
13356TIP3    H261560   4.257   0.056  14.481 -0.1421 -0.7397 -0.7972
13357TIP3   OH261561   1.829   5.574  15.247 -0.5114  0.4513 -0.1617
13357TIP3    H161562   1.810   5.518  15.171  0.1419  2.1737 -1.6696
13357TIP3    H261563   1.782   5.656  15.228 -1.2465  0.5464  1.8714
13358TIP3   OH261564   0.629   4.321   0.099 -0.2669  0.7470 -0.4708
13358TIP3    H161565   0.676   4.396   0.062 -0.4674  1.5190  0.7749
13358TIP3    H261566   0.545   4.319   0.052 -0.4366  1.5817 -0.2131
13359TIP3   OH261567   5.743   4.832   2.668  0.3578  0.4988  0.4624
13359TIP3    H161568   5.834   4.863   2.669  1.5366 -2.4036 -1.8766
13359TIP3    H261569   5.703   4.876   2.593  0.1625  0.8452  0.7625
13360TIP3   OH261570   5.544   4.845  11.421  0.1075  0.1516 -0.7200
13360TIP3    H161571   5.606   4.774  11.404 -1.1379 -1.0177 -0.5542
13360TIP3    H261572   5.533   4.845  11.516  0.2003  0.6644 -0.7071
13361TIP3   OH261573   3.764   5.019  11.422  0.4731  0.2073  0.2311
13361TIP3    H161574   3.705   5.084  11.460  1.7430  1.2047  0.5589
13361TIP3    H261575   3.761   5.036  11.328 -0.6181 -0.5052  0.1203
13362TIP3   OH261576   3.444   5.517   4.941  0.0656  0.5015  0.6386
13362TIP3    H161577   3.383   5.451   4.974 -0.6185  1.0198  0.4417
13362TIP3    H261578   3.529   5.492   4.977 -0.0067 -0.9969 -0.1640
13363TIP3   OH261579   4.955   4.250   2.242 -0.2492  0.0241 -0.9550
13363TIP3    H161580   4.965   4.287   2.330 -0.9744  0.3600 -1.0108
13363TIP3    H261581   5.005   4.168   2.244  0.2360  0.3293 -0.4162
13364TIP3   OH261582   0.884   0.967  12.648  0.1443  0.2183  0.7630
13364TIP3    H161583   0.871   0.876  12.621  1.3065  0.2484  0.0870
13364TIP3    H261584   0.942   1.005  12.583  1.9709  0.6607  2.5504
13365TIP3   OH261585   2.025   0.272  11.046  0.1843  0.0688  0.1889
13365TIP3    H161586   2.097   0.315  11.092 -0.2019  0.0890  0.7893
13365TIP3    H261587   1.985   0.215  11.112 -0.4805  0.2171 -0.0702
13366TIP3   OH261588   1.485   4.413   1.723  0.5815  0.5774  0.8423
13366TIP3    H161589   1.480   4.351   1.650 -2.0370  2.0634 -0.3838
13366TIP3    H261590   1.578   4.414   1.746  1.3549 -0.8037 -1.7436
13367TIP3   OH261591   2.021   3.725   1.768  0.1140  0.9022  0.8829
13367TIP3    H161592   2.013   3.629   1.768 -2.1996  1.0387 -0.6304
13367TIP3    H261593   2.007   3.750   1.860  0.5686 -0.1564  1.2647
13368TIP3   OH261594   6.583   4.089  10.260 -0.3806 -0.3166  0.1663
13368TIP3    H161595   6.548   4.176  10.241  0.0551 -0.1743  0.0045
13368TIP3    H261596   6.657   4.106  10.318 -0.4782 -0.6030  0.3757
13369TIP3   OH261597   1.461   2.141   2.121  0.1519 -0.1959 -0.8310
13369TIP3    H161598   1.525   2.209   2.102  0.0577 -0.3073 -1.6013
13369TIP3    H261599   1.480   2.072   2.057  0.4929 -1.0687  0.1902
13370TIP3   OH261600   1.872   2.870  11.287 -0.1285 -0.0042 -0.1177
13370TIP3    H161601   1.902   2.898  11.374  0.8866  0.1993 -0.5179
13370TIP3    H261602   1.860   2.952  11.238 -1.5539 -0.0643  0.0718
13371TIP3   OH261603   4.727   6.184  14.521 -0.2033  0.2163 -0.3548
13371TIP3    H161604   4.794   6.131  14.565 -0.9523 -1.2949 -0.9528
13371TIP3    H261605   4.776   6.253  14.477  0.8796 -0.3276 -0.0455
13372TIP3   OH261606   3.249   5.079  15.552 -0.1025 -0.6815 -0.1413
13372TIP3    H161607   3.200   5.144  15.602 -1.6843 -1.1163 -1.0610
13372TIP3    H261608   3.253   5.116  15.463 -2.2514 -2.3693 -1.0341
13373TIP3   OH261609   3.012   6.363   1.550 -0.2972 -0.1024  0.1728
13373TIP3    H161610   2.968   6.302   1.608  0.3465 -0.2001  0.5698
13373TIP3    H261611   3.089   6.391   1.599 -0.9490  1.5753  0.2808
13374TIP3   OH261612   0.233   2.054   6.171  0.4771  0.3657 -0.7729
13374TIP3    H161613   0.227   2.138   6.217  0.9261 -0.1098  0.1850
13374TIP3    H261614   0.218   1.988   6.239  0.0128 -0.3392 -1.5329
13375TIP3   OH261615   2.322   2.896  14.018  0.2096  0.4806  0.4107
13375TIP3    H161616   2.299   2.905  13.926  0.0886  1.1280  0.4970
13375TIP3    H261617   2.415   2.921  14.022  0.0030  1.2636  0.5783
13376TIP3   OH261618   0.193   2.105   1.220  0.4685 -0.7788 -0.2013
13376TIP3    H161619   0.162   2.017   1.241  0.9340 -0.9404 -0.1814
13376TIP3    H261620   0.140   2.131   1.144 -0.6460 -0.5159  0.6505
13377TIP3   OH261621   2.488   3.353   5.296 -0.3177 -0.5115 -0.1937
13377TIP3    H161622   2.440   3.425   5.256 -0.2055 -0.9996 -1.2536
13377TIP3    H261623   2.578   3.385   5.302 -0.7427  0.4236  1.8435
13378TIP3   OH261624   2.209   1.272   3.095  0.1618 -0.3207  0.1028
13378TIP3    H161625   2.269   1.200   3.114 -0.4212 -0.6387  0.8074
13378TIP3    H261626   2.263   1.340   3.055  0.6284 -1.3631 -1.0855
13379TIP3   OH261627   3.083   6.603  15.651 -0.0950  0.0448  0.1428
13379TIP3    H161628   3.099   6.551  15.573 -0.7881  1.1345 -0.7508
13379TIP3    H261629   3.061   6.538  15.719  0.0083 -0.8797 -0.6873
13380TIP3   OH261630   6.002   5.594   4.719 -0.2518  0.5260 -0.2320
13380TIP3    H161631   6.015   5.598   4.814 -3.8550 -1.5410  0.5574
13380TIP3    H261632   6.084   5.558   4.685  0.6390 -0.0799  2.3146
13381TIP3   OH261633   1.895   5.332  11.642  0.2567  0.3790  0.4780
13381TIP3    H161634   1.943   5.271  11.697 -1.1342 -0.6521  0.5860
13381TIP3    H261635   1.901   5.416  11.688  2.9350  0.6074 -0.1086
13382TIP3   OH261636   1.497   2.330  10.878 -0.4414 -0.6175 -0.2034
13382TIP3    H161637   1.530   2.347  10.790 -0.4473 -1.4020 -0.3684
13382TIP3    H261638   1.404   2.352  10.874 -0.6843 -1.6779 -0.7062
13383TIP3   OH261639   6.057   5.921   5.297  0.1204 -0.3990 -0.8324
13383TIP3    H161640   6.083   5.973   5.220 -0.2081  0.2677 -0.5009
13383TIP3    H261641   6.133   5.924   5.354 -0.4418  1.0950 -0.1028
13384TIP3   OH261642   2.515   5.659  13.086  0.2057 -0.5089  0.7488
13384TIP3    H161643   2.432   5.701  13.062  0.7189 -0.2437 -0.6595
13384TIP3    H261644   2.565   5.727  13.130  0.3319 -0.1684  0.0856
13385TIP3   OH261645   4.849   0.701  15.926 -1.0391  0.1779  0.1949
13385TIP3    H161646   4.805   0.664  15.849 -1.4687 -0.5436  0.7761
13385TIP3    H261647   4.942   0.679  15.912 -1.3439 -1.7048  0.8037
13386TIP3   OH261648   2.673   2.583   5.143  0.4874 -0.6810 -0.5637
13386TIP3    H161649   2.604   2.582   5.210  1.7835 -0.7776  0.8178
13386TIP3    H261650   2.715   2.668   5.154 -1.1222  0.5945 -3.2873
13387TIP3   OH261651   4.432   1.248   3.229  0.7714  0.2292  0.3506
13387TIP3    H161652   4.386   1.219   3.150  0.6982 -0.5721  0.6760
13387TIP3    H261653   4.376   1.220   3.301  0.7406  1.1345  0.6931
13388TIP3   OH261654   1.736   5.425   0.040 -0.0479 -0.5769  0.1133
13388TIP3    H161655   1.650   5.387   0.060 -0.1450  0.1464  1.1752
13388TIP3    H261656   1.798   5.355   0.062 -0.1976 -0.0431  2.5459
13389TIP3   OH261657   0.530   4.370  14.626 -0.6313 -0.0204 -0.3097
13389TIP3    H161658   0.537   4.363  14.721 -1.4003  1.6126 -0.0965
13389TIP3    H261659   0.609   4.329  14.592  0.4352  0.7908  1.1161
13390TIP3   OH261660   3.634   6.628   0.356  0.4926 -0.2116  0.1188
13390TIP3    H161661   3.572   6.615   0.285  1.6643  0.6644 -1.1126
13390TIP3    H261662   3.586   6.680   0.421 -0.4235 -0.5565 -0.2723
13391TIP3   OH261663   1.468   2.139   1.393 -0.1615 -0.4751  0.0527
13391TIP3    H161664   1.410   2.192   1.339 -0.7236 -0.1126  0.9996
13391TIP3    H261665   1.410   2.094   1.454  0.3897 -1.4948 -0.1431
13392TIP3   OH261666   4.749   0.595  15.671 -0.0666 -0.0010  0.1570
13392TIP3    H161667   4.667   0.638  15.647 -0.5174  0.1981  1.9272
13392TIP3    H261668   4.733   0.502  15.652 -0.6159  0.0697  0.2461
13393TIP3   OH261669   6.657   6.114   3.442 -0.5295  0.2884 -0.4538
13393TIP3    H161670   6.659   6.107   3.538 -0.0500 -0.0217 -0.4829
13393TIP3    H261671   6.571   6.150   3.422 -0.2535  1.3482  0.1700
13394TIP3   OH261672   0.145   4.032   1.195 -0.7036  0.5992 -0.3280
13394TIP3    H161673   0.051   4.020   1.182 -0.9894  0.5792  1.4392
13394TIP3    H261674   0.172   3.955   1.246  0.2486  0.6625 -0.7173
13395TIP3   OH261675   0.865   0.332   0.319  0.2822  0.0953  0.4274
13395TIP3    H161676   0.790   0.346   0.377  0.9405 -0.2065  1.3875
13395TIP3    H261677   0.836   0.362   0.233 -0.6912  0.6495  0.9377
13396TIP3   OH261678   2.957   2.389   5.014  0.7705  0.2374  0.7479
13396TIP3    H161679   2.909   2.470   5.034  2.1743  1.0995  0.7257
13396TIP3    H261680   2.900   2.344   4.951 -0.8419  0.3541  2.0356
13397TIP3   OH261681   5.514   3.051  13.590 -1.0614  0.2914  0.0788
13397TIP3    H161682   5.599   3.008  13.593 -1.5463 -0.9906 -1.8949
13397TIP3    H261683   5.531   3.141  13.619  0.7484 -0.1960  0.6696
13398TIP3   OH261684   4.990   0.018   2.667 -0.0008  0.0921 -0.0882
13398TIP3    H161685   5.058   0.047   2.727 -0.5736  1.8358 -0.2082
13398TIP3    H261686   4.997  -0.077   2.666  1.0881  0.1244  1.4533
13399TIP3   OH261687   1.994   4.391   5.132 -0.4333  0.5212  0.1584
13399TIP3    H161688   1.980   4.303   5.167  0.8612 -0.0005 -0.5537
13399TIP3    H261689   1.972   4.384   5.039 -0.4093  0.9656  0.1161
13400TIP3   OH261690   2.061   2.929   6.609 -0.4024  0.4907  0.4028
13400TIP3    H161691   2.128   2.998   6.604  0.6143 -0.5580 -1.6294
13400TIP3    H261692   2.097   2.866   6.671 -0.3558  0.7784  0.6732
13401TIP3   OH261693   2.908   0.791   5.998  0.0541  0.2726  0.9281
13401TIP3    H161694   2.902   0.839   5.915  0.9293  0.1183  0.7682
13401TIP3    H261695   2.831   0.819   6.048 -0.9811 -0.3004 -0.2871
13402TIP3   OH261696   1.030   6.189   5.153  0.3107  0.4108 -0.2629
13402TIP3    H161697   1.094   6.150   5.094  1.2624  2.0308 -0.3817
13402TIP3    H261698   1.012   6.121   5.218  1.7112 -0.2991 -0.5805
13403TIP3   OH261699   3.378   0.521   0.617 -0.4371  0.4770 -0.0717
13403TIP3    H161700   3.342   0.433   0.625  0.1454 -0.0198 -2.1628
13403TIP3    H261701   3.430   0.533   0.697 -0.0495 -1.3224  0.0004
13404TIP3   OH261702   5.716   0.135  13.740 -0.2195 -0.2615 -0.3655
13404TIP3    H161703   5.630   0.101  13.764 -0.7191  0.1588 -1.4926
13404TIP3    H261704   5.775   0.060  13.751 -0.9115 -0.8539 -0.6018
13405TIP3   OH261705   6.505   5.187  15.247  0.0473 -0.2295 -0.6023
13405TIP3    H161706   6.516   5.184  15.152  0.6590  1.0956 -0.6088
13405TIP3    H261707   6.446   5.114  15.267 -0.6528 -0.1208 -2.0761
13406TIP3   OH261708   6.375   4.762  13.989 -0.2529  0.6788  0.1604
13406TIP3    H161709   6.324   4.724  14.061  0.1177  0.0885  0.1246
13406TIP3    H261710   6.312   4.771  13.918 -0.3208 -0.0607  0.1105
13407TIP3   OH261711   1.178   4.042   3.947 -0.4012  0.6616  0.4012
13407TIP3    H161712   1.110   4.094   3.904 -0.4530 -0.7530 -1.3701
13407TIP3    H261713   1.191   3.967   3.889  3.4004  1.3353  0.1540
13408TIP3   OH261714   4.981   5.449  13.645 -0.1096  0.0771 -0.1618
13408TIP3    H161715   4.913   5.382  13.636  0.5801 -0.7694  0.7636
13408TIP3    H261716   4.955   5.498  13.723  0.3424 -0.2667  0.2095
13409TIP3   OH261717   5.430   2.127   3.439 -0.0271  0.8198  0.0176
13409TIP3    H161718   5.349   2.077   3.446 -0.0952  0.8076 -0.8463
13409TIP3    H261719   5.470   2.118   3.526  0.1894 -1.1231 -0.2374
13410TIP3   OH261720   3.995   4.966   2.076  0.9697  0.4236 -0.1284
13410TIP3    H161721   4.081   5.007   2.068  1.4652 -0.6578 -0.6625
13410TIP3    H261722   3.932   5.037   2.064  1.7726  0.7965 -2.7369
13411TIP3   OH261723   5.723   2.333  16.185 -0.3604 -0.2492  0.1501
13411TIP3    H161724   5.630   2.333  16.163 -0.0396 -0.4805 -1.2735
13411TIP3    H261725   5.766   2.295  16.109  0.7002 -2.4801  1.7215
13412TIP3   OH261726   0.624   1.575  13.546  0.3285 -0.0433  0.3141
13412TIP3    H161727   0.672   1.503  13.585 -1.3237 -0.3359  1.9017
13412TIP3    H261728   0.606   1.546  13.456  0.4997 -1.1981  0.6427
13413TIP3   OH261729   1.897   1.380   5.902  0.4801  0.3416 -0.2334
13413TIP3    H161730   1.885   1.327   5.981 -0.0108  2.5063  1.2324
13413TIP3    H261731   1.971   1.340   5.857 -0.0105 -1.6932  0.6756
13414TIP3   OH261732   1.166   6.704   1.829 -0.0327  0.1536 -0.0324
13414TIP3    H161733   1.201   6.724   1.916  0.6370 -1.4716  0.0959
13414TIP3    H261734   1.101   6.772   1.813 -0.6355  0.0992  2.0198
13415TIP3   OH261735   1.577   6.716   5.148  0.1316 -0.1040 -0.0688
13415TIP3    H161736   1.639   6.747   5.214  0.0279 -1.8219  0.9079
13415TIP3    H261737   1.494   6.710   5.195 -0.4443  0.7193 -0.9604
13416TIP3   OH261738   5.096   4.380  11.393 -0.1613 -0.6062 -0.5072
13416TIP3    H161739   5.155   4.450  11.365  2.1884 -0.5823  3.6315
13416TIP3    H261740   5.009   4.421  11.395  1.0466  2.1759  1.2954
13417TIP3   OH261741   3.841   0.993  12.600 -0.2080 -0.1639 -0.3186
13417TIP3    H161742   3.902   0.959  12.665 -0.9912  0.0200  0.5410
13417TIP3    H261743   3.867   0.951  12.518  0.2577 -1.0836  0.2834
13418TIP3   OH261744   1.652   0.886  15.939 -0.5833  0.0203  0.0797
13418TIP3    H161745   1.744   0.900  15.963 -0.9744  0.5447  1.3617
13418TIP3    H261746   1.604   0.899  16.021 -1.8253 -0.0512 -0.6196
13419TIP3   OH261747   0.492   3.578  16.251 -0.0152  0.1942 -0.0631
13419TIP3    H161748   0.414   3.631  16.268  0.7192  1.4345 -0.3906
13419TIP3    H261749   0.539   3.576  16.334 -0.6294 -1.0056  0.2804
13420TIP3   OH261750   4.014   3.956  11.578 -0.2712  0.4019 -1.0052
13420TIP3    H161751   3.961   3.973  11.656 -1.2616  1.8096 -1.9274
13420TIP3    H261752   4.007   3.861  11.564 -0.3889  0.1936  0.3836
13421TIP3   OH261753   1.437   3.740  14.253  0.2329 -0.2371  0.3325
13421TIP3    H161754   1.511   3.765  14.308  0.3386  1.4051 -0.4722
13421TIP3    H261755   1.374   3.700  14.313  0.8160  0.4638  1.4485
13422TIP3   OH261756   1.166   6.702   5.946  0.0968 -0.0751  0.0222
13422TIP3    H161757   1.229   6.774   5.942 -2.0065  1.8562 -0.7263
13422TIP3    H261758   1.082   6.744   5.962 -1.4368 -2.2285 -1.6768
13423TIP3   OH261759   3.017   0.312   5.337  0.1846  0.6731 -0.3046
13423TIP3    H161760   3.096   0.306   5.390  0.4862  0.3054 -0.7896
13423TIP3    H261761   2.970   0.388   5.373  0.0160 -0.0022  0.9614
13424TIP3   OH261762   1.756   3.315  15.014 -0.0329  0.9624 -0.5757
13424TIP3    H161763   1.733   3.358  15.096 -0.7372 -0.7364  0.1681
13424TIP3    H261764   1.852   3.319  15.010 -0.0436  1.8097 -0.1222
13425TIP3   OH261765   5.518   0.270  13.029  0.2959 -0.5225 -0.4413
13425TIP3    H161766   5.565   0.324  12.966 -0.3245 -0.4540 -0.8446
13425TIP3    H261767   5.539   0.180  13.004  2.2306 -0.5162  0.8938
13426TIP3   OH261768   1.667   2.052   4.501 -0.0276  0.0650 -0.1395
13426TIP3    H161769   1.638   1.962   4.517  1.0698 -0.1793  0.5580
13426TIP3    H261770   1.698   2.051   4.410 -0.2303 -0.2011 -0.2083
13427TIP3   OH261771   6.235   1.145   5.319  0.2400  0.2453  0.0003
13427TIP3    H161772   6.215   1.088   5.394  1.2780 -1.1181 -0.7158
13427TIP3    H261773   6.150   1.163   5.280 -0.1332 -0.7053  0.3395
13428TIP3   OH261774   5.788   0.999   3.723 -0.0564 -0.3866 -0.5819
13428TIP3    H161775   5.760   1.040   3.805  0.0435 -2.4443  0.5474
13428TIP3    H261776   5.865   1.049   3.696 -0.7132  0.9782 -0.0041
13429TIP3   OH261777   3.354   2.326  13.879  0.6292 -0.3935 -0.1425
13429TIP3    H161778   3.428   2.269  13.857  0.7567 -0.1108 -0.4417
13429TIP3    H261779   3.315   2.285  13.957  0.5286 -1.0706 -0.5379
13430TIP3   OH261780   2.753   3.650   0.592 -0.9170  0.2560 -0.6074
13430TIP3    H161781   2.836   3.689   0.565 -1.5378  1.9304 -0.2256
13430TIP3    H261782   2.687   3.700   0.543 -1.6634 -2.4076 -2.5325
13431TIP3   OH261783   3.997   4.446  16.619 -0.1587  0.2956  0.2701
13431TIP3    H161784   3.907   4.431  16.590 -0.8805  1.5956  1.6647
13431TIP3    H261785   4.021   4.368  16.668 -0.5517 -0.0218 -0.0442
13432TIP3   OH261786   5.792   1.411  11.407  0.3564  0.1467 -0.0263
13432TIP3    H161787   5.797   1.374  11.496  0.1098 -1.5216 -0.6633
13432TIP3    H261788   5.762   1.338  11.353  0.0829  1.2558 -1.4228
13433TIP3   OH261789   4.013   2.619  16.653  1.0496  0.3484  0.3258
13433TIP3    H161790   4.013   2.628  16.557 -1.3024  1.2251  0.3587
13433TIP3    H261791   4.029   2.708  16.685 -0.1559  0.4363  0.7218
13434TIP3   OH261792   1.678   0.600   4.018  0.3349 -0.2378 -0.5694
13434TIP3    H161793   1.747   0.660   3.988  0.7970 -0.4869 -0.0355
13434TIP3    H261794   1.692   0.520   3.968  0.6838 -0.4212 -0.1877
13435TIP3   OH261795   6.314   0.784  13.808 -0.0796  0.2651  0.1073
13435TIP3    H161796   6.248   0.851  13.825 -0.6288 -0.7642  2.3841
13435TIP3    H261797   6.311   0.771  13.713 -2.3262  1.0996  0.0079
13436TIP3   OH261798   4.793   1.746   0.396 -0.2753 -0.1963 -0.1846
13436TIP3    H161799   4.839   1.667   0.426  0.2348 -0.5567 -1.8563
13436TIP3    H261800   4.702   1.718   0.385 -0.7724  0.2673  2.1643
13437TIP3   OH261801   0.533   3.847   5.513  0.7616 -0.3102  0.7057
13437TIP3    H161802   0.566   3.804   5.433  1.7113 -2.9846  2.3809
13437TIP3    H261803   0.442   3.869   5.492  1.3386  0.2318 -1.5091
13438TIP3   OH261804   4.699   5.624   0.633  0.0422  0.7386  0.2025
13438TIP3    H161805   4.691   5.598   0.724  0.6899 -1.4221 -0.3110
13438TIP3    H261806   4.719   5.718   0.636 -1.7710  1.1273  2.1720
13439TIP3   OH261807   0.366   0.652  15.911  0.3837  0.2203 -0.2301
13439TIP3    H161808   0.457   0.634  15.886  0.6713  2.1928 -0.7707
13439TIP3    H261809   0.368   0.743  15.943 -1.4987  0.4788 -0.7661
13440TIP3   OH261810   2.958   5.189  15.453 -0.2722 -0.8068  0.2038
13440TIP3    H161811   2.872   5.166  15.488 -0.7776 -0.8105 -0.9934
13440TIP3    H261812   2.992   5.255  15.514 -1.0723 -0.8715  0.7367
13441TIP3   OH261813   5.444   5.822   4.486  0.2943 -0.4160 -0.1325
13441TIP3    H161814   5.500   5.759   4.531  0.3061 -0.2182  0.1290
13441TIP3    H261815   5.384   5.853   4.553  1.1573  0.8768  0.0710
13442TIP3   OH261816   1.444   5.410  14.277 -0.5444  0.1956 -0.2286
13442TIP3    H161817   1.495   5.447  14.206 -1.8023  0.0073 -1.2743
13442TIP3    H261818   1.418   5.486  14.330 -1.5690  0.6559 -1.3305
13443TIP3   OH261819   1.918   2.304   3.431  0.7910  0.0609  0.1757
13443TIP3    H161820   1.850   2.343   3.377  1.3090  0.5196 -0.1580
13443TIP3    H261821   1.885   2.216   3.452 -1.2147  1.2119  2.3956
13444TIP3   OH261822   0.200   3.835   0.703 -0.7352  0.5923 -0.0254
13444TIP3    H161823   0.293   3.815   0.692 -0.9867 -0.6269 -0.1083
13444TIP3    H261824   0.162   3.753   0.736 -1.4362  1.6840  2.0474
13445TIP3   OH261825   2.282   3.285  16.013  0.1643  0.0090  0.0750
13445TIP3    H161826   2.198   3.242  16.026  0.3364  0.0865  1.7106
13445TIP3    H261827   2.346   3.215  16.024  0.3488  0.1422 -0.1437
13446TIP3   OH261828   1.740   5.211   2.918  0.3410  0.5147 -0.4440
13446TIP3    H161829   1.647   5.191   2.908  0.0749  1.4990 -0.0511
13446TIP3    H261830   1.752   5.294   2.871  1.0972  0.2256 -0.7821
13447TIP3   OH261831   6.351   0.963   3.831  0.0683  0.1163 -0.5212
13447TIP3    H161832   6.415   1.022   3.871  0.3944 -0.4406 -0.2087
13447TIP3    H261833   6.266   0.998   3.858  0.2404  0.8339 -0.9065
13448TIP3   OH261834   4.158   0.227  11.630 -0.3819  0.2541 -0.0911
13448TIP3    H161835   4.201   0.312  11.634 -1.1619  0.6748 -0.4411
13448TIP3    H261836   4.127   0.220  11.540  1.3497 -1.2496 -0.6378
13449TIP3   OH261837   6.675   1.396  11.033 -0.8047 -0.1513  0.2802
13449TIP3    H161838   6.739   1.361  11.095  0.8796 -1.0336 -1.7949
13449TIP3    H261839   6.636   1.318  10.993  0.5627  0.2423 -2.0348
13450TIP3   OH261840   5.271   5.550   4.413  0.4848  0.1174  0.5371
13450TIP3    H161841   5.315   5.627   4.376 -0.4753  1.1163  1.4161
13450TIP3    H261842   5.340   5.507   4.465  2.3591 -2.2183 -3.4051
13451TIP3   OH261843   2.029   1.678  12.107  0.0727  0.7535 -0.9567
13451TIP3    H161844   1.982   1.595  12.116  1.6847 -0.1512 -0.4477
13451TIP3    H261845   2.013   1.706  12.017 -0.2288 -0.2724 -1.2281
13452TIP3   OH261846   5.117   4.745   6.029 -0.1140 -0.2760  0.1186
13452TIP3    H161847   5.095   4.837   6.015  0.2028 -0.4179 -1.5256
13452TIP3    H261848   5.158   4.742   6.115  0.5399  1.2444 -0.1198
13453TIP3   OH261849   5.715   0.963   3.994  0.3654  0.2616 -0.4159
13453TIP3    H161850   5.650   1.014   4.041 -0.3799 -2.3981  1.7038
13453TIP3    H261851   5.669   0.883   3.968  2.3552 -1.0163 -0.2312
13454TIP3   OH261852   3.000   3.143   3.204 -0.3003 -0.3777 -0.1210
13454TIP3    H161853   3.063   3.213   3.184  0.1629 -0.5911  0.5756
13454TIP3    H261854   2.931   3.187   3.254 -1.1554  0.0303 -1.5771
13455TIP3   OH261855   3.691   2.204  13.527  0.1650 -0.2480 -0.5575
13455TIP3    H161856   3.763   2.165  13.578  0.0712 -0.7631 -0.8103
13455TIP3    H261857   3.687   2.295  13.557  0.7817 -0.2719 -0.3860
13456TIP3   OH261858   0.195   1.393  14.097 -0.3069  0.6126  0.2765
13456TIP3    H161859   0.242   1.361  14.021  1.6606 -0.2504  1.7617
13456TIP3    H261860   0.204   1.488  14.093 -1.2946  0.6662 -1.1848
13457TIP3   OH261861   0.432   3.857  10.915  0.5084  0.3264 -0.5149
13457TIP3    H161862   0.482   3.899  10.845  2.8080  0.6424  1.1949
13457TIP3    H261863   0.439   3.917  10.989  0.2706 -1.1011  0.7263
13458TIP3   OH261864   0.063   3.879  14.505 -0.5962  0.3349 -0.3908
13458TIP3    H161865  -0.027   3.899  14.476 -0.1951  1.5840 -0.8574
13458TIP3    H261866   0.106   3.965  14.509  1.0689 -0.3626 -1.8359
13459TIP3   OH261867   5.356   2.995  13.820 -0.2771 -0.0114  0.1129
13459TIP3    H161868   5.421   2.928  13.841  2.5221  2.6852  0.7967
13459TIP3    H261869   5.381   3.027  13.733 -2.0775 -0.3306 -0.5738
13460TIP3   OH261870   6.023   5.852  13.387 -0.4933 -0.3544 -0.0879
13460TIP3    H161871   6.066   5.924  13.341 -1.2408  0.2728  0.1815
13460TIP3    H261872   6.091   5.784  13.393 -0.1156 -0.1069 -1.3017
13461TIP3   OH261873   4.891   0.149  11.746 -0.0233  0.1892  0.0702
13461TIP3    H161874   4.893   0.104  11.661  0.8397 -0.1563  0.2614
13461TIP3    H261875   4.826   0.219  11.734 -0.7253 -0.5394 -0.5154
13462TIP3   OH261876   0.205   6.206   2.398  0.1176 -0.1961 -0.5578
13462TIP3    H161877   0.185   6.126   2.350 -0.1112  0.0400 -0.8546
13462TIP3    H261878   0.301   6.210   2.400  0.1432  0.4263 -2.0434
13463TIP3   OH261879   2.992   3.793   4.358  0.5954  0.1929 -0.2078
13463TIP3    H161880   3.078   3.829   4.382 -0.0157  0.4125  1.8710
13463TIP3    H261881   2.935   3.819   4.431 -0.7606 -1.6722 -0.5550
13464TIP3   OH261882   0.030   6.590   0.915 -0.3114  0.2011  0.2944
13464TIP3    H161883   0.006   6.523   0.978 -0.3908  2.2018  2.5344
13464TIP3    H261884   0.125   6.600   0.926 -0.2081  0.0745 -0.4370
13465TIP3   OH261885   4.060   5.219   3.590 -0.1958  0.1287 -0.0396
13465TIP3    H161886   4.083   5.134   3.553 -0.9743 -0.2484  0.3203
13465TIP3    H261887   3.988   5.200   3.650  0.5150  0.8438  1.0765
13466TIP3   OH261888   3.779   1.829  13.088  0.2483 -0.3140 -0.2133
13466TIP3    H161889   3.792   1.878  13.008 -0.0221  0.0069 -0.0627
13466TIP3    H261890   3.785   1.737  13.061  0.9832 -0.2019 -0.4526
13467TIP3   OH261891   1.939   3.985   0.431  0.1994 -0.3221 -1.2023
13467TIP3    H161892   2.029   3.955   0.414  1.0598  0.6076  1.2469
13467TIP3    H261893   1.924   3.962   0.523 -0.8426  2.4281 -0.6146
13468TIP3   OH261894   0.203   4.610  12.875  0.3580  0.2188  0.2362
13468TIP3    H161895   0.169   4.665  12.945 -1.3639 -2.1999  1.4530
13468TIP3    H261896   0.285   4.574  12.910  0.3762  0.3118  0.2894
13469TIP3   OH261897   1.533   1.952   3.003 -0.4274 -1.0382  0.7940
13469TIP3    H161898   1.585   1.942   2.923 -0.0543  0.8337  0.7659
13469TIP3    H261899   1.590   1.921   3.073  0.5277  0.4077  0.6887
13470TIP3   OH261900   5.774   2.582  15.884  0.5721 -0.9909 -0.0273
13470TIP3    H161901   5.861   2.608  15.913  0.6758 -1.4411  0.0839
13470TIP3    H261902   5.783   2.570  15.790 -0.0257  1.5026 -0.4684
13471TIP3   OH261903   3.593   5.973  12.838 -0.2155 -0.1538  0.3367
13471TIP3    H161904   3.654   5.965  12.911  0.7525 -0.7014 -0.5036
13471TIP3    H261905   3.640   5.937  12.763 -0.4805  1.9599 -0.9525
13472TIP3   OH261906   3.613   3.483   5.584 -1.0498 -0.1273 -0.6295
13472TIP3    H161907   3.677   3.550   5.606 -0.7333 -0.9914  1.3991
13472TIP3    H261908   3.658   3.425   5.523 -0.5128  0.2640 -0.6096
13473TIP3   OH261909   5.925   1.776  15.075 -0.8118  0.6328  0.6419
13473TIP3    H161910   5.951   1.698  15.124 -1.2960 -0.2397 -0.4330
13473TIP3    H261911   6.008   1.812  15.042 -0.7148 -0.6839 -0.6554
13474TIP3   OH261912   4.345   6.651   4.218 -0.3482 -0.0581 -0.6529
13474TIP3    H161913   4.327   6.649   4.312  1.3926 -1.1487 -0.3088
13474TIP3    H261914   4.428   6.698   4.210 -0.1311 -0.5751 -1.5858
13475TIP3   OH261915   1.602   1.698   5.105  0.2312  0.2661 -0.5606
13475TIP3    H161916   1.596   1.776   5.159 -0.1304  0.5979 -1.0694
13475TIP3    H261917   1.654   1.636   5.157  0.6949  0.9138 -0.2474
13476TIP3   OH261918   4.014   3.377   2.241 -0.7465 -0.2356  0.5736
13476TIP3    H161919   4.053   3.457   2.206 -1.0070 -0.4432 -0.1875
13476TIP3    H261920   3.994   3.324   2.165  1.2621 -1.9083  1.0977
13477TIP3   OH261921   3.213   6.378  14.713  0.3497  0.5145  0.4018
13477TIP3    H161922   3.125   6.342  14.718  0.2062  0.8924  0.5764
13477TIP3    H261923   3.252   6.359  14.798  0.6138 -0.0994  0.1521
13478TIP3   OH261924   5.790   4.551   3.840  0.4014 -0.0392 -0.0205
13478TIP3    H161925   5.845   4.575   3.914  1.5785 -0.8836 -0.5747
13478TIP3    H261926   5.803   4.456   3.831  1.3605  0.2366 -2.1052
13479TIP3   OH261927   3.661   0.204   1.591 -0.2952  0.0586  0.0763
13479TIP3    H161928   3.659   0.142   1.664 -1.3533 -0.5676 -0.4610
13479TIP3    H261929   3.569   0.226   1.576 -0.0685  0.3487 -0.9288
13480TIP3   OH261930   2.981   5.688   3.636 -0.6236 -0.0095  0.0596
13480TIP3    H161931   2.893   5.708   3.603 -1.1748 -2.8623 -0.4444
13480TIP3    H261932   2.970   5.681   3.730 -0.8576  0.0307  0.0366
13481TIP3   OH261933   0.568   3.907   3.287 -0.5168 -1.1496 -0.7560
13481TIP3    H161934   0.600   3.931   3.374 -3.6878  0.5118  0.0994
13481TIP3    H261935   0.585   3.813   3.280  1.3034 -0.9888  0.9490
13482TIP3   OH261936   1.030   6.129  12.582  0.1507 -0.0489  0.3077
13482TIP3    H161937   1.064   6.203  12.532 -0.8207 -0.0275 -0.3530
13482TIP3    H261938   1.069   6.052  12.541 -1.5384 -0.1180 -1.3074
13483TIP3   OH261939   4.034   3.226   1.735  0.2213  0.5064 -0.4197
13483TIP3    H161940   3.960   3.178   1.699 -0.5160  0.4406  1.0861
13483TIP3    H261941   4.085   3.159   1.781  0.3504  0.7960 -0.1361
13484TIP3   OH261942   6.007   0.145  15.879 -0.0324  0.0746 -0.1423
13484TIP3    H161943   5.942   0.184  15.820 -0.4839 -1.3905 -0.6734
13484TIP3    H261944   5.966   0.063  15.908  0.6339  0.2650  1.3864
13485TIP3   OH261945   4.279   5.307  14.443  0.3144 -0.5933  0.6803
13485TIP3    H161946   4.343   5.238  14.458  1.6148  0.1163 -1.1316
13485TIP3    H261947   4.320   5.386  14.479 -0.1771 -0.3805  0.7804
13486TIP3   OH261948   5.842   5.178  16.555 -0.2628  0.1339  0.2020
13486TIP3    H161949   5.902   5.216  16.490 -0.1385  1.1323  0.8854
13486TIP3    H261950   5.896   5.112  16.600  0.3716  1.1049  0.8890
13487TIP3   OH261951   2.507   4.521  14.749 -0.2461 -0.3147  0.6472
13487TIP3    H161952   2.429   4.493  14.703  0.1096 -1.6319  0.7942
13487TIP3    H261953   2.477   4.587  14.811 -0.7613  1.3128 -1.2597
13488TIP3   OH261954   5.831   6.611  13.276 -0.3111 -0.4051 -0.4229
13488TIP3    H161955   5.838   6.598  13.181 -1.9436 -0.3841 -0.5783
13488TIP3    H261956   5.740   6.640  13.289  0.3940  1.2976  0.9717
13489TIP3   OH261957   2.326   0.412   4.652 -0.2133 -0.4378  0.3052
13489TIP3    H161958   2.413   0.371   4.651 -0.5977 -1.2709  0.2668
13489TIP3    H261959   2.325   0.464   4.732  1.2778  1.7221 -0.9756
13490TIP3   OH261960   6.179   3.010   3.968 -0.0270  0.5766 -0.2370
13490TIP3    H161961   6.160   2.920   3.994  0.9925  1.0019  2.2350
13490TIP3    H261962   6.094   3.055   3.977 -0.4642 -0.0384 -1.1472
13491TIP3   OH261963   4.830   3.803   1.602  0.1859 -0.5157  0.2424
13491TIP3    H161964   4.864   3.872   1.545 -0.9790  0.1391  0.3034
13491TIP3    H261965   4.897   3.735   1.600  1.7518  0.9316  0.7950
13492TIP3   OH261966   3.245   2.414   5.208  0.2523 -0.0741 -0.9247
13492TIP3    H161967   3.178   2.474   5.175 -1.8245 -1.1821  0.9805
13492TIP3    H261968   3.288   2.380   5.129 -1.8469  0.2344 -2.2808
13493TIP3   OH261969   2.780   6.408   2.034 -0.2022  0.2190  0.4470
13493TIP3    H161970   2.826   6.326   2.012 -0.4849 -0.5353  2.4270
13493TIP3    H261971   2.689   6.392   2.008 -0.5815 -0.7476  2.1998
13494TIP3   OH261972   1.983   1.055   1.085 -0.1538 -0.0139 -0.2835
13494TIP3    H161973   2.026   1.012   1.011  2.8714  0.4145  1.0725
13494TIP3    H261974   2.003   1.148   1.074 -0.7918  0.2093  0.3653
13495TIP3   OH261975   0.388   4.993  15.833  0.3689  0.3259  0.5574
13495TIP3    H161976   0.358   5.017  15.920 -0.7811  0.8136  0.0534
13495TIP3    H261977   0.324   4.928  15.803 -0.1687  1.2963 -0.4959
13496TIP3   OH261978   6.057   5.848   6.180  0.3657 -0.3045 -0.2361
13496TIP3    H161979   5.990   5.896   6.228  0.1445 -1.4072  0.6008
13496TIP3    H261980   6.008   5.789   6.122  0.6243 -0.2269 -0.5387
13497TIP3   OH261981   6.204   5.545   5.566  0.1916  0.0818  0.0615
13497TIP3    H161982   6.289   5.541   5.523 -0.1602  0.1741 -0.6469
13497TIP3    H261983   6.157   5.616   5.522  0.1122  0.7243  1.1317
13498TIP3   OH261984   1.972   2.702  15.635  0.1617 -0.8400  0.4151
13498TIP3    H161985   1.893   2.752  15.616 -1.4061 -3.1404  0.4363
13498TIP3    H261986   1.984   2.645  15.559  0.8529 -1.6434  1.1008
13499TIP3   OH261987   3.253   1.531   2.438 -0.1529 -0.2077 -0.1668
13499TIP3    H161988   3.339   1.508   2.473 -1.7417 -4.0762  1.7918
13499TIP3    H261989   3.236   1.619   2.474  2.2925  0.0107  0.6746
13500TIP3   OH261990   4.111   2.455  14.321  0.3112 -0.2484  0.2742
13500TIP3    H161991   4.131   2.418  14.235  2.2548 -0.9026  0.9505
13500TIP3    H261992   4.142   2.545  14.316  1.7723 -0.6996  0.7026
13501TIP3   OH261993   2.419   5.973   2.464 -0.0044 -0.0428  0.3883
13501TIP3    H161994   2.511   5.947   2.468  0.2338  0.3917 -1.3709
13501TIP3    H261995   2.406   6.026   2.542  0.8150 -1.3670  1.4587
13502TIP3   OH261996   0.910   1.497  10.664 -0.2644 -0.1169  0.2213
13502TIP3    H161997   0.817   1.508  10.679 -0.3094 -1.0801  0.6928
13502TIP3    H261998   0.933   1.568  10.603 -1.4623 -0.3802 -0.5657
13503TIP3   OH261999   5.445   5.969   4.835 -0.3449  0.0570  0.2368
13503TIP3    H162000   5.441   5.876   4.853  1.4664  0.0525  0.8811
13503TIP3    H262001   5.407   6.011   4.911  0.2036 -0.1364  0.6226
13504TIP3   OH262002   4.467   5.170  13.077 -0.4104  0.2023 -0.1182
13504TIP3    H162003   4.454   5.119  13.157  0.0118 -0.0149 -0.1894
13504TIP3    H262004   4.474   5.104  13.008 -1.3141  0.4010 -0.4189
13505TIP3   OH262005   6.212   2.595  11.112 -0.1443 -0.5081  0.4158
13505TIP3    H162006   6.300   2.586  11.149  0.8425 -1.6921 -1.9745
13505TIP3    H262007   6.171   2.509  11.128  0.1954 -0.9366 -0.9013
13506TIP3   OH262008   0.306   3.326   0.722  0.2016  0.2141 -0.2699
13506TIP3    H162009   0.220   3.284   0.723  0.8336 -1.1315  0.4436
13506TIP3    H262010   0.297   3.398   0.660 -0.7660 -1.3581 -2.0355
13507TIP3   OH262011   1.213   6.072   4.280  0.0511 -0.2180 -0.4597
13507TIP3    H162012   1.269   6.150   4.281  1.1338 -0.9812  0.7163
13507TIP3    H262013   1.257   6.009   4.336 -1.3108 -1.3504 -0.5883
13508TIP3   OH262014   4.231   2.344  17.015 -0.2138 -0.4239 -0.4006
13508TIP3    H162015   4.162   2.278  17.017  0.7655 -1.7059 -3.1104
13508TIP3    H262016   4.185   2.428  17.021 -2.2267 -1.1740 -3.1618
13509TIP3   OH262017   5.833   3.117   3.068 -0.0058  0.2586  0.3602
13509TIP3    H162018   5.842   3.203   3.109  0.1992 -0.6381  2.3341
13509TIP3    H262019   5.767   3.130   3.000  0.5501  2.1140  0.0969
13510TIP3   OH262020   6.512   5.217  16.898 -0.1348  0.7981 -0.0923
13510TIP3    H162021   6.543   5.281  16.962  0.7084  0.3302 -0.0079
13510TIP3    H262022   6.521   5.133  16.942  1.4047  0.3699 -1.1469
13511TIP3   OH262023   6.673   0.361   0.651  0.2621 -0.4452  0.2365
13511TIP3    H162024   6.744   0.307   0.686  0.4991 -0.1465  0.2235
13511TIP3    H262025   6.679   0.350   0.556  1.2407  0.7330  0.1339
13512TIP3   OH262026   2.941   1.864  11.030  0.1451 -0.0966 -0.0121
13512TIP3    H162027   2.992   1.859  11.110  0.9185 -1.7055 -0.5745
13512TIP3    H262028   2.884   1.787  11.032 -0.1749  0.1012 -0.7776
13513TIP3   OH262029   3.027   3.597  12.868  0.7297  0.2970 -0.4665
13513TIP3    H162030   3.077   3.646  12.801 -1.0917  2.7431 -0.1870
13513TIP3    H262031   3.070   3.620  12.950 -1.2154  3.2493 -0.1027
13514TIP3   OH262032   0.454   2.812  12.744  0.5142 -0.3106 -0.1947
13514TIP3    H162033   0.369   2.843  12.712 -0.5987 -1.8714  1.0597
13514TIP3    H262034   0.507   2.891  12.751 -1.1394  0.8607 -0.1305
13515TIP3   OH262035   0.471   5.796   0.518  0.2055 -0.4493 -0.5047
13515TIP3    H162036   0.437   5.798   0.608 -1.3942 -0.2000 -1.0877
13515TIP3    H262037   0.566   5.790   0.529  0.2096  1.5543  1.2209
13516TIP3   OH262038   5.208   5.680   2.785 -0.9690  0.3746  0.6195
13516TIP3    H162039   5.255   5.711   2.707  0.7595 -0.5652  1.2197
13516TIP3    H262040   5.276   5.675   2.852 -0.5377 -6.0438  0.2630
13517TIP3   OH262041   2.827   3.116   6.389  0.8201 -0.1626  0.7681
13517TIP3    H162042   2.759   3.171   6.430 -0.4240 -0.1505 -1.1932
13517TIP3    H262043   2.791   3.027   6.393  1.5609 -0.4461  1.3855
13518TIP3   OH262044   2.985   6.628  14.627 -0.0663  0.0554  0.5831
13518TIP3    H162045   3.064   6.663  14.666  1.7451 -1.4062 -1.5408
13518TIP3    H262046   2.980   6.538  14.658 -1.0703  0.1837  0.8609
13519TIP3   OH262047   3.549   4.977   0.986  0.1682 -0.6613  0.0724
13519TIP3    H162048   3.630   4.971   1.036 -0.0778 -1.7403  0.3617
13519TIP3    H262049   3.562   5.053   0.929  0.6721  0.2546  1.3561
13520TIP3   OH262050   3.940   6.795   5.911  0.2202 -0.3527  0.2253
13520TIP3    H162051   3.902   6.849   5.841  2.0033  1.6740  0.7188
13520TIP3    H262052   3.879   6.721   5.919 -1.9610  1.1660 -1.0116
13521TIP3   OH262053   0.591   4.553   5.684 -0.4608 -0.2310  0.0581
13521TIP3    H162054   0.577   4.488   5.753 -1.7566 -0.7194 -0.6269
13521TIP3    H262055   0.681   4.583   5.696 -0.5005 -0.6869  1.6251
13522TIP3   OH262056   6.553   4.429  11.675  0.2865  0.1498 -0.0361
13522TIP3    H162057   6.467   4.387  11.669  1.1537 -1.5756 -1.7752
13522TIP3    H262058   6.590   4.396  11.757 -1.1258  1.8932  1.3711
13523TIP3   OH262059   1.898   4.760  12.394  0.2409 -0.3773  0.2998
13523TIP3    H162060   1.836   4.829  12.420  1.7041  0.9739  0.3223
13523TIP3    H262061   1.906   4.705  12.472 -0.4139 -0.1849  0.5137
13524TIP3   OH262062   1.429   1.529  13.959  0.3704 -0.2559 -0.4168
13524TIP3    H162063   1.415   1.438  13.932 -0.3977 -0.2648 -0.0089
13524TIP3    H262064   1.388   1.580  13.889 -0.3708 -0.2546  0.0082
13525TIP3   OH262065   5.091   6.314  12.244  0.1992 -0.3849  0.1968
13525TIP3    H162066   5.169   6.365  12.219  0.5248 -1.2959 -0.7127
13525TIP3    H262067   5.047   6.369  12.309  2.4331 -0.5135  1.9587
13526TIP3   OH262068   1.987   6.399  11.848  0.1075  0.3973 -0.3445
13526TIP3    H162069   1.907   6.384  11.898  0.1902  0.0568 -0.3093
13526TIP3    H262070   2.056   6.358  11.901  0.6308  2.4050  0.6313
13527TIP3   OH262071   5.487   5.381  11.973 -0.1525  0.0334 -0.1404
13527TIP3    H162072   5.414   5.442  11.964 -1.6058 -1.6738 -0.3585
13527TIP3    H262073   5.546   5.424  12.036 -2.6007  0.3563  2.1160
13528TIP3   OH262074   0.098   3.490   4.704 -0.1170  0.0516 -0.1108
13528TIP3    H162075   0.134   3.473   4.617  0.0503  0.4249 -0.1166
13528TIP3    H262076   0.125   3.580   4.724 -1.5099  0.5639 -0.3580
13529TIP3   OH262077   2.926   0.940   6.378 -0.0817 -0.2356  0.4452
13529TIP3    H162078   2.921   0.870   6.443 -0.5253 -0.9292 -0.3218
13529TIP3    H262079   2.863   0.915   6.311 -1.0436  1.4540  0.6773
13530TIP3   OH262080   5.980   1.717  12.205  0.4046 -0.5870 -0.0874
13530TIP3    H162081   5.912   1.781  12.229 -0.3369 -0.6799 -1.7891
13530TIP3    H262082   5.931   1.637  12.185  1.0154 -0.7261 -1.1153
13531TIP3   OH262083   3.502   2.828   4.442 -0.2724  0.1772 -0.1685
13531TIP3    H162084   3.592   2.824   4.411  0.0756 -1.0631  0.8819
13531TIP3    H262085   3.509   2.840   4.537 -1.1639 -0.9586  0.0702
13532TIP3   OH262086   5.728   3.101   6.421  0.4186 -1.0746  0.0989
13532TIP3    H162087   5.807   3.122   6.371  0.4788 -0.8849  0.2709
13532TIP3    H262088   5.698   3.018   6.384  0.0331 -0.5680 -0.7759
13533TIP3   OH262089   1.910   1.642  13.755 -0.1470 -0.7290 -0.2067
13533TIP3    H162090   1.933   1.718  13.701  2.4609 -1.6396 -0.4915
13533TIP3    H262091   1.934   1.667  13.844  0.9377 -1.2515 -0.3329
13534TIP3   OH262092   2.182   6.473  13.660 -0.0435  0.0157  0.7651
13534TIP3    H162093   2.100   6.427  13.674 -1.4346  2.2928  0.5349
13534TIP3    H262094   2.207   6.503  13.748  0.6038 -0.7249  0.8446
13535TIP3   OH262095   2.581   0.659   5.364  0.6297 -0.7467 -0.5297
13535TIP3    H162096   2.614   0.749   5.357 -0.0963 -0.5545 -1.7476
13535TIP3    H262097   2.554   0.651   5.456  0.7634  0.2611 -0.3913
13536TIP3   OH262098   2.999   0.940  11.623  0.0165  0.0762  0.5680
13536TIP3    H162099   2.919   0.920  11.574  0.7115 -0.4099 -0.4083
13536TIP3    H262100   3.047   0.857  11.624  0.7808  0.5131  0.6303
13537TIP3   OH262101   4.548   3.575  16.111  0.0397 -0.3403 -0.1067
13537TIP3    H162102   4.530   3.658  16.067 -0.3640 -0.9817 -1.1948
13537TIP3    H262103   4.488   3.574  16.186  0.7973  0.8099  0.5421
13538TIP3   OH262104   0.794   6.319   1.407 -0.8845  0.0735  0.0582
13538TIP3    H162105   0.820   6.256   1.340 -0.9672 -0.8453  0.8646
13538TIP3    H262106   0.721   6.278   1.453 -0.3337  0.3283  1.2098
13539TIP3   OH262107   2.182   0.339   3.620 -1.0880 -0.5111  0.0188
13539TIP3    H162108   2.176   0.419   3.568  4.7925  0.6515  0.4246
13539TIP3    H262109   2.223   0.275   3.561  0.2755 -1.0575  1.4941
13540TIP3   OH262110   2.037   6.247   3.796 -0.2894 -0.4802  0.0736
13540TIP3    H162111   1.969   6.230   3.731  1.5142 -1.7971 -1.5799
13540TIP3    H262112   2.041   6.167   3.849  0.8189 -0.9576 -0.6933
13541TIP3   OH262113   4.681   2.744  12.349  0.7141  0.0109  0.2375
13541TIP3    H162114   4.645   2.799  12.279 -0.8141 -0.3657  0.7024
13541TIP3    H262115   4.660   2.655  12.324  0.3850 -0.1487  1.0465
13542TIP3   OH262116   5.408   3.779  14.127  0.3396 -0.1876  0.1164
13542TIP3    H162117   5.419   3.768  14.032 -1.1937  0.4502 -0.1748
13542TIP3    H262118   5.442   3.867  14.145 -0.4033  0.1527 -0.0695
13543TIP3   OH262119   4.792   6.115  15.977  0.0888  0.3316 -0.0466
13543TIP3    H162120   4.853   6.177  15.938  1.7371 -2.0495 -1.5390
13543TIP3    H262121   4.766   6.058  15.904 -0.5023 -1.3788  1.4283
13544TIP3   OH262122   2.428   4.581  13.983  0.2220  0.3775  0.1230
13544TIP3    H162123   2.362   4.557  13.918 -0.7646  0.2614  1.1340
13544TIP3    H262124   2.511   4.557  13.942 -0.4612 -1.0603 -0.5228
13545TIP3   OH262125   1.322   1.941   4.642  0.0627 -0.5131  0.2289
13545TIP3    H162126   1.413   1.912   4.639  1.1535  2.5734 -1.2579
13545TIP3    H262127   1.319   2.004   4.714 -1.1290 -1.1019  0.7351
13546TIP3   OH262128   2.252   2.874  12.344  0.5578  0.1934  0.6396
13546TIP3    H162129   2.190   2.934  12.385 -0.5730 -0.2690 -0.3373
13546TIP3    H262130   2.332   2.925  12.333 -0.6494  1.8650 -1.0085
13547TIP3   OH262131   4.816   5.026   1.409  0.4209 -0.0140  0.3550
13547TIP3    H162132   4.734   5.070   1.390  0.2866 -0.2890  0.2910
13547TIP3    H262133   4.883   5.094   1.401 -0.0222  0.7792  2.7067
13548TIP3   OH262134   5.908   5.577   0.472  0.2992  0.2245  0.8006
13548TIP3    H162135   5.983   5.590   0.415  0.8065 -1.3256  1.0585
13548TIP3    H262136   5.925   5.493   0.514 -1.4538 -0.0204  1.0777
13549TIP3   OH262137   5.880   3.937   4.628  0.2174  0.1208  0.5890
13549TIP3    H162138   5.931   3.978   4.558  1.7498  0.9608  2.1269
13549TIP3    H262139   5.911   3.846   4.629  0.3332  0.1549  0.3030
13550TIP3   OH262140   4.432   5.351  15.623  0.2536 -0.0333  0.5837
13550TIP3    H162141   4.337   5.343  15.630  0.3280 -0.8811  0.7755
13550TIP3    H262142   4.462   5.351  15.714  0.4163  0.5962  0.5332
13551TIP3   OH262143   3.186   3.115  16.245 -0.9049  0.3879 -0.2104
13551TIP3    H162144   3.274   3.140  16.274 -1.3364  1.3219  0.3489
13551TIP3    H262145   3.173   3.163  16.163 -0.9998  0.4834 -0.1387
13552TIP3   OH262146   2.660   1.442  13.397  0.3252 -0.4194  0.1783
13552TIP3    H162147   2.722   1.381  13.356  1.0344  0.6223 -0.3233
13552TIP3    H262148   2.595   1.385  13.439  1.3208 -1.5225  0.2547
13553TIP3   OH262149   1.620   4.820  15.235  0.2246  0.1730 -0.2682
13553TIP3    H162150   1.530   4.785  15.239  0.9273 -2.0284 -1.9925
13553TIP3    H262151   1.652   4.812  15.325 -1.3165  1.1434  0.4095
13554TIP3   OH262152   2.910   6.178   1.712  0.0182 -0.6464  0.5918
13554TIP3    H162153   2.819   6.206   1.715 -0.3631 -1.8673  1.2622
13554TIP3    H262154   2.937   6.172   1.803  0.4308 -1.3261  0.4354
13555TIP3   OH262155   3.093   3.201  11.738 -0.0336 -0.2904 -0.1417
13555TIP3    H162156   3.058   3.160  11.817  0.7886 -0.3148  0.2252
13555TIP3    H262157   3.087   3.295  11.756  2.7128 -0.2605  1.1883
13556TIP3   OH262158   5.087   4.006   0.029  0.7873  0.3891 -0.1680
13556TIP3    H162159   5.062   3.921   0.065 -0.3576  1.0223  0.5778
13556TIP3    H262160   5.131   4.051   0.101  0.8426  0.6645 -0.3726
13557TIP3   OH262161   4.815   0.407   4.304  0.7320  0.0136 -0.2595
13557TIP3    H162162   4.800   0.322   4.261  0.1221  0.7430 -1.5631
13557TIP3    H262163   4.910   0.413   4.313  0.8706 -0.2389 -1.3908
13558TIP3   OH262164   4.886   0.608   1.309  0.3669  0.0224  0.0632
13558TIP3    H162165   4.842   0.636   1.228  0.2192 -2.1286 -0.6718
13558TIP3    H262166   4.975   0.589   1.282  0.6812  0.5292  0.7142
13559TIP3   OH262167   0.906   0.600  14.452  0.4210 -0.0655  0.5703
13559TIP3    H162168   0.888   0.506  14.452 -1.4153  0.2306 -0.5634
13559TIP3    H262169   0.972   0.613  14.383 -0.6738 -0.3423 -0.5671
13560TIP3   OH262170   4.406   6.383  12.790 -0.1551  0.2284  0.5338
13560TIP3    H162171   4.471   6.324  12.751  0.4949  1.5121 -0.4396
13560TIP3    H262172   4.381   6.341  12.872  2.0283 -0.2548  1.0229
13561TIP3   OH262173   2.830   0.917  14.191 -0.0726  0.3577 -0.3035
13561TIP3    H162174   2.783   0.945  14.269 -1.2156 -0.9149 -0.4867
13561TIP3    H262175   2.768   0.932  14.119  0.5952  0.6069 -0.8391
13562TIP3   OH262176   2.811   1.220   1.382  0.1651  0.0821 -0.0804
13562TIP3    H162177   2.770   1.294   1.337 -0.4038  0.8930  1.6737
13562TIP3    H262178   2.749   1.148   1.370 -0.1243  0.3679 -0.3347
13563TIP3   OH262179   5.544   2.152  16.924 -0.0246  0.3316 -0.1148
13563TIP3    H162180   5.580   2.139  17.012 -0.0294  0.3830 -0.1054
13563TIP3    H262181   5.482   2.080  16.912  1.1469 -0.6117 -0.6978
13564TIP3   OH262182   3.516   6.573   5.730 -0.0283  0.4850 -0.3392
13564TIP3    H162183   3.464   6.650   5.708  0.0771  0.6527 -0.0013
13564TIP3    H262184   3.465   6.499   5.696 -0.8120  0.5920  0.5552
13565TIP3   OH262185   3.526   3.210  11.518 -0.2192  0.0277 -0.2283
13565TIP3    H162186   3.598   3.159  11.555  0.7127  2.1836  1.1313
13565TIP3    H262187   3.559   3.242  11.434  0.1280  0.3889  0.0453
13566TIP3   OH262188   0.873   0.220  12.395  0.3591  0.1770  0.2513
13566TIP3    H162189   0.963   0.189  12.383  0.8544  1.4834  0.4262
13566TIP3    H262190   0.860   0.282  12.323 -0.2096  0.4324  0.5714
13567TIP3   OH262191   5.161   6.463   5.150  0.3456 -0.1557 -0.4923
13567TIP3    H162192   5.084   6.426   5.108  0.0312  0.2503 -0.2759
13567TIP3    H262193   5.163   6.423   5.237 -1.5091  2.2532  0.7752
13568TIP3   OH262194   6.234   6.279   4.894  0.0974 -0.1457  0.1094
13568TIP3    H162195   6.328   6.286   4.910 -0.0497  4.7474  0.2817
13568TIP3    H262196   6.222   6.306   4.803 -1.1590  0.6746  0.4792
13569TIP3   OH262197   0.231   1.671  15.167 -0.4431 -0.0441 -0.0523
13569TIP3    H162198   0.175   1.606  15.211  0.3850 -0.2591  0.7329
13569TIP3    H262199   0.195   1.678  15.079  0.0299 -2.3563 -0.5086
13570TIP3   OH262200   5.913   1.512  15.561 -0.0771  0.1595 -0.7018
13570TIP3    H162201   5.956   1.592  15.588  1.3071 -1.0319  0.8343
13570TIP3    H262202   5.848   1.495  15.629 -0.9195  0.3583 -1.4320
13571TIP3   OH262203   1.162   6.202  15.970 -0.5103 -0.2737 -0.1715
13571TIP3    H162204   1.189   6.283  16.013  0.7310 -0.9279  0.3285
13571TIP3    H262205   1.089   6.170  16.024  0.0004 -0.2762  0.5339
13572TIP3   OH262206   3.445   1.774  13.448  0.5066 -0.2457 -0.2731
13572TIP3    H162207   3.361   1.736  13.423 -1.1627  2.8503  0.1582
13572TIP3    H262208   3.445   1.771  13.544 -0.6767  2.6153 -0.1078
13573TIP3   OH262209   0.013   6.660   2.984  0.2372 -0.2521 -0.2330
13573TIP3    H162210  -0.052   6.691   2.920  1.6118  1.9263 -0.6558
13573TIP3    H262211   0.013   6.727   3.052  2.0336 -0.2070 -0.2428
13574TIP3   OH262212   3.233   3.727  15.271  0.4329 -0.4881 -0.2644
13574TIP3    H162213   3.188   3.774  15.341  1.1586 -0.0637 -0.0763
13574TIP3    H262214   3.196   3.639  15.275 -1.1548  0.1198 -0.8133
13575TIP3   OH262215   4.259   3.111   1.564 -0.3162  0.2051  0.1589
13575TIP3    H162216   4.187   3.173   1.547  0.9305  1.5806 -0.3407
13575TIP3    H262217   4.277   3.121   1.657 -1.2581 -0.7274  0.4624
13576TIP3   OH262218   4.120   3.527  11.412 -0.2242  0.2532  0.0156
13576TIP3    H162219   4.046   3.536  11.472 -0.5427 -0.0208 -0.3295
13576TIP3    H262220   4.178   3.599  11.435 -0.4125  0.2394  0.5526
13577TIP3   OH262221   3.420   0.150  16.963 -0.1696  0.4921  0.2921
13577TIP3    H162222   3.495   0.097  16.990  0.5677  0.6408 -1.2989
13577TIP3    H262223   3.447   0.186  16.878 -1.3419  2.0125  0.5336
13578TIP3   OH262224   6.160   4.303   4.557  0.0340  0.3826  1.1216
13578TIP3    H162225   6.118   4.387   4.540 -0.2459 -0.1389 -1.1867
13578TIP3    H262226   6.192   4.309   4.646 -1.4015  2.3198  1.5671
13579TIP3   OH262227   2.680   5.451  15.723  0.0204 -0.1841 -0.9289
13579TIP3    H162228   2.776   5.448  15.730  0.0333  1.1590  0.0403
13579TIP3    H262229   2.664   5.512  15.652 -0.1290 -1.1115 -1.7011
13580TIP3   OH262230   4.266   5.853   2.944  0.7920  0.1571 -0.5280
13580TIP3    H162231   4.310   5.800   3.010  0.8671 -0.2254 -0.8776
13580TIP3    H262232   4.174   5.830   2.952  0.4382  1.8906  1.0599
13581TIP3   OH262233   1.418   2.407   1.722  0.2220  0.1442  0.7329
13581TIP3    H162234   1.355   2.335   1.723  0.6392 -0.2942 -1.1817
13581TIP3    H262235   1.402   2.453   1.804 -2.1128 -0.3618  0.6413
13582TIP3   OH262236   2.858   6.574  16.460  0.1241  1.0187 -0.0405
13582TIP3    H162237   2.805   6.567  16.540  0.5221  0.5995  0.1935
13582TIP3    H262238   2.943   6.538  16.485  0.3522  1.1911 -0.5645
13583TIP3   OH262239   0.533   5.022  10.409 -0.1084 -0.0555  0.2904
13583TIP3    H162240   0.573   4.953  10.355  0.7271  1.2554 -0.8236
13583TIP3    H262241   0.549   5.103  10.360 -1.9984  0.8245  1.0351
13584TIP3   OH262242   0.852   1.914  15.075 -0.2717  0.1300 -0.5126
13584TIP3    H162243   0.877   1.831  15.116 -1.1731 -0.2197 -0.6485
13584TIP3    H262244   0.929   1.939  15.023  0.2382 -0.2967  0.0170
13585TIP3   OH262245   5.887   4.358   5.067  0.2770  0.0291 -0.1409
13585TIP3    H162246   5.884   4.334   5.160  2.0935 -0.0578 -0.0565
13585TIP3    H262247   5.923   4.281   5.024 -1.6965 -0.3923 -1.1412
13586TIP3   OH262248   3.671   4.384   5.309  0.0531 -0.1858  0.8524
13586TIP3    H162249   3.715   4.361   5.227  1.5024  1.0966  1.2163
13586TIP3    H262250   3.688   4.477   5.320 -2.2947  0.2413  1.3600
13587TIP3   OH262251   3.894   5.772   6.526 -0.1377  0.3143 -0.3973
13587TIP3    H162252   3.803   5.801   6.524 -0.0725  0.5129 -1.7644
13587TIP3    H262253   3.888   5.677   6.537 -0.4027  0.5680  2.1058
13588TIP3   OH262254   5.248   6.670  15.253 -0.1488 -0.4439 -0.3551
13588TIP3    H162255   5.322   6.644  15.199 -1.1621  0.6154 -2.3862
13588TIP3    H262256   5.283   6.738  15.312  0.9083 -1.4015  0.1551
13589TIP3   OH262257   4.189   4.384   0.651  0.1278 -0.1245  0.0950
13589TIP3    H162258   4.157   4.384   0.741 -2.5363  0.0303 -0.7695
13589TIP3    H262259   4.283   4.401   0.659 -0.3835  2.1298  2.7027
13590TIP3   OH262260   4.223   4.704  16.796 -0.7464  0.3244 -0.1971
13590TIP3    H162261   4.224   4.788  16.841 -1.5404 -0.0492  0.5634
13590TIP3    H262262   4.256   4.723  16.708 -1.6386  1.5842 -0.2967
13591TIP3   OH262263   6.010   1.827  11.073  0.1246 -0.5684 -0.3186
13591TIP3    H162264   6.016   1.753  11.011  0.5021 -0.5539 -0.2992
13591TIP3    H262265   6.098   1.864  11.075 -0.4664  1.0695 -1.7762
13592TIP3   OH262266   0.434   5.745   5.029  0.3203 -0.0774 -0.4271
13592TIP3    H162267   0.506   5.735   5.092  1.1674  0.0319 -1.3532
13592TIP3    H262268   0.459   5.821   4.977 -0.1550 -0.4189 -1.1652
13593TIP3   OH262269   0.609   3.784   2.076 -0.4403 -0.3509  0.3174
13593TIP3    H162270   0.601   3.697   2.114  0.3129 -0.5748 -0.0253
13593TIP3    H262271   0.627   3.841   2.151 -1.9672 -0.3027  0.6897
13594TIP3   OH262272   4.247   1.794   4.315  0.6998  0.3761  0.1694
13594TIP3    H162273   4.215   1.811   4.226  0.0767 -0.8575  0.1348
13594TIP3    H262274   4.168   1.776   4.365  0.8247  2.9295  1.4771
13595TIP3   OH262275   0.738   1.283   6.292  0.0987  0.1680 -0.4884
13595TIP3    H162276   0.812   1.323   6.246 -0.5714  1.5238 -0.4449
13595TIP3    H262277   0.724   1.199   6.248  0.5165  0.7039 -1.6783
13596TIP3   OH262278   4.165   0.098  14.791 -0.5355 -0.4655  0.8712
13596TIP3    H162279   4.232   0.108  14.723 -0.7766 -0.3041  0.6564
13596TIP3    H262280   4.215   0.083  14.871 -0.2703 -1.2415  0.5627
13597TIP3   OH262281   2.055   2.254  15.042  0.9987 -0.4809 -0.1895
13597TIP3    H162282   2.143   2.225  15.022  0.3069 -1.9733 -1.2629
13597TIP3    H262283   2.000   2.176  15.030 -0.6906  0.7752 -1.2043
13598TIP3   OH262284   0.419   3.231   3.277 -0.1749 -0.0195  0.2708
13598TIP3    H162285   0.347   3.202   3.333  1.2213 -1.9897  1.1458
13598TIP3    H262286   0.390   3.316   3.243 -2.0783  0.1289  2.0792
13599TIP3   OH262287   5.736   0.598  11.268 -0.3952  0.1657  0.4300
13599TIP3    H162288   5.822   0.562  11.246 -1.1435 -1.4040 -0.1284
13599TIP3    H262289   5.742   0.621  11.360  0.5154 -0.2806  0.4924
13600TIP3   OH262290   0.142   5.284   2.457 -0.5313  0.2199  0.4995
13600TIP3    H162291   0.073   5.322   2.403 -0.5248 -1.5217 -0.8087
13600TIP3    H262292   0.095   5.232   2.523 -0.5443  2.4120  2.3413
13601TIP3   OH262293   4.081   2.883  11.732 -0.0404  0.5109 -0.8695
13601TIP3    H162294   4.004   2.852  11.780  0.8015 -0.7505 -0.2774
13601TIP3    H262295   4.059   2.972  11.706 -2.6554 -0.5652 -2.7676
13602TIP3   OH262296   0.652   2.776  16.410  0.9848  0.0636  0.0428
13602TIP3    H162297   0.602   2.753  16.331 -0.2303 -1.8619  1.2827
13602TIP3    H262298   0.740   2.743  16.393  1.2164  1.2219 -1.1631
13603TIP3   OH262299   1.904   3.669   3.898 -0.2718 -0.1053 -0.1199
13603TIP3    H162300   1.960   3.738   3.862 -2.4868  0.7992 -2.0589
13603TIP3    H262301   1.947   3.644   3.980  0.9322  3.1449  0.3778
13604TIP3   OH262302   2.531   6.261  11.872 -0.6195  0.1425 -0.5510
13604TIP3    H162303   2.620   6.259  11.906 -0.3921 -1.1411 -1.1496
13604TIP3    H262304   2.491   6.337  11.914  0.8861  1.0239 -0.6546
13605TIP3   OH262305   6.449   5.547  11.627  0.0923 -0.4311 -0.1722
13605TIP3    H162306   6.468   5.582  11.714  0.3633 -1.9689  0.4361
13605TIP3    H262307   6.535   5.528  11.589 -0.0029  0.7341 -1.0243
13606TIP3   OH262308   3.998   1.570   0.948 -0.1520 -0.0721  0.2842
13606TIP3    H162309   4.062   1.500   0.946 -0.3775 -0.2575 -0.6521
13606TIP3    H262310   4.017   1.618   1.029  0.2328 -0.9873  0.7433
13607TIP3   OH262311   5.133   3.205   5.639  0.2048  0.2636 -0.3497
13607TIP3    H162312   5.166   3.140   5.576  0.4542  0.3556 -0.3146
13607TIP3    H262313   5.212   3.239   5.681 -0.0610 -2.0127  2.2610
13608TIP3   OH262314   1.574   2.050  12.374  0.5105  0.4100  0.5742
13608TIP3    H162315   1.660   2.082  12.349  0.7676 -0.1963  0.6804
13608TIP3    H262316   1.531   2.027  12.292  0.4173  0.7821  0.5156
13609TIP3   OH262317   5.415   1.917  12.047  0.1934 -0.3349 -0.8253
13609TIP3    H162318   5.505   1.943  12.030  0.2322 -0.4339 -0.7738
13609TIP3    H262319   5.364   1.958  11.977 -0.1040  2.0426  0.6759
13610TIP3   OH262320   6.787   5.894  14.776 -0.0419  0.2663 -0.0883
13610TIP3    H162321   6.880   5.881  14.794  0.1874  1.5847 -0.1969
13610TIP3    H262322   6.767   5.832  14.706  0.6787 -0.2385  0.1423
13611TIP3   OH262323   0.578   0.177   4.904 -0.8930  0.4679 -0.8516
13611TIP3    H162324   0.647   0.114   4.920 -0.9111  0.2841 -1.4881
13611TIP3    H262325   0.551   0.206   4.992 -0.6435 -0.1374 -0.5721
13612TIP3   OH262326   1.564   2.090   5.403 -0.6834 -0.0224  0.1851
13612TIP3    H162327   1.521   2.028   5.462 -2.3803 -0.3048 -1.2576
13612TIP3    H262328   1.547   2.176   5.444 -1.3527 -0.2518  0.4120
13613TIP3   OH262329   5.140   3.635  14.262  0.4150 -0.4985  0.1126
13613TIP3    H162330   5.235   3.649  14.266  0.2780  0.4543  0.2218
13613TIP3    H262331   5.130   3.541  14.246  1.4463 -0.2252 -2.5956
13614TIP3   OH262332   5.950   5.299   1.734 -0.1930 -0.0827  0.0501
13614TIP3    H162333   5.983   5.216   1.699 -0.3977 -0.5674  0.9899
13614TIP3    H262334   6.021   5.333   1.788 -0.6721 -0.4106  0.9020
13615TIP3   OH262335   5.519   4.379   3.165 -0.1958  0.1445  0.2262
13615TIP3    H162336   5.596   4.422   3.127 -0.2550 -1.1728 -1.5562
13615TIP3    H262337   5.503   4.426   3.247  1.6958  1.3087  0.0019
13616TIP3   OH262338   3.344   0.113   1.653 -0.4936  0.5439  0.4227
13616TIP3    H162339   3.404   0.048   1.691 -1.7121  0.5184  2.4135
13616TIP3    H262340   3.259   0.068   1.651 -0.7814  1.0898 -0.9902
13617TIP3   OH262341   4.830   6.089  15.109  0.0523 -0.2798  0.3421
13617TIP3    H162342   4.835   6.052  15.197 -0.5873  0.9735  0.9323
13617TIP3    H262343   4.885   6.167  15.112 -0.4621  0.1126 -0.1831
13618TIP3   OH262344   1.961   5.023   3.912 -0.2772 -0.0190 -0.0068
13618TIP3    H162345   1.920   4.991   3.992  0.3745 -1.0580 -0.0656
13618TIP3    H262346   2.051   4.989   3.916  0.2153  1.1757 -0.4640
13619TIP3   OH262347   2.302   1.172  16.550 -0.6540 -0.7358  0.1347
13619TIP3    H162348   2.365   1.148  16.482 -0.7536 -2.5141  0.6423
13619TIP3    H262349   2.217   1.145  16.515 -1.3800  2.4590 -0.9478
13620TIP3   OH262350   4.667   3.025   1.873 -0.0205  0.3804  0.7091
13620TIP3    H162351   4.736   2.975   1.916 -1.0206 -0.6133  1.2112
13620TIP3    H262352   4.638   2.970   1.800  2.2419  2.3995 -1.9429
13621TIP3   OH262353   2.182   6.280   4.262 -0.0960  0.3220  0.5521
13621TIP3    H162354   2.243   6.234   4.204 -0.2148 -1.1051  1.5214
13621TIP3    H262355   2.226   6.282   4.347 -0.2920  1.6464  0.6437
13622TIP3   OH262356   3.382   4.239  16.097 -0.5768  0.0296 -0.5541
13622TIP3    H162357   3.317   4.170  16.081 -1.7886  1.5366 -2.6462
13622TIP3    H262358   3.444   4.230  16.024  1.0325 -0.6834  0.8163
13623TIP3   OH262359   5.340   1.745   3.548 -0.2053 -0.1008 -0.0194
13623TIP3    H162360   5.248   1.728   3.568 -0.2646 -1.7866 -1.4132
13623TIP3    H262361   5.380   1.658   3.547  0.9399  0.4101 -1.4694
13624TIP3   OH262362   6.362   6.183   4.194  0.6133  0.0168  0.2930
13624TIP3    H162363   6.274   6.173   4.229  0.5492 -0.9409 -0.1074
13624TIP3    H262364   6.350   6.197   4.100  0.8404  1.2997  0.4305
13625TIP3   OH262365   6.514   6.435   4.592 -0.2375 -0.3674 -0.2953
13625TIP3    H162366   6.573   6.428   4.517  0.4198 -0.0926  0.1911
13625TIP3    H262367   6.457   6.509   4.571 -0.0196 -0.2539 -0.4939
13626TIP3   OH262368   5.987   4.184   2.332  0.6162  0.0846  0.1448
13626TIP3    H162369   6.043   4.238   2.276 -0.0821  0.5792 -0.0936
13626TIP3    H262370   5.908   4.169   2.279  0.8825 -1.3509  0.1304
13627TIP3   OH262371   5.529   5.832  14.066  0.0699 -0.6082 -0.1087
13627TIP3    H162372   5.484   5.885  14.131 -1.1812 -2.0033  0.2165
13627TIP3    H262373   5.514   5.877  13.983 -1.1473 -0.5451  0.1319
13628TIP3   OH262374   5.524   5.052   1.249  0.1482  0.6943  0.1693
13628TIP3    H162375   5.517   5.146   1.235  2.1380  1.3625  2.8009
13628TIP3    H262376   5.609   5.028   1.212  0.9847  0.5861  2.0419
13629TIP3   OH262377   4.721   2.621   5.562 -0.3205  0.4125  0.4607
13629TIP3    H162378   4.769   2.540   5.579 -2.4675 -0.8398  0.9172
13629TIP3    H262379   4.707   2.621   5.467  0.1017  0.5097  0.3963
13630TIP3   OH262380   0.901   5.903  11.501  0.3460 -0.4911  0.0996
13630TIP3    H162381   0.851   5.891  11.582 -1.6323  3.6845 -0.2614
13630TIP3    H262382   0.969   5.966  11.524 -0.1804  0.6811 -1.4167
13631TIP3   OH262383   5.007   5.472  17.179 -0.0298 -0.2463 -0.0425
13631TIP3    H162384   5.046   5.433  17.101 -0.1948 -1.2912  0.3749
13631TIP3    H262385   5.077   5.468  17.245 -0.1283 -0.0629  0.0737
13632TIP3   OH262386   0.748   2.086   2.935 -0.5614 -0.3373  0.2542
13632TIP3    H162387   0.726   2.042   2.854  0.3241 -1.6549  0.7000
13632TIP3    H262388   0.684   2.157   2.943 -1.5639 -1.1071 -0.8374
13633TIP3   OH262389   0.124   1.276  16.360  0.1378  0.2138  0.2702
13633TIP3    H162390   0.138   1.217  16.434  1.3459  0.5587  0.3490
13633TIP3    H262391   0.111   1.362  16.400 -0.4127  0.2045  0.1159
13634TIP3   OH262392   2.108   5.525  14.835 -0.1212  0.0905 -0.2640
13634TIP3    H162393   2.110   5.566  14.749 -0.7722  1.7110  0.4514
13634TIP3    H262394   2.197   5.491  14.847 -0.8475 -3.4119 -2.9787
13635TIP3   OH262395   4.896   0.450  14.749  0.2302  0.1013 -0.4676
13635TIP3    H162396   4.894   0.426  14.842  0.6312  0.2372 -0.4230
13635TIP3    H262397   4.986   0.433  14.722  0.5565  1.5908 -0.4217
13636TIP3   OH262398   3.460   6.015  11.125  0.5774 -0.0895 -0.6252
13636TIP3    H162399   3.507   5.956  11.066 -0.4689 -0.5436 -1.0145
13636TIP3    H262400   3.380   6.038  11.078 -0.4565 -0.7420  0.7530
13637TIP3   OH262401   4.456   6.712   1.533 -0.0518  0.2760 -0.0335
13637TIP3    H162402   4.459   6.680   1.623 -0.0502 -0.8102 -0.4067
13637TIP3    H262403   4.508   6.793   1.534 -0.3320  0.4471  1.0029
13638TIP3   OH262404   4.747   3.324  17.022 -0.5252 -0.2321 -0.5652
13638TIP3    H162405   4.680   3.267  16.986 -0.9288 -1.0086  1.3039
13638TIP3    H262406   4.776   3.281  17.103  0.7949  1.0755 -0.2782
13639TIP3   OH262407   6.616   0.031   3.543  0.0626 -0.5360  0.3158
13639TIP3    H162408   6.632  -0.009   3.628 -0.4305  0.8342  1.0869
13639TIP3    H262409   6.582  -0.040   3.489  1.6485 -1.7435  0.8485
13640TIP3   OH262410   2.306   3.371  16.685 -0.0496  0.1507  0.2769
13640TIP3    H162411   2.315   3.460  16.721  4.2267  0.4720 -1.0016
13640TIP3    H262412   2.296   3.315  16.762  1.8101  1.4259  1.5369
13641TIP3   OH262413   3.639   0.809   6.113 -0.3471 -0.0865  0.3675
13641TIP3    H162414   3.660   0.761   6.193  1.0912 -1.9920 -1.0440
13641TIP3    H262415   3.597   0.744   6.056  0.9466  0.4883 -1.3323
13642TIP3   OH262416   5.718   4.611   0.228 -0.0310  0.3887  0.1492
13642TIP3    H162417   5.704   4.660   0.148 -0.4156  0.3725  0.2063
13642TIP3    H262418   5.650   4.642   0.288  0.2456  0.3924  0.4638
13643TIP3   OH262419   3.038   6.055   4.441 -0.3497 -0.0291 -0.3249
13643TIP3    H162420   3.010   6.009   4.362 -0.4746 -1.7273  0.6710
13643TIP3    H262421   2.962   6.055   4.498  0.4118 -0.9537  0.7319
13644TIP3   OH262422   1.215   0.834  14.022  0.5397  0.1697  0.3854
13644TIP3    H162423   1.145   0.820  14.086  0.3035  3.7250  1.0925
13644TIP3    H262424   1.293   0.848  14.076  0.8157  0.8179 -0.1739
13645TIP3   OH262425   5.013   5.329  11.937 -0.2191  0.5648  0.1408
13645TIP3    H162426   5.101   5.321  11.974 -1.1539  1.4409  2.7508
13645TIP3    H262427   5.017   5.406  11.881  0.6482  0.6768  0.3426
13646TIP3   OH262428   6.671   3.631   4.744  0.7555 -0.2629  0.2775
13646TIP3    H162429   6.587   3.588   4.727  1.0204 -0.8652  0.4643
13646TIP3    H262430   6.736   3.572   4.706  1.1101  0.0711  0.3634
13647TIP3   OH262431   1.283   2.753   0.215  0.0279  0.0059 -0.0988
13647TIP3    H162432   1.272   2.664   0.250  1.3488  0.0781  0.5456
13647TIP3    H262433   1.246   2.810   0.282  1.3482  0.0631  0.6146
13648TIP3   OH262434   6.059   6.414   5.780  0.0179  0.9316 -0.1259
13648TIP3    H162435   5.999   6.341   5.765  1.3153 -0.5677  1.5428
13648TIP3    H262436   6.093   6.435   5.693 -0.2213 -0.6304 -0.6281
13649TIP3   OH262437   0.820   5.838  11.746  0.0805 -0.1081  0.0512
13649TIP3    H162438   0.820   5.895  11.823 -0.3716  0.8217 -0.6106
13649TIP3    H262439   0.756   5.770  11.768 -0.6358  0.5892  0.2018
13650TIP3   OH262440   3.206   4.632   3.753 -0.1381 -0.2945 -0.0270
13650TIP3    H162441   3.255   4.667   3.827  0.5177 -1.9320  0.3697
13650TIP3    H262442   3.138   4.577   3.794 -0.7137 -0.0387 -0.6252
13651TIP3   OH262443   5.393   2.783   1.086 -0.5320  0.2222 -0.2792
13651TIP3    H162444   5.338   2.719   1.042 -1.4308  1.4195 -0.9526
13651TIP3    H262445   5.478   2.741   1.094 -1.0232 -0.9232 -0.9831
13652TIP3   OH262446   4.036   4.618  15.627  0.3728 -0.2099  0.7279
13652TIP3    H162447   4.114   4.628  15.681  0.2614  0.9319  0.7003
13652TIP3    H262448   4.064   4.645  15.539  0.0319 -0.1377  0.6402
13653TIP3   OH262449   5.263   5.365  14.192  0.4118 -0.7765 -0.0892
13653TIP3    H162450   5.206   5.336  14.121  0.5520 -2.4639  0.4265
13653TIP3    H262451   5.287   5.284  14.238 -1.2097  0.3301  3.0573
13654TIP3   OH262452   2.235   3.710   1.176 -0.0638  0.0815  0.1783
13654TIP3    H162453   2.288   3.639   1.211  0.4984  0.1571 -0.5094
13654TIP3    H262454   2.257   3.714   1.083  1.0671  2.1297  0.4669
13655TIP3   OH262455   1.464   5.140  16.250 -0.1515 -0.1857 -0.5003
13655TIP3    H162456   1.518   5.150  16.328  0.1790 -0.0826 -0.7417
13655TIP3    H262457   1.377   5.170  16.278 -0.1013 -0.4094 -0.0958
13656TIP3   OH262458   5.290   1.478  15.476  0.0241 -0.4076 -0.2628
13656TIP3    H162459   5.276   1.432  15.559  0.9777 -1.7502 -0.8027
13656TIP3    H262460   5.328   1.412  15.418  1.3444  1.0320 -1.1328
13657TIP3   OH262461   0.286   2.361   2.272  0.1577  0.2048  0.5814
13657TIP3    H162462   0.209   2.401   2.313 -1.2283 -1.1797 -0.5095
13657TIP3    H262463   0.294   2.406   2.188  0.6305  0.4498  0.7593
13658TIP3   OH262464   1.547   2.064  10.951  0.7356 -0.3544 -0.3536
13658TIP3    H162465   1.524   2.157  10.958 -0.2427 -0.6729  1.3397
13658TIP3    H262466   1.632   2.063  10.907  2.2422  1.5822  2.2133
13659TIP3   OH262467   0.863   4.739   4.017 -0.0025  0.2418 -0.0103
13659TIP3    H162468   0.857   4.835   4.016  0.8517  0.3517 -2.5700
13659TIP3    H262469   0.954   4.721   3.991 -0.3724 -1.2703 -0.3254
13660TIP3   OH262470   5.299   4.422  10.649 -0.0783 -0.4115  0.2441
13660TIP3    H162471   5.209   4.402  10.620 -0.9037  0.7245  1.9102
13660TIP3    H262472   5.322   4.502  10.602 -0.3063 -0.1805  0.5227
13661TIP3   OH262473   6.161   4.573   3.180  0.7311  0.3590 -0.4386
13661TIP3    H162474   6.168   4.480   3.200 -1.7168  0.2578  0.3846
13661TIP3    H262475   6.198   4.583   3.093  0.4085 -1.5364 -0.8288
13662TIP3   OH262476   1.928   4.995  12.951 -0.0921 -0.4973 -0.1669
13662TIP3    H162477   1.850   4.992  12.896 -0.5060 -1.7425  0.4380
13662TIP3    H262478   2.002   4.985  12.890 -0.3344  1.3275 -0.8126
13663TIP3   OH262479   6.630   4.895  14.442 -0.2901  0.4939  0.6400
13663TIP3    H162480   6.612   4.850  14.359 -1.4669  1.2091  0.4951
13663TIP3    H262481   6.633   4.988  14.420 -0.2071  0.6639  1.3369
13664TIP3   OH262482   0.895   5.567  12.167 -0.3947 -0.1791  0.2601
13664TIP3    H162483   0.834   5.586  12.238 -0.6703 -0.9622  0.2423
13664TIP3    H262484   0.867   5.482  12.133  0.6616 -0.5164  0.1952
13665TIP3   OH262485   1.691   5.924   2.527 -0.5043 -0.3536  0.2453
13665TIP3    H162486   1.759   5.861   2.554  0.9785  0.6647 -0.9206
13665TIP3    H262487   1.669   5.898   2.437 -0.9742 -0.1219  0.2928
13666TIP3   OH262488   5.973   6.807   5.398 -0.1881 -0.5249 -0.1199
13666TIP3    H162489   5.890   6.785   5.355 -0.4729 -0.5137  0.4104
13666TIP3    H262490   6.019   6.723   5.405 -0.6367 -0.7236  0.5773
13667TIP3   OH262491   2.785   4.416   1.079 -0.1169  0.0560 -0.1389
13667TIP3    H162492   2.867   4.391   1.037 -0.4210 -1.0581 -0.1006
13667TIP3    H262493   2.783   4.366   1.160 -2.3608 -2.6030 -1.6700
13668TIP3   OH262494   5.156   3.727   2.423  0.1142  0.2164  0.3882
13668TIP3    H162495   5.250   3.713   2.406 -0.0073  0.5431 -0.5908
13668TIP3    H262496   5.122   3.639   2.441  0.5961  0.0924  0.7298
13669TIP3   OH262497   5.008   3.498  16.447  0.2492  0.3988 -0.1657
13669TIP3    H162498   4.972   3.548  16.374 -0.6453  0.8926  0.5851
13669TIP3    H262499   5.023   3.564  16.515 -0.0541 -0.2136  0.5094
13670TIP3   OH262500   5.592   5.624   1.508  0.0574 -0.5171 -0.1020
13670TIP3    H162501   5.645   5.552   1.542 -1.6785 -1.7796  0.0905
13670TIP3    H262502   5.640   5.703   1.532  2.3688 -1.6003 -0.9216
13671TIP3   OH262503   1.500   5.904  11.001 -0.1618 -0.4149 -0.7419
13671TIP3    H162504   1.593   5.882  11.011  0.3267  0.5357 -2.7847
13671TIP3    H262505   1.491   5.931  10.910 -1.6633  3.0758  0.2709
13672TIP3   OH262506   0.673   1.128   1.066 -0.1826 -0.1594 -0.0104
13672TIP3    H162507   0.731   1.203   1.079 -1.9119  0.9090  2.1038
13672TIP3    H262508   0.632   1.115   1.151 -3.4528 -0.4879 -1.5092
13673TIP3   OH262509   4.978   5.195  11.067  0.1458  0.2321 -0.0015
13673TIP3    H162510   5.035   5.183  10.991 -0.3249  1.6683 -0.6184
13673TIP3    H262511   4.972   5.290  11.078 -1.2133  0.0891  0.7240
13674TIP3   OH262512   2.661   4.720   2.546 -0.2034  0.5208  0.0423
13674TIP3    H162513   2.639   4.651   2.483 -1.5313  1.9692 -1.1539
13674TIP3    H262514   2.703   4.673   2.619 -1.8837 -1.6883 -0.2862
13675TIP3   OH262515   3.104   0.403   5.802  0.6435 -0.7024  0.4092
13675TIP3    H162516   3.150   0.367   5.878 -2.7030 -1.1827  2.4029
13675TIP3    H262517   3.033   0.341   5.785 -0.6124  1.0196 -1.0862
13676TIP3   OH262518   0.535   6.668   0.893 -0.3022 -0.5424  0.4755
13676TIP3    H162519   0.578   6.583   0.901 -2.1048 -1.4143  1.6107
13676TIP3    H262520   0.605   6.729   0.873  0.9209 -2.4397 -1.4474
13677TIP3   OH262521   5.346   4.344  11.646 -0.2758 -0.6874  0.0202
13677TIP3    H162522   5.363   4.413  11.582 -1.0468 -0.4764  0.0221
13677TIP3    H262523   5.263   4.305  11.617  0.5457 -2.1561 -0.4269
13678TIP3   OH262524   5.299   5.815   3.427 -0.4894  0.6706  0.0239
13678TIP3    H162525   5.208   5.838   3.442 -0.1037  1.0633  2.1472
13678TIP3    H262526   5.325   5.868   3.352 -1.9437  0.6707 -0.5037
13679TIP3   OH262527   3.145   6.460  15.394  0.5190 -0.5223 -0.3550
13679TIP3    H162528   3.066   6.420  15.358 -0.0946  0.2740  0.0767
13679TIP3    H262529   3.209   6.457  15.323 -0.0593 -0.7253 -0.8658
13680TIP3   OH262530   0.564   5.549  12.157 -0.1743  1.0268 -0.3208
13680TIP3    H162531   0.572   5.496  12.078 -0.5932  0.2048  0.1734
13680TIP3    H262532   0.544   5.637  12.125 -1.1204  0.5419 -1.1134
13681TIP3   OH262533   2.675   4.353   3.805  0.2089  0.4469  1.0215
13681TIP3    H162534   2.600   4.344   3.864 -0.4204  0.8305  0.3129
13681TIP3    H262535   2.720   4.432   3.835 -1.3535  1.9323 -0.2796
13682TIP3   OH262536   2.201   6.346  16.745  0.3399 -0.2155 -0.6275
13682TIP3    H162537   2.162   6.340  16.832  0.0341 -0.5397 -0.7813
13682TIP3    H262538   2.294   6.363  16.761  0.5067 -1.4094 -0.2071
13683TIP3   OH262539   5.978   4.631   1.832  0.2277  0.5732 -0.1896
13683TIP3    H162540   5.902   4.657   1.779  0.4356  0.2635 -0.6503
13683TIP3    H262541   5.961   4.668   1.918 -1.0298 -0.4977  0.0569
13684TIP3   OH262542   3.269   5.345  11.898  0.1474  0.5998 -0.1704
13684TIP3    H162543   3.244   5.392  11.977 -1.2528  1.3913 -1.0417
13684TIP3    H262544   3.229   5.395  11.827 -0.0383 -1.0305 -1.2584
13685TIP3   OH262545   0.334   0.470   2.130 -0.1479  0.6897  0.4824
13685TIP3    H162546   0.282   0.390   2.136 -2.4540  2.0633  0.0635
13685TIP3    H262547   0.316   0.516   2.212 -0.5852  1.7148 -0.1589
13686TIP3   OH262548   3.475   5.974   5.110  0.0317 -0.3519 -0.1650
13686TIP3    H162549   3.391   5.975   5.065  0.3297  0.7909 -0.7200
13686TIP3    H262550   3.454   5.947   5.199 -0.4135 -3.9555 -1.1926
13687TIP3   OH262551   0.844   4.629  14.479 -0.6673  0.2428  0.7982
13687TIP3    H162552   0.924   4.681  14.485 -0.3382 -0.1886  0.1160
13687TIP3    H262553   0.803   4.657  14.397  0.3351 -1.7267 -0.4326
13688TIP3   OH262554   2.745   1.790   1.399  0.2472 -0.0887 -0.1555
13688TIP3    H162555   2.779   1.811   1.485  3.3765 -3.5652 -0.2573
13688TIP3    H262556   2.696   1.708   1.411 -2.2787  1.1401 -1.2433
13689TIP3   OH262557   5.951   1.770   7.003  0.4128 -0.4043  0.0517
13689TIP3    H162558   5.968   1.857   7.038  0.3915 -0.0774 -0.7317
13689TIP3    H262559   5.864   1.776   6.964  0.3974 -0.7864  0.0202
13690TIP3   OH262560   0.818   5.118  16.362 -0.3948  0.0718 -0.1362
13690TIP3    H162561   0.894   5.067  16.389  1.0145  1.6534 -0.8915
13690TIP3    H262562   0.805   5.181  16.434  0.2954  1.0878 -0.8635
13691TIP3   OH262563   2.956   4.828  11.618 -0.3089  0.1479 -1.2306
13691TIP3    H162564   3.050   4.835  11.633 -0.5242  1.7326 -0.3865
13691TIP3    H262565   2.930   4.914  11.585 -1.3136 -0.5756 -2.4195
13692TIP3   OH262566   5.821   6.535   5.489  0.0481 -0.3161  0.3011
13692TIP3    H162567   5.750   6.555   5.428  1.1714  2.8135 -0.1908
13692TIP3    H262568   5.856   6.451   5.459 -0.3642  0.4355 -2.5524
13693TIP3   OH262569   4.570   0.652  16.823 -0.2716 -0.5854 -0.5053
13693TIP3    H162570   4.550   0.570  16.778  0.6792 -1.1518  0.0789
13693TIP3    H262571   4.646   0.632  16.878 -0.9530  0.2928  0.7914
13694TIP3   OH262572   1.093   0.980  13.583  0.8114 -0.1140  0.2940
13694TIP3    H162573   1.138   0.901  13.611 -1.8376 -1.3595  1.3439
13694TIP3    H262574   1.069   0.963  13.492  1.2763  0.0196  0.1410
13695TIP3   OH262575   6.806   4.177  16.385 -0.2206  0.1938  0.2989
13695TIP3    H162576   6.845   4.260  16.358  0.8681 -0.8212 -1.4895
13695TIP3    H262577   6.795   4.128  16.303  0.4904 -1.9444  1.3997
13696TIP3   OH262578   5.402   3.516   4.397  0.0843 -0.2458  0.1356
13696TIP3    H162579   5.362   3.601   4.412  1.8566  0.6246  0.1520
13696TIP3    H262580   5.401   3.473   4.482 -0.2552  0.0134  0.2622
13697TIP3   OH262581   2.483   0.979  13.715  0.0041 -0.1460 -1.1440
13697TIP3    H162582   2.457   0.974  13.807 -0.4548  0.5594 -1.2279
13697TIP3    H262583   2.569   1.022  13.717 -0.3456  0.5778 -1.0835
13698TIP3   OH262584   3.410   0.301   2.481  0.2947 -0.0082  0.0387
13698TIP3    H162585   3.381   0.232   2.541  0.7618  0.2403  0.5620
13698TIP3    H262586   3.468   0.356   2.534  1.5714 -0.3752 -0.9290
13699TIP3   OH262587   0.010   3.569  12.567  0.2481 -0.0242 -0.5862
13699TIP3    H162588   0.095   3.529  12.587  1.0988  2.0280  0.2412
13699TIP3    H262589   0.025   3.618  12.486 -0.3454 -0.1849 -0.7961
13700TIP3   OH262590   4.326   1.436   3.549 -0.3528  0.1758  0.2046
13700TIP3    H162591   4.409   1.482   3.563 -0.6806  0.8971 -0.1622
13700TIP3    H262592   4.316   1.434   3.454 -0.0190 -1.2756  0.1747
13701TIP3   OH262593   0.909   1.715   4.959  0.1321 -0.1824 -0.2423
13701TIP3    H162594   0.889   1.667   5.040 -0.7485 -1.1676 -1.0038
13701TIP3    H262595   1.004   1.725   4.960  0.1791 -0.5893  0.6925
13702TIP3   OH262596   3.321   6.788   4.084 -0.0952 -0.1752 -0.4291
13702TIP3    H162597   3.401   6.840   4.094  0.1710 -0.8879  1.5113
13702TIP3    H262598   3.280   6.789   4.171 -1.0713 -1.6407 -0.8326
13703TIP3   OH262599   5.103   6.304   5.800  0.4049  0.0248 -0.3900
13703TIP3    H162600   5.109   6.279   5.708  1.3446  1.8422 -0.8775
13703TIP3    H262601   5.104   6.400   5.799 -0.4707  0.1001  1.4683
13704TIP3   OH262602   5.375   5.692   5.998 -0.1650 -0.5196 -0.7727
13704TIP3    H162603   5.452   5.665   5.947 -1.2776 -3.0691 -1.2434
13704TIP3    H262604   5.303   5.640   5.962 -1.9872  1.2205  0.1780
13705TIP3   OH262605   6.077   6.709   0.953 -0.3668  0.3709  0.0706
13705TIP3    H162606   6.021   6.708   1.031  1.2959 -1.0760  1.3556
13705TIP3    H262607   6.031   6.655   0.889 -0.0748 -1.6084  1.4375
13706TIP3   OH262608   0.243   6.390   4.650 -1.0782  0.0974  0.2476
13706TIP3    H162609   0.202   6.456   4.706 -1.7542 -1.2339  1.3714
13706TIP3    H262610   0.324   6.432   4.619 -0.2905  0.6434  2.8090
13707TIP3   OH262611   1.277   5.142  12.755  0.0653 -0.7034  0.0564
13707TIP3    H162612   1.323   5.141  12.839  2.6297  3.1706 -1.0022
13707TIP3    H262613   1.345   5.121  12.691 -1.3264 -1.4298 -1.2396
13708TIP3   OH262614   5.660   2.961  15.978 -0.1236  0.1148 -0.7381
13708TIP3    H162615   5.741   2.911  15.973  0.2702  0.2310  2.4217
13708TIP3    H262616   5.687   3.049  16.004 -1.2214  0.3603 -0.3672
13709TIP3   OH262617   6.507   2.580   1.595 -0.2573  0.4870  0.0048
13709TIP3    H162618   6.518   2.588   1.690 -0.3065  2.1929 -0.0960
13709TIP3    H262619   6.413   2.568   1.582 -0.3787  1.2333  0.1436
13710TIP3   OH262620   5.589   3.783   2.076 -0.4192 -0.4937  0.0380
13710TIP3    H162621   5.514   3.733   2.105  0.0760 -1.2090  0.1034
13710TIP3    H262622   5.622   3.827   2.154 -0.1103 -1.0604  0.2294
13711TIP3   OH262623   0.473   2.194  13.920  0.3590 -0.1211  0.2416
13711TIP3    H162624   0.470   2.281  13.881  0.7644  0.6065  1.7634
13711TIP3    H262625   0.383   2.177  13.947  0.2722 -0.2035 -0.0911
13712TIP3   OH262626   0.190   0.756   2.568 -0.1312  0.5215  0.1377
13712TIP3    H162627   0.117   0.811   2.595 -0.5113  0.1723 -0.1445
13712TIP3    H262628   0.188   0.682   2.628 -1.3276 -0.5375 -1.1195
13713TIP3   OH262629   5.429   5.141   1.640  0.1505  0.1866  0.3854
13713TIP3    H162630   5.464   5.072   1.697 -1.2783  0.2668  1.4159
13713TIP3    H262631   5.488   5.215   1.654  0.9150 -0.3936  0.3024
13714TIP3   OH262632   0.481   2.942   4.415  0.3440  0.0606 -0.1772
13714TIP3    H162633   0.534   2.899   4.482  1.3964  1.2692 -0.1923
13714TIP3    H262634   0.541   3.002   4.372 -0.5036 -0.1439 -1.7231
13715TIP3   OH262635   4.201   4.087  14.394 -0.1241 -0.5320  0.0727
13715TIP3    H162636   4.178   3.999  14.423  1.1552 -1.1594 -0.7563
13715TIP3    H262637   4.166   4.144  14.462 -1.1194 -1.6578  0.5436
13716TIP3   OH262638   6.729   2.627   4.752  0.1006 -0.4177  0.1558
13716TIP3    H162639   6.694   2.585   4.831 -0.6137 -0.5919 -0.2473
13716TIP3    H262640   6.822   2.603   4.751 -0.0443 -1.0090  0.5520
13717TIP3   OH262641   6.178   6.310   3.757  0.0203  0.2661  0.4801
13717TIP3    H162642   6.104   6.276   3.807  0.7543  0.7390  1.9281
13717TIP3    H262643   6.180   6.255   3.679 -0.9928 -0.6735  1.0811
13718TIP3   OH262644   3.134   6.459  12.718 -0.0191  0.0336 -0.7646
13718TIP3    H162645   3.212   6.467  12.662  0.5280 -0.3153 -0.0604
13718TIP3    H262646   3.162   6.403  12.790 -1.1825 -0.8321 -0.9598
13719TIP3   OH262647   5.522   4.468   4.344 -0.1834 -0.0109 -0.6572
13719TIP3    H162648   5.607   4.425   4.358 -0.8330 -1.1971 -0.2207
13719TIP3    H262649   5.504   4.455   4.251 -0.4101 -0.7736 -0.5134
13720TIP3   OH262650   3.746   1.121   4.103 -0.9818  0.7897 -0.4805
13720TIP3    H162651   3.752   1.049   4.166  2.7963  0.7781 -0.6481
13720TIP3    H262652   3.686   1.183   4.144  0.3300  0.2117  2.6170
13721TIP3   OH262653   0.943   0.054   4.304 -0.3919  0.6720 -0.0218
13721TIP3    H162654   1.003  -0.021   4.302 -0.9082  0.2755 -1.6758
13721TIP3    H262655   0.862   0.019   4.342  0.4583  1.3067  2.6152
13722TIP3   OH262656   5.213   2.979  12.015  0.3723  0.7569  0.3090
13722TIP3    H162657   5.287   3.022  11.972 -0.0846  0.5181 -0.7364
13722TIP3    H262658   5.223   2.886  11.994 -1.2853  0.9345 -1.5295
13723TIP3   OH262659   3.407   4.090   2.842  0.4068 -0.1218 -0.5195
13723TIP3    H162660   3.315   4.098   2.817 -0.1884  0.7471  1.6977
13723TIP3    H262661   3.406   4.029   2.916  1.4541  0.6672  0.1721
13724TIP3   OH262662   2.996   1.896  16.938 -0.2441  0.2103  0.1877
13724TIP3    H162663   2.957   1.891  17.025 -1.4465  0.3097 -0.3218
13724TIP3    H262664   3.002   1.990  16.920 -2.5573  0.2084 -0.8997
13725TIP3   OH262665   0.721   0.859  16.783 -0.4041  0.3074 -0.0563
13725TIP3    H162666   0.732   0.771  16.746  1.5382  0.6360 -0.3430
13725TIP3    H262667   0.807   0.881  16.819 -1.0126  1.8734  0.5164
13726TIP3   OH262668   6.611   2.871   3.549 -0.2637 -0.6956  0.7148
13726TIP3    H162669   6.520   2.896   3.534  0.0243 -0.3330 -0.5902
13726TIP3    H262670   6.607   2.780   3.579 -1.0416 -0.7555  0.4362
13727TIP3   OH262671   4.546   4.615   3.580 -0.4326  0.6326 -0.2595
13727TIP3    H162672   4.521   4.707   3.581 -0.8593  0.5569  2.0308
13727TIP3    H262673   4.621   4.609   3.638 -1.7898 -0.7405  1.4814
13728TIP3   OH262674   6.330   0.766   0.907 -0.1607  0.3274  0.2520
13728TIP3    H162675   6.415   0.792   0.871  0.1229 -0.1494  0.5753
13728TIP3    H262676   6.275   0.749   0.830 -0.8307  3.2453 -0.0610
13729TIP3   OH262677   5.158   2.018   5.837  0.2522 -0.1557 -0.8783
13729TIP3    H162678   5.155   1.960   5.914  1.2759  0.8067 -0.0897
13729TIP3    H262679   5.250   2.044   5.830  0.0413  0.3251 -2.0204
13730TIP3   OH262680   5.068   6.819  12.827 -0.2733  0.0279  0.6485
13730TIP3    H162681   5.014   6.808  12.905 -0.4961 -0.8485  0.3771
13730TIP3    H262682   5.090   6.912  12.827 -2.2085  0.5366  0.4958
13731TIP3   OH262683   4.001   5.236  17.076 -0.0109  0.3973  0.2063
13731TIP3    H162684   4.029   5.146  17.094  1.3037  0.9656  1.1302
13731TIP3    H262685   4.033   5.287  17.150 -0.6436  1.6528 -0.3524
13732TIP3   OH262686   3.854   3.951  12.068  0.1073  0.1251  0.0646
13732TIP3    H162687   3.848   4.044  12.087  0.1678  0.0495  0.4585
13732TIP3    H262688   3.946   3.929  12.083 -0.2987 -0.4498  2.1378
13733TIP3   OH262689   3.717   0.982   4.759  0.5157 -0.1795 -0.6715
13733TIP3    H162690   3.779   0.910   4.757 -0.0723 -0.6943 -0.5608
13733TIP3    H262691   3.756   1.049   4.703 -0.2420 -1.6606 -3.1400
13734TIP3   OH262692   1.923   6.680  10.637 -0.1470 -0.7850 -0.2581
13734TIP3    H162693   1.955   6.713  10.553 -1.3390  0.7401 -0.1702
13734TIP3    H262694   1.922   6.585  10.627 -0.9458 -0.6108 -2.2686
13735TIP3   OH262695   3.536   2.078   3.239 -0.0596  0.4238  0.1737
13735TIP3    H162696   3.624   2.050   3.265 -1.2117 -1.6651  2.2563
13735TIP3    H262697   3.506   2.132   3.312 -0.5513  1.0600 -0.4877
13736TIP3   OH262698   5.110   6.183  13.254 -0.2684  0.2850  0.0264
13736TIP3    H162699   5.184   6.143  13.300  0.4341  0.2000 -1.1593
13736TIP3    H262700   5.126   6.166  13.162 -1.6001  0.5643 -0.2860
13737TIP3   OH262701   6.765   6.173  14.922 -0.0672  0.1019  0.3221
13737TIP3    H162702   6.835   6.200  14.862  0.7149  0.0333  1.1750
13737TIP3    H262703   6.726   6.096  14.880  1.4859 -0.8956  0.6155
13738TIP3   OH262704   4.145   4.344   2.402 -0.0682  0.1378  0.0958
13738TIP3    H162705   4.082   4.413   2.382 -0.9482 -0.5341  0.4828
13738TIP3    H262706   4.224   4.390   2.429 -0.4907  0.9918 -0.1159
13739TIP3   OH262707   3.441   3.960   4.228 -0.2199 -0.3922  0.3334
13739TIP3    H162708   3.431   4.045   4.184  2.7021  0.3441  0.8657
13739TIP3    H262709   3.534   3.956   4.252 -1.3054 -0.9647  5.9197
13740TIP3   OH262710   6.134   0.111  12.547  0.6064  0.5395 -0.1462
13740TIP3    H162711   6.181   0.094  12.465  1.1522 -1.0095  0.4378
13740TIP3    H262712   6.196   0.083  12.615 -0.9084 -0.9901  0.6735
13741TIP3   OH262713   5.687   0.596   1.085  0.6067  0.6918 -0.2432
13741TIP3    H162714   5.611   0.552   1.046  0.7716 -0.5680  0.7865
13741TIP3    H262715   5.652   0.637   1.164  1.0080 -0.0426  0.3314
13742TIP3   OH262716   5.374   0.050  11.890  0.4380 -0.4868 -0.2407
13742TIP3    H162717   5.280   0.039  11.873  0.7002 -0.3933 -1.9157
13742TIP3    H262718   5.397   0.131  11.844  1.2473 -0.2395  0.5841
13743TIP3   OH262719   6.709   1.123  11.907 -0.5808 -0.0126  0.1203
13743TIP3    H162720   6.774   1.148  11.841  0.2861 -2.7581 -0.1980
13743TIP3    H262721   6.753   1.137  11.991 -0.2653 -0.0881 -0.0296
13744TIP3   OH262722   2.938   0.907   5.739 -0.6024 -0.1236  0.0632
13744TIP3    H162723   2.860   0.930   5.689 -0.0246  2.6359  0.2684
13744TIP3    H262724   3.001   0.976   5.719  1.2086 -1.3515  1.2059
13745TIP3   OH262725   2.308   5.890  11.511  0.4197 -0.6489  0.5399
13745TIP3    H162726   2.320   5.875  11.418  0.3429  0.7261  0.2913
13745TIP3    H262727   2.387   5.936  11.539 -0.3307  0.5787  0.7389
13746TIP3   OH262728   0.381   6.089   5.200  0.0475 -0.0960  0.4953
13746TIP3    H162729   0.340   6.036   5.132 -0.5636 -0.2508  0.9718
13746TIP3    H262730   0.348   6.053   5.282 -0.2201  0.8690  0.8356
13747TIP3   OH262731   4.281   2.200   3.684  0.7131 -0.7683 -0.7092
13747TIP3    H162732   4.347   2.134   3.660 -0.2022 -1.6379 -0.9212
13747TIP3    H262733   4.204   2.148   3.708  0.9206  0.1024  2.1898
13748TIP3   OH262734   6.220   2.473   3.934 -0.2655 -0.1312 -0.3968
13748TIP3    H162735   6.135   2.515   3.947  0.0110  0.1541  0.6220
13748TIP3    H262736   6.260   2.472   4.022  1.3037  0.8768 -1.0522
13749TIP3   OH262737   3.030   0.684   4.539  0.2165 -0.0056  0.4860
13749TIP3    H162738   2.998   0.662   4.626  1.2775  0.5611  1.0324
13749TIP3    H262739   3.005   0.776   4.527 -0.1038 -0.1394  0.1005
13750TIP3   OH262740   3.936   5.039   0.988 -0.1185  0.0875 -0.3656
13750TIP3    H162741   4.026   5.032   0.957 -0.5930 -1.8375 -1.4766
13750TIP3    H262742   3.906   4.948   0.998 -2.4564  0.6262 -1.6541
13751TIP3   OH262743   2.915   5.648   3.902 -0.4437 -0.1337 -0.1654
13751TIP3    H162744   2.955   5.650   3.989  0.1267  1.2801 -0.4188
13751TIP3    H262745   2.835   5.700   3.912 -0.4288 -0.0538 -0.4565
13752TIP3   OH262746   1.998   6.592  16.228  0.6081  0.1023 -0.2171
13752TIP3    H162747   2.086   6.629  16.229  0.5160  0.6531  3.4375
13752TIP3    H262748   2.011   6.498  16.243  0.5871 -0.3594 -2.6913
13753TIP3   OH262749   3.255   1.379   6.198  0.6381  0.6469  0.7741
13753TIP3    H162750   3.233   1.292   6.233 -0.1328  0.4401 -0.2074
13753TIP3    H262751   3.343   1.396   6.232  1.3371 -1.0901 -0.0600
13754TIP3   OH262752   1.398   6.557  12.618  0.3406 -0.1779  0.2386
13754TIP3    H162753   1.309   6.563  12.654  0.2878  0.9740 -0.0760
13754TIP3    H262754   1.455   6.578  12.692  0.2340  2.1276 -0.2772
13755TIP3   OH262755   0.252   0.190   6.250 -0.3473  0.5724 -0.0368
13755TIP3    H162756   0.298   0.106   6.244  0.8560  1.1145  1.0272
13755TIP3    H262757   0.294   0.234   6.323  1.4754  3.5341 -2.6162
13756TIP3   OH262758   1.383   3.160   2.676 -0.3764  0.0934  0.5375
13756TIP3    H162759   1.380   3.185   2.583  0.6416 -1.2513  0.1050
13756TIP3    H262760   1.412   3.238   2.722  2.4591 -0.0972 -0.7117
13757TIP3   OH262761   0.038   5.824  10.360 -0.4355  0.1831 -0.4260
13757TIP3    H162762  -0.020   5.856  10.290 -0.4692 -0.6818 -0.8047
13757TIP3    H262763   0.109   5.888  10.363 -0.9122  0.7378 -0.6054
13758TIP3   OH262764   1.562   2.700  14.002 -0.1830  0.1337 -0.6093
13758TIP3    H162765   1.547   2.793  14.016  0.1422  0.3072 -1.3529
13758TIP3    H262766   1.533   2.658  14.083  1.9490  1.0886  0.7213
13759TIP3   OH262767   5.590   1.579   3.835  0.1322 -0.5702 -0.1620
13759TIP3    H162768   5.658   1.621   3.783  0.0349 -0.4472 -0.1930
13759TIP3    H262769   5.523   1.554   3.771 -0.6627  0.8898  0.0487
13760TIP3   OH262770   0.397   3.353  11.923 -0.3200 -0.0869  0.1611
13760TIP3    H162771   0.306   3.382  11.927 -0.1487  0.8890 -1.7170
13760TIP3    H262772   0.392   3.258  11.937 -1.6957 -0.1292 -0.3686
13761TIP3   OH262773   0.767   5.584  16.021  0.5247  0.3757  0.3509
13761TIP3    H162774   0.826   5.554  15.952 -0.3074 -0.6193  0.0625
13761TIP3    H262775   0.735   5.505  16.063  1.2962  0.9565  2.1692
13762TIP3   OH262776   2.123   0.018  16.675 -0.0995 -0.3982  0.2844
13762TIP3    H162777   2.187  -0.035  16.627 -1.3202 -0.4592 -1.3575
13762TIP3    H262778   2.069  -0.046  16.721 -0.2620 -0.4747 -0.0071
13763TIP3   OH262779   0.983   3.318   0.474 -0.4171  0.1921  0.5537
13763TIP3    H162780   0.889   3.301   0.469 -0.8887  2.2773  1.0144
13763TIP3    H262781   0.996   3.392   0.415  1.7032 -2.3967 -2.5577
13764TIP3   OH262782   0.107   0.543  11.438 -0.2917  0.0398  0.4118
13764TIP3    H162783   0.150   0.587  11.365  0.0841 -0.3471  0.3986
13764TIP3    H262784   0.112   0.450  11.417 -0.4038 -0.0580  0.8075
13765TIP3   OH262785   6.217   6.631   4.833 -0.0308 -1.3266  0.1242
13765TIP3    H162786   6.294   6.632   4.775 -0.1261 -1.8773 -0.0194
13765TIP3    H262787   6.171   6.550   4.810 -0.2760 -1.3570  0.7069
13766TIP3   OH262788   0.476   2.631   0.736  0.8675 -0.1424  0.2866
13766TIP3    H162789   0.430   2.559   0.780 -1.9940  1.2773 -0.0946
13766TIP3    H262790   0.474   2.702   0.800  2.4861  0.0227  0.1820
13767TIP3   OH262791   4.496   1.640  16.217 -0.0962  0.2168  0.0692
13767TIP3    H162792   4.432   1.661  16.286 -0.0291  1.9282 -0.3511
13767TIP3    H262793   4.563   1.707  16.226  1.4158 -1.2434  0.1568
13768TIP3   OH262794   1.615   0.016  15.785  0.3633  0.1589  0.3917
13768TIP3    H162795   1.685  -0.014  15.727  0.0710 -1.5182  0.8443
13768TIP3    H262796   1.644   0.101  15.816  1.2616  0.3778 -0.9662
13769TIP3   OH262797   3.254   3.819  16.646 -0.1210  0.9329 -0.4693
13769TIP3    H162798   3.329   3.878  16.656 -0.2850  1.4754 -2.1522
13769TIP3    H262799   3.240   3.814  16.552 -1.3011 -0.3277 -0.2532
13770TIP3   OH262800   6.203   1.548  17.141 -0.5870  0.5253 -0.9296
13770TIP3    H162801   6.192   1.522  17.049 -1.2591 -1.2705 -0.3924
13770TIP3    H262802   6.116   1.535  17.179  0.4427 -2.3955  0.7643
13771TIP3   OH262803   2.856   1.519   0.031 -0.1439 -0.5493  0.3705
13771TIP3    H162804   2.805   1.463  -0.027  0.4537 -0.1716 -0.5458
13771TIP3    H262805   2.927   1.463   0.063  0.7103 -0.2246 -0.8927
13772TIP3   OH262806   1.784   5.284  16.899 -0.7363 -0.0004 -0.1920
13772TIP3    H162807   1.826   5.260  16.981 -1.5086  2.1490  0.9076
13772TIP3    H262808   1.856   5.294  16.837 -0.0712 -0.8735  0.4167
13773TIP3   OH262809   1.566   1.562  13.379 -0.1840  0.2051 -0.4910
13773TIP3    H162810   1.600   1.572  13.468  0.8061 -1.0959 -0.6907
13773TIP3    H262811   1.476   1.533  13.391 -0.7850  2.1700  0.0550
13774TIP3   OH262812   0.697   4.945  13.644 -0.2050 -0.2625  0.2328
13774TIP3    H162813   0.603   4.934  13.655 -0.2785 -0.0264 -0.1681
13774TIP3    H262814   0.717   5.028  13.686 -0.2496 -0.0858 -0.0941
13775TIP3   OH262815   5.697   3.386  14.129 -0.4175 -0.0147  0.3959
13775TIP3    H162816   5.609   3.422  14.138 -0.0957  1.0790 -0.5948
13775TIP3    H262817   5.684   3.305  14.079 -0.7661  0.6754 -0.6557
13776TIP3   OH262818   3.005   3.197  15.082  0.1382  0.0535 -0.0806
13776TIP3    H162819   3.063   3.121  15.076 -1.6054 -1.5983  2.1299
13776TIP3    H262820   3.043   3.261  15.022  2.1716 -2.2321 -1.4260
13777TIP3   OH262821   2.740   4.541   1.574  0.3904  0.5192  0.0631
13777TIP3    H162822   2.721   4.592   1.653  2.4534 -0.4279  1.2527
13777TIP3    H262823   2.748   4.451   1.606  2.1952  0.2488 -1.0433
13778TIP3   OH262824   4.170   4.260  11.628 -0.2311  0.3872  0.1277
13778TIP3    H162825   4.201   4.242  11.539 -1.2946 -0.1005 -0.1589
13778TIP3    H262826   4.108   4.333  11.618  0.3653  0.9740  0.6131
13779TIP3   OH262827   1.315   1.074  16.646 -0.4992  0.5353 -0.0096
13779TIP3    H162828   1.279   0.986  16.658  0.0975 -0.1506 -2.6020
13779TIP3    H262829   1.404   1.069  16.682 -0.1535 -0.2378 -0.9125
13780TIP3   OH262830   4.667   0.560   2.750 -0.5665  0.2935 -0.4105
13780TIP3    H162831   4.613   0.637   2.764 -1.3467  0.3197 -3.0765
13780TIP3    H262832   4.614   0.487   2.781 -0.4442  0.6562  0.7008
13781TIP3   OH262833   0.730   0.464  10.721  0.3968 -0.1192 -0.3746
13781TIP3    H162834   0.806   0.515  10.749  0.3247 -0.4112  0.4030
13781TIP3    H262835   0.671   0.528  10.682  0.4397  0.3558  0.3087
13782TIP3   OH262836   4.606   1.196   3.487  0.1433  0.4487  0.1263
13782TIP3    H162837   4.591   1.124   3.426 -0.3247 -0.0495  0.8166
13782TIP3    H262838   4.566   1.167   3.569  0.9337  1.0217  0.7337
13783TIP3   OH262839   0.527   5.872  10.834 -0.0088  0.3371  0.2121
13783TIP3    H162840   0.523   5.963  10.804  0.8300  0.2664 -0.1228
13783TIP3    H262841   0.523   5.820  10.753  2.1690  0.1375  0.1909
13784TIP3   OH262842   3.827   0.720  11.774  0.1976 -0.2505  0.3024
13784TIP3    H162843   3.798   0.630  11.791  1.2300 -0.6369  0.0890
13784TIP3    H262844   3.914   0.710  11.734  0.4565  0.8520  0.5656
13785TIP3   OH262845   1.788   2.897  15.551 -0.1455 -0.0805  0.1786
13785TIP3    H162846   1.709   2.926  15.597  0.2100  0.5457  0.4067
13785TIP3    H262847   1.801   2.963  15.483 -0.7378 -1.0620 -0.9126
13786TIP3   OH262848   3.404   2.315   0.732  0.3006 -0.1695 -0.2797
13786TIP3    H162849   3.397   2.259   0.809  1.3160  0.8777  0.6186
13786TIP3    H262850   3.498   2.323   0.716  0.0944 -1.1160 -2.2247
13787TIP3   OH262851   2.081   3.238  16.533  0.0493  0.2715  0.4560
13787TIP3    H162852   2.172   3.251  16.508  0.9456 -3.4503  1.2358
13787TIP3    H262853   2.055   3.321  16.572  2.8046  1.7249 -0.5426
13788TIP3   OH262854   1.553   2.939   1.856 -0.5093  0.3158 -0.4987
13788TIP3    H162855   1.625   2.909   1.801 -0.9335 -1.0993 -0.3346
13788TIP3    H262856   1.594   2.995   1.921  0.6950 -1.4884  0.3933
13789TIP3   OH262857   5.075   1.276  11.611  0.0785  0.3853 -0.2254
13789TIP3    H162858   5.064   1.181  11.600  0.6222  0.3459 -0.4606
13789TIP3    H262859   5.062   1.312  11.523  0.3030  0.4851 -0.2168
13790TIP3   OH262860   5.477   4.786   6.000 -0.8725  0.8331  0.1591
13790TIP3    H162861   5.570   4.765   6.006 -0.6008  1.9781  0.1802
13790TIP3    H262862   5.434   4.718   6.051 -0.0468  0.2899  0.1459
13791TIP3   OH262863   5.375   3.020  15.365 -0.2421 -0.8201  0.2641
13791TIP3    H162864   5.302   3.022  15.427 -0.0926 -2.8723  0.5844
13791TIP3    H262865   5.335   2.998  15.281 -0.2686  0.5893 -0.1218
13792TIP3   OH262866   3.088   0.007   1.667 -0.1383  0.4977  0.4509
13792TIP3    H162867   3.078   0.005   1.572  1.2541 -0.0218  0.2848
13792TIP3    H262868   3.030  -0.063   1.698 -0.6745  0.7315 -0.0038
13793TIP3   OH262869   6.553   3.952   2.905 -0.5163 -0.5918  0.5285
13793TIP3    H162870   6.593   3.877   2.861 -0.9676 -1.6097  1.7779
13793TIP3    H262871   6.542   4.018   2.837 -0.5538 -1.8441 -0.7081
13794TIP3   OH262872   0.495   1.753   5.973 -0.8519  0.1662 -0.5800
13794TIP3    H162873   0.504   1.800   5.890 -0.0442 -0.6365 -0.9606
13794TIP3    H262874   0.504   1.821   6.040 -0.5463  0.6807 -1.1316
13795TIP3   OH262875   1.012   6.768  15.170 -0.0126  0.0667  0.7344
13795TIP3    H162876   1.097   6.763  15.213 -0.0308 -2.5864  0.6523
13795TIP3    H262877   1.027   6.732  15.082 -1.1035  0.0158  0.5460
13796TIP3   OH262878   0.207   5.258  15.482 -0.0946  0.1370 -0.0650
13796TIP3    H162879   0.137   5.267  15.546 -0.2478 -0.6967 -0.1039
13796TIP3    H262880   0.210   5.164  15.463 -1.1553  0.5275 -2.5110
13797TIP3   OH262881   4.636   5.640   5.925 -0.4968  0.2471 -0.1069
13797TIP3    H162882   4.581   5.589   5.865  0.1795  1.0614 -1.4732
13797TIP3    H262883   4.717   5.654   5.876 -0.5758  2.4340  0.2863
13798TIP3   OH262884   0.584   5.990  13.279  0.5237  0.2329 -0.0071
13798TIP3    H162885   0.587   5.930  13.205  0.2403 -0.8031  0.7883
13798TIP3    H262886   0.655   6.053  13.262 -1.2554  1.7454 -2.5232
13799TIP3   OH262887   2.463   3.884   4.632  0.1560  0.2432  1.5050
13799TIP3    H162888   2.440   3.814   4.570 -0.9191  1.6755  0.2067
13799TIP3    H262889   2.379   3.914   4.666  0.6147  0.8863  2.0859
13800TIP3   OH262890   1.734   1.350   1.572  0.8689  0.4068 -0.1544
13800TIP3    H162891   1.728   1.273   1.628 -1.7691  1.6866  1.5630
13800TIP3    H262892   1.805   1.402   1.610  0.5228  0.2650  0.7151
13801TIP3   OH262893   3.154   4.143   0.609  0.4848 -0.1239 -0.4121
13801TIP3    H162894   3.209   4.131   0.687 -1.1104  1.3666  1.0239
13801TIP3    H262895   3.194   4.216   0.562  0.3899  0.2135  0.0260
13802TIP3   OH262896   4.204   6.223  11.940  0.5039  0.2241 -0.3024
13802TIP3    H162897   4.258   6.239  12.017  1.9548  0.6886 -1.3616
13802TIP3    H262898   4.256   6.258  11.867 -0.6794 -0.4766 -1.5267
13803TIP3   OH262899   5.929   5.278  15.575 -0.2184 -0.3328  0.0975
13803TIP3    H162900   5.851   5.313  15.618  0.0783 -0.2606  0.5767
13803TIP3    H262901   5.976   5.355  15.543 -2.0166 -0.4089 -3.2576
13804TIP3   OH262902   3.306   1.720  15.096  0.1757  0.2576 -0.1224
13804TIP3    H162903   3.278   1.687  15.010  1.0776 -0.2635 -0.2356
13804TIP3    H262904   3.337   1.641  15.142  0.3717  0.6429  0.4110
13805TIP3   OH262905   4.155   1.942   0.412  0.6131 -0.4424 -0.1734
13805TIP3    H162906   4.081   1.991   0.448  1.8686  0.6662  1.0344
13805TIP3    H262907   4.162   1.971   0.321 -2.2171 -2.8073 -1.3131
13806TIP3   OH262908   1.755   2.587  13.856 -0.4995 -0.5670  0.3442
13806TIP3    H162909   1.815   2.637  13.801  1.1729 -0.8695  1.7869
13806TIP3    H262910   1.706   2.653  13.905  1.3994 -0.2181  1.9272
13807TIP3   OH262911   5.629   2.372  10.758  0.0352  0.1238  0.0146
13807TIP3    H162912   5.563   2.430  10.796  2.3898  2.4195  0.9306
13807TIP3    H262913   5.637   2.400  10.667 -2.8387 -2.7896 -1.3508
13808TIP3   OH262914   2.881   1.636   5.424 -0.6286 -0.1134  0.3271
13808TIP3    H162915   2.830   1.556   5.416 -1.1976  0.3273 -0.7272
13808TIP3    H262916   2.967   1.613   5.387 -0.8297 -0.2071 -0.0872
13809TIP3   OH262917   1.358   6.727   1.509  0.3206 -1.1955 -0.0977
13809TIP3    H162918   1.360   6.766   1.596 -3.0835 -1.3767  0.1813
13809TIP3    H262919   1.448   6.698   1.494  1.9004  2.1309  1.7494
13810TIP3   OH262920   2.284   1.180  12.572 -0.2822  0.6156 -0.1172
13810TIP3    H162921   2.320   1.268  12.569 -0.6402  0.8603  1.7009
13810TIP3    H262922   2.189   1.193  12.560 -0.2087  0.3245 -1.1605
13811TIP3   OH262923   6.298   1.692  13.867  0.4728  0.1112  0.1890
13811TIP3    H162924   6.339   1.629  13.809 -0.3993 -0.2272 -0.0718
13811TIP3    H262925   6.262   1.640  13.938  1.7276  0.5419  1.1770
13812TIP3   OH262926   3.142   3.402   5.772 -0.6297  0.3579 -0.8766
13812TIP3    H162927   3.106   3.325   5.817 -0.4545 -0.8532 -2.7091
13812TIP3    H262928   3.229   3.374   5.743 -0.0559  1.6993 -0.5139
13813TIP3   OH262929   3.938   6.096  13.100 -0.3064  0.2466  0.7747
13813TIP3    H162930   3.917   6.111  13.192  0.0747 -2.5523  1.4141
13813TIP3    H262931   3.885   6.020  13.076 -0.1078  0.6987 -1.2236
13814TIP3   OH262932   6.772   2.544  15.744 -0.2182 -0.0627  0.3482
13814TIP3    H162933   6.702   2.489  15.707  0.5001 -0.3536 -0.5856
13814TIP3    H262934   6.765   2.627  15.698 -0.3904  0.1612  0.7654
13815TIP3   OH262935   2.344   6.827  12.828 -0.4059  0.8161 -0.0517
13815TIP3    H162936   2.282   6.816  12.757 -1.4392 -0.2417  0.9682
13815TIP3    H262937   2.292   6.865  12.900 -0.1769 -1.0704  1.1690
13816TIP3   OH262938   0.972   2.315   0.458 -0.4792  0.0937  0.0289
13816TIP3    H162939   1.001   2.293   0.547 -0.8504 -1.1236 -0.1369
13816TIP3    H262940   0.956   2.409   0.460 -0.2627  0.1135  1.1892
13817TIP3   OH262941   0.149   1.894  11.012 -0.1587 -0.2669 -0.5446
13817TIP3    H162942   0.163   1.839  10.934 -1.2056  1.8759 -2.3762
13817TIP3    H262943   0.054   1.899  11.021 -0.0638  0.4457  0.1639
13818TIP3   OH262944   4.078   2.178  14.795  0.4307 -0.2824 -0.7553
13818TIP3    H162945   4.168   2.174  14.827  0.5619  2.2827 -0.6182
13818TIP3    H262946   4.077   2.252  14.734 -1.6109 -0.1094 -0.5754
13819TIP3   OH262947   3.997   1.277   4.244 -0.6382 -0.1196 -0.1315
13819TIP3    H162948   4.010   1.296   4.151 -0.0776 -2.0682 -0.5004
13819TIP3    H262949   4.047   1.197   4.259 -1.4589 -0.3479  1.6449
13820TIP3   OH262950   2.326   1.067  15.152 -0.0979 -0.4321 -0.4725
13820TIP3    H162951   2.237   1.094  15.173 -0.9982 -2.0662 -1.9373
13820TIP3    H262952   2.361   1.139  15.099 -0.9397 -0.2708 -0.8210
13821TIP3   OH262953   0.376   3.875  11.785 -0.0052  0.0374 -0.4811
13821TIP3    H162954   0.457   3.877  11.734 -0.0823  2.1360 -0.6226
13821TIP3    H262955   0.310   3.914  11.727 -0.7435 -0.1293  0.2205
13822TIP3   OH262956   0.684   0.100  13.865 -0.2111 -0.0845 -0.0344
13822TIP3    H162957   0.648   0.165  13.804  0.9478  1.2535  0.6585
13822TIP3    H262958   0.618   0.092  13.933 -0.3895  0.3141 -0.1594
13823TIP3   OH262959   5.493   4.451   0.455  0.4556 -0.2607 -0.3391
13823TIP3    H162960   5.441   4.496   0.521  1.0303 -0.0518 -0.0188
13823TIP3    H262961   5.454   4.364   0.449 -1.9668  0.8591 -2.4360
13824TIP3   OH262962   6.774   4.234   4.100 -0.2784 -0.6087 -0.5850
13824TIP3    H162963   6.689   4.261   4.065 -1.0264 -1.8962  0.1565
13824TIP3    H262964   6.755   4.156   4.152  0.8055  0.8905  2.3031
13825TIP3   OH262965   4.421   3.222  15.233  0.1548 -0.3756 -0.3030
13825TIP3    H162966   4.357   3.209  15.303  1.0243 -0.5335  0.4937
13825TIP3    H262967   4.437   3.317  15.232  0.2658 -0.3922 -0.1695
13826TIP3   OH262968   3.751   2.667  16.850  0.6825 -0.1271 -0.4801
13826TIP3    H162969   3.833   2.713  16.869  1.0452 -0.7686 -0.4656
13826TIP3    H262970   3.691   2.696  16.919  0.6107  1.0310 -0.9970
13827TIP3   OH262971   4.657   0.586   5.598 -0.3709 -0.0996 -0.0840
13827TIP3    H162972   4.662   0.511   5.538 -0.9069 -0.4733  0.3314
13827TIP3    H262973   4.642   0.661   5.540  1.7594 -0.0614 -0.6517
13828TIP3   OH262974   2.549   2.216   4.723 -0.2678  0.5212 -0.4636
13828TIP3    H162975   2.571   2.215   4.630  0.5941 -0.4755 -0.2613
13828TIP3    H262976   2.631   2.239   4.767 -0.8352  1.6847  0.0215
13829TIP3   OH262977   3.236   1.469   3.017  0.4730  0.9211 -0.2029
13829TIP3    H162978   3.158   1.480   3.072  0.2689 -1.3567  0.0402
13829TIP3    H262979   3.276   1.556   3.015  0.4051  1.1971  3.4296
13830TIP3   OH262980   4.754   4.745   4.521  0.1484  0.2034 -0.0441
13830TIP3    H162981   4.801   4.715   4.599 -0.9389 -1.0615  0.1666
13830TIP3    H262982   4.769   4.676   4.456 -2.0469 -0.7160  0.3089
13831TIP3   OH262983   1.642   0.561  15.291 -0.4059  0.8319  0.2628
13831TIP3    H162984   1.572   0.528  15.347 -0.6672 -0.1918 -0.6399
13831TIP3    H262985   1.720   0.558  15.347 -0.8922  1.0697  0.9734
13832TIP3   OH262986   4.853   3.505   3.010  0.8025  0.2842 -0.0052
13832TIP3    H162987   4.793   3.432   2.993  0.8861  0.4476 -1.0515
13832TIP3    H262988   4.796   3.581   3.020  0.8279  0.5103 -1.3841
13833TIP3   OH262989   2.616   2.537   1.727 -0.3532  0.0833  0.2117
13833TIP3    H162990   2.663   2.620   1.724 -1.4919  0.7682  0.8409
13833TIP3    H262991   2.633   2.504   1.816 -3.0305  1.5615  1.3758
13834TIP3   OH262992   1.566   2.480   1.456  0.7062 -0.5751  0.5099
13834TIP3    H162993   1.646   2.443   1.420  1.3047 -1.5212  2.6530
13834TIP3    H262994   1.531   2.412   1.513 -2.0379 -0.4613 -0.8476
13835TIP3   OH262995   4.866   2.788   6.657 -0.1169 -0.1678 -0.0905
13835TIP3    H162996   4.871   2.789   6.752  0.1947 -1.0580 -0.0841
13835TIP3    H262997   4.957   2.803   6.629  0.1849 -1.9694 -0.1996
13836TIP3   OH262998   2.790   4.614  11.681 -0.1806 -0.0921  0.0394
13836TIP3    H162999   2.849   4.555  11.729  0.6887 -0.8371 -1.8468
13836TIP3    H263000   2.845   4.690  11.660 -0.9318  0.8374  1.3236
13837TIP3   OH263001   2.183   2.904  15.566 -0.8022  0.1155  0.0715
13837TIP3    H163002   2.221   2.909  15.654  0.1880 -1.4964 -0.2150
13837TIP3    H263003   2.089   2.909  15.579 -0.7666 -2.0316  1.4342
13838TIP3   OH263004   2.621   5.833  15.310 -0.1726  0.4403 -0.3148
13838TIP3    H163005   2.714   5.822  15.288  0.0832 -0.0401  0.8943
13838TIP3    H263006   2.609   5.927  15.317  0.3167  0.4955 -0.1548
13839TIP3   OH263007   4.112   2.789  11.437  0.2348  0.0089  0.7421
13839TIP3    H163008   4.081   2.851  11.503  0.0813  0.7478  0.0016
13839TIP3    H263009   4.208   2.794  11.444  0.2491  1.0498  0.0680
13840TIP3   OH263010   5.649   5.462   4.283 -0.6456 -0.7257  0.5925
13840TIP3    H163011   5.604   5.478   4.366 -1.5166 -0.0714  0.0235
13840TIP3    H263012   5.605   5.521   4.221  0.5442 -0.5821 -0.1491
13841TIP3   OH263013   1.035   1.930   3.094  0.0501  0.0611 -0.2127
13841TIP3    H163014   1.022   1.978   3.176 -1.0860  0.3600 -0.5515
13841TIP3    H263015   1.123   1.955   3.065  0.9004 -0.8461  1.4160
13842TIP3   OH263016   3.390   2.204   6.785  0.4008 -0.1262  0.7137
13842TIP3    H163017   3.385   2.299   6.794  1.1258 -0.2668  4.9839
13842TIP3    H263018   3.299   2.175   6.781  0.0831  0.6760  1.7229
13843TIP3   OH263019   5.527   1.772   4.030 -0.1223 -0.0426  0.0945
13843TIP3    H163020   5.439   1.764   3.995  0.6448 -1.1330 -1.7162
13843TIP3    H263021   5.578   1.707   3.983  1.7057  0.6823  0.9582
13844TIP3   OH263022   2.282   2.620  14.629  0.4383 -0.3871 -0.5335
13844TIP3    H163023   2.188   2.630  14.641  0.4817  1.1036 -1.2301
13844TIP3    H263024   2.303   2.537  14.674 -0.9262  0.0294  0.9910
13845TIP3   OH263025   6.683   4.689   3.405  0.2618  0.8055 -0.3885
13845TIP3    H163026   6.591   4.667   3.415  0.6972 -0.9528  0.0877
13845TIP3    H263027   6.714   4.632   3.335  1.5480 -0.5197  1.1928
13846TIP3   OH263028   0.917   1.925  17.092 -0.7420  0.5175  0.6887
13846TIP3    H163029   0.828   1.890  17.092 -1.8430  2.5846 -3.7100
13846TIP3    H263030   0.961   1.881  17.020  0.7821  1.7076  0.8172
13847TIP3   OH263031   3.797   5.278  14.133  0.8385 -0.8561  0.0550
13847TIP3    H163032   3.840   5.195  14.155 -0.1974 -1.0312  1.6153
13847TIP3    H263033   3.745   5.298  14.211 -2.1700 -0.8092 -1.8485
13848TIP3   OH263034   0.844   2.418   1.668 -0.0389 -0.1360 -0.0661
13848TIP3    H163035   0.810   2.501   1.636 -1.7451 -0.9071 -0.3431
13848TIP3    H263036   0.816   2.413   1.759 -1.2929 -1.0681 -0.4767
13849TIP3   OH263037   5.413   3.815  12.853  0.1324  0.5979 -0.2136
13849TIP3    H163038   5.377   3.800  12.941  0.9032 -1.3748 -0.1975
13849TIP3    H263039   5.340   3.799  12.794  0.0301  0.2785 -0.0046
13850TIP3   OH263040   0.196   4.819  13.381  0.0702  0.2486 -0.2358
13850TIP3    H163041   0.228   4.735  13.348  2.6289 -0.2596  3.0305
13850TIP3    H263042   0.260   4.883  13.349 -0.6496  0.6635 -0.8883
13851TIP3   OH263043   3.765   2.208   6.677 -0.2892  0.1282  0.0883
13851TIP3    H163044   3.724   2.289   6.709  2.1829  0.7375  2.0444
13851TIP3    H263045   3.692   2.146   6.669 -1.7385  1.3149  2.6720
13852TIP3   OH263046   0.750   3.289   2.852  0.0926 -0.3508 -0.0975
13852TIP3    H163047   0.840   3.261   2.832 -0.3127 -1.0872 -0.9864
13852TIP3    H263048   0.705   3.208   2.878 -0.0059  0.2161  1.5987
13853TIP3   OH263049   6.157   0.230  12.943  0.1229 -0.0644  0.3893
13853TIP3    H163050   6.233   0.285  12.962  1.2731 -1.5318  0.1708
13853TIP3    H263051   6.191   0.141  12.943 -0.5035 -0.5723 -4.4537
13854TIP3   OH263052   3.324   5.078  12.863 -0.3106 -0.8556  0.5058
13854TIP3    H163053   3.267   5.005  12.887  0.1270 -0.9241  1.3994
13854TIP3    H263054   3.300   5.148  12.924 -1.9712  0.4063 -1.4791
13855TIP3   OH263055   6.494   4.724  12.997 -0.7685 -0.0013 -0.2743
13855TIP3    H163056   6.551   4.684  13.063  0.0520  2.5924  0.7623
13855TIP3    H263057   6.416   4.670  12.996  0.6646 -2.2130  0.1453
13856TIP3   OH263058   4.923   1.045  13.508 -0.5290 -0.3726  0.0938
13856TIP3    H163059   4.981   1.007  13.443  1.6362  0.5810  1.3675
13856TIP3    H263060   4.979   1.100  13.563 -2.2270 -1.0065  2.7034
13857TIP3   OH263061   3.310   2.372   2.020 -0.2236  0.0235  0.0368
13857TIP3    H163062   3.219   2.379   1.990 -0.0213 -0.4814 -0.7284
13857TIP3    H263063   3.332   2.460   2.051 -0.5559  0.5010 -1.0096
13858TIP3   OH263064   3.675   3.545   4.145 -0.7288 -0.2382  0.2699
13858TIP3    H163065   3.769   3.530   4.140 -0.3980  0.7339  2.4947
13858TIP3    H263066   3.639   3.462   4.175 -0.5629 -0.5073 -0.2555
13859TIP3   OH263067   3.908   3.837   5.299  0.0461  0.1595 -0.2892
13859TIP3    H163068   3.827   3.880   5.271  0.3208 -0.3634 -2.0351
13859TIP3    H263069   3.960   3.907   5.338 -0.5127  0.8820 -0.7999
13860TIP3   OH263070   3.032   4.349   1.864  0.4778  0.1637  0.5849
13860TIP3    H163071   3.104   4.412   1.865  1.4937 -0.8144 -2.1521
13860TIP3    H263072   3.075   4.264   1.876 -0.3759 -0.3373  0.1793
13861TIP3   OH263073   0.086   4.653   0.075 -0.3094  0.2240 -0.1372
13861TIP3    H163074   0.158   4.599   0.109 -0.3372  0.2141 -0.0945
13861TIP3    H263075   0.122   4.741   0.070 -0.8411  0.5745  1.5745
13862TIP3   OH263076   1.659   2.343  15.271  0.0542  0.1414 -0.3159
13862TIP3    H163077   1.629   2.434  15.272  1.4669  0.6304  0.1400
13862TIP3    H263078   1.697   2.332  15.183  0.1404  0.0805 -0.2714
13863TIP3   OH263079   6.545   2.467  11.533 -0.2417  0.5448 -0.2561
13863TIP3    H163080   6.563   2.556  11.564 -3.4102  1.2965 -0.2157
13863TIP3    H263081   6.508   2.422  11.609  0.5200 -0.5980 -0.5228
13864TIP3   OH263082   3.766   4.668  15.886 -0.0248  0.0629 -0.5251
13864TIP3    H163083   3.785   4.576  15.869 -1.6463 -0.4230  0.0333
13864TIP3    H263084   3.670   4.671  15.892  0.0742  1.0750  2.9828
13865TIP3   OH263085   0.096   4.979  14.172 -0.4534  0.2948 -0.5997
13865TIP3    H163086   0.138   5.042  14.231 -2.2519 -0.4065  1.5747
13865TIP3    H263087   0.008   5.014  14.157 -0.7256 -0.6005 -1.1740
13866TIP3   OH263088   0.443   3.539  13.300 -0.2808  0.5248 -0.0390
13866TIP3    H163089   0.413   3.462  13.252  0.8275  0.8460 -1.3044
13866TIP3    H263090   0.389   3.610  13.268 -0.7021  0.4426  0.4742
13867TIP3   OH263091   5.471   0.001  14.583 -0.3396  0.4322 -0.2979
13867TIP3    H163092   5.385  -0.030  14.555 -0.3464 -2.1452  2.1005
13867TIP3    H263093   5.460   0.024  14.675  1.6160 -0.5948  0.2614
13868TIP3   OH263094   0.200   3.261  11.202 -0.3632  0.6036 -0.2265
13868TIP3    H163095   0.151   3.198  11.254  0.4394  0.2435  0.1045
13868TIP3    H263096   0.135   3.324  11.173 -0.7223  1.2533  1.8461
13869TIP3   OH263097   5.011   1.735  11.581  0.4846 -0.3170  0.1025
13869TIP3    H163098   4.957   1.777  11.649  1.7427 -0.8185  1.4519
13869TIP3    H263099   4.982   1.777  11.500 -0.1280  1.2922  1.0855
13870TIP3   OH263100   4.666   1.635  11.837  0.3257 -0.1283  0.3508
13870TIP3    H163101   4.641   1.633  11.745  1.2283  2.5528 -0.0395
13870TIP3    H263102   4.761   1.623  11.837  0.5827  1.6653  0.7221
13871TIP3   OH263103   5.753   4.540  14.924  0.5244  0.5022  0.2686
13871TIP3    H163104   5.688   4.473  14.906 -0.7193  1.5550  0.6763
13871TIP3    H263105   5.741   4.605  14.855  1.6866  0.3525 -0.0986
13872TIP3   OH263106   1.083   3.922  12.822 -0.4332 -0.8753  0.1642
13872TIP3    H163107   1.037   3.995  12.780 -0.8905 -1.8726 -1.1046
13872TIP3    H263108   1.174   3.933  12.795 -0.3533 -0.3186  0.6438
13873TIP3   OH263109   0.440   0.911  15.791 -0.4562  0.1617  0.0306
13873TIP3    H163110   0.490   0.992  15.785 -1.5611  0.7504 -3.1901
13873TIP3    H263111   0.350   0.939  15.806 -0.4700 -0.7103  1.9786
13874TIP3   OH263112   0.756   0.813  11.864 -0.0606 -0.5487 -0.5047
13874TIP3    H163113   0.776   0.778  11.777 -1.5322 -2.8594  0.0030
13874TIP3    H263114   0.831   0.788  11.918  0.6886  0.5721 -0.9992
13875TIP3   OH263115   5.839   6.314   1.335  0.4034 -0.2990 -0.6367
13875TIP3    H163116   5.761   6.323   1.280 -0.4007  2.2574  0.7649
13875TIP3    H263117   5.896   6.385   1.305  1.9392 -1.7067 -1.1614
13876TIP3   OH263118   0.546   3.095  13.837  0.3689  0.3021 -0.2383
13876TIP3    H163119   0.613   3.046  13.885  2.6956  2.4149 -1.0653
13876TIP3    H263120   0.489   3.130  13.906  0.1514 -1.4529  0.5125
13877TIP3   OH263121   3.129   0.706  15.039  0.4686 -0.5202 -0.2695
13877TIP3    H163122   3.122   0.611  15.038  1.1109 -0.5670 -0.8336
13877TIP3    H263123   3.059   0.736  14.981 -0.4965 -0.5737  0.8104
13878TIP3   OH263124   3.231   2.701  15.789  0.1176  0.3401  0.5620
13878TIP3    H163125   3.151   2.753  15.791  1.3781  2.3949 -0.0896
13878TIP3    H263126   3.244   2.674  15.881 -1.9478 -1.1677  0.4886
13879TIP3   OH263127   0.193   4.587  11.104 -0.2275  0.3650  0.1074
13879TIP3    H163128   0.129   4.641  11.150  0.3192  2.0646 -1.0234
13879TIP3    H263129   0.270   4.587  11.162  0.3574  2.2523 -0.5926
13880TIP3   OH263130   5.748   2.760   2.185 -0.1125  0.2815  0.5101
13880TIP3    H163131   5.810   2.702   2.142 -0.3958  0.2292  0.1713
13880TIP3    H263132   5.752   2.735   2.278  1.7469  1.5175  0.8161
13881TIP3   OH263133   3.426   5.522   3.446  0.6973 -0.3057  0.0338
13881TIP3    H163134   3.471   5.530   3.530 -0.6299  0.0869  0.7376
13881TIP3    H263135   3.335   5.505   3.470  0.1950  0.3831 -1.3287
13882TIP3   OH263136   1.892   2.943   4.053 -0.4997 -0.1060  0.1434
13882TIP3    H163137   1.803   2.978   4.047 -0.6261 -0.5637 -0.7501
13882TIP3    H263138   1.941   2.992   3.987 -0.3233 -0.5695 -0.0677
13883TIP3   OH263139   3.482   4.906  16.183 -0.1678  0.2383 -0.1922
13883TIP3    H163140   3.405   4.958  16.161 -2.1192 -2.1658  0.6070
13883TIP3    H263141   3.530   4.961  16.245 -1.9440  1.2415  0.3647
13884TIP3   OH263142   6.711   3.573   3.515 -0.0804 -0.3115 -1.2158
13884TIP3    H163143   6.720   3.658   3.473  0.3075 -0.5675 -1.6671
13884TIP3    H263144   6.758   3.512   3.457 -2.1403 -1.1982 -2.0489
13885TIP3   OH263145   3.655   1.536   5.073 -0.1815  0.5667  0.1742
13885TIP3    H163146   3.666   1.615   5.020  0.5746  0.8790  0.7692
13885TIP3    H263147   3.577   1.555   5.126  0.9132  1.6465  1.4974
13886TIP3   OH263148   1.541   6.649  12.409  0.4083 -0.3597  0.0462
13886TIP3    H163149   1.525   6.597  12.330 -0.2230  0.4373 -0.3697
13886TIP3    H263150   1.498   6.601  12.479 -1.0578  0.1073 -0.5086
13887TIP3   OH263151   2.924   6.184   2.007  0.0723  0.3517  0.0921
13887TIP3    H163152   3.016   6.172   2.031 -0.0561 -0.4646  0.1897
13887TIP3    H263153   2.875   6.136   2.074 -0.5661  2.6700  1.4022
13888TIP3   OH263154   1.057   2.423  14.420 -0.5898 -0.1267 -0.2663
13888TIP3    H163155   1.039   2.462  14.506 -3.2530 -0.0719 -0.7579
13888TIP3    H263156   1.148   2.447  14.402  0.0990 -0.1962  2.5297
13889TIP3   OH263157   5.005   2.100   5.620 -0.4650  1.1139 -0.3116
13889TIP3    H163158   5.043   2.064   5.700  0.6027  1.8997 -0.4352
13889TIP3    H263159   5.054   2.058   5.550 -0.7654  1.1151 -0.5214
13890TIP3   OH263160   4.914   4.166  17.115  0.2868 -0.0748 -1.2250
13890TIP3    H163161   4.983   4.104  17.138  0.3023 -0.0451 -1.1909
13890TIP3    H263162   4.959   4.243  17.082  0.2534 -0.2347 -1.6422
13891TIP3   OH263163   5.663   1.746  14.060 -0.2141  0.2208  0.3368
13891TIP3    H163164   5.582   1.717  14.017 -1.3105  1.6966  1.2841
13891TIP3    H263165   5.692   1.821  14.008  0.3582 -0.0916  0.2046
13892TIP3   OH263166   5.311   1.282   1.034  0.2274 -0.1331  0.1376
13892TIP3    H163167   5.224   1.281   0.994 -0.4805 -1.6845  1.6055
13892TIP3    H263168   5.310   1.359   1.090 -0.5828 -0.6615  0.8774
13893TIP3   OH263169   4.459   0.873  10.642  0.3983 -0.3626 -0.7316
13893TIP3    H163170   4.521   0.927  10.593  3.7986 -0.6786  2.6994
13893TIP3    H263171   4.476   0.895  10.734 -3.6153 -1.6913  0.5411
13894TIP3   OH263172   2.100   6.228   6.067  0.0575 -0.0064  0.2371
13894TIP3    H163173   2.067   6.273   6.144 -0.2415 -0.1256  0.1816
13894TIP3    H263174   2.022   6.208   6.015  0.2630  0.1667 -0.1450
13895TIP3   OH263175   4.758   3.085   0.681  0.0003  0.2606  0.3995
13895TIP3    H163176   4.851   3.064   0.688  0.0259  0.7836  1.9859
13895TIP3    H263177   4.756   3.180   0.670 -0.3123  0.0872 -1.3247
13896TIP3   OH263178   0.116   0.283   5.231  0.0532 -0.2580 -0.0808
13896TIP3    H163179   0.173   0.277   5.307 -0.0816 -0.8340 -0.0166
13896TIP3    H263180   0.097   0.376   5.222  0.9872 -0.0593 -0.0949
13897TIP3   OH263181   2.702   4.034  13.567  0.0478  0.2220 -0.7163
13897TIP3    H163182   2.757   3.960  13.591 -0.4114 -0.6805 -2.3200
13897TIP3    H263183   2.651   4.003  13.492 -0.8051  1.8698 -0.8623
13898TIP3   OH263184   3.277   1.269   4.579  0.0149 -1.0851  0.6869
13898TIP3    H163185   3.194   1.280   4.533  0.2226  0.2135  0.5906
13898TIP3    H263186   3.253   1.231   4.664 -0.7209 -0.3394  0.8209
13899TIP3   OH263187   2.591   0.365   1.297 -0.0327 -0.5311  0.2467
13899TIP3    H163188   2.543   0.389   1.377 -1.4206  0.0263 -0.7086
13899TIP3    H263189   2.655   0.301   1.326 -0.5540 -0.4027  1.7977
13900TIP3   OH263190   5.230   0.443   6.327 -0.3434  0.0956 -0.2156
13900TIP3    H163191   5.166   0.477   6.389 -1.5111 -0.4905 -1.0669
13900TIP3    H263192   5.243   0.352   6.353 -1.8324 -0.5508 -1.5577
13901TIP3   OH263193   2.687   1.666   0.964  0.3060  0.3210 -0.3789
13901TIP3    H163194   2.649   1.665   0.876  0.8351 -1.4532 -0.6144
13901TIP3    H263195   2.614   1.646   1.022 -0.4082  3.0385 -0.1844
13902TIP3   OH263196   5.290   2.791   5.423  1.1458 -0.2034  0.3361
13902TIP3    H163197   5.285   2.804   5.328  1.7493  0.5829  0.4000
13902TIP3    H263198   5.346   2.714   5.432 -0.4716 -1.4814  0.0219
13903TIP3   OH263199   5.886   4.002  13.550 -0.1200 -0.4034 -0.2194
13903TIP3    H163200   5.910   3.956  13.470 -0.7714 -0.8410 -0.1711
13903TIP3    H263201   5.966   4.048  13.577 -0.0236  0.1506 -1.3792
13904TIP3   OH263202   4.568   4.896   4.002  0.4158  0.8173 -0.2958
13904TIP3    H163203   4.589   4.972   3.948  0.4702  1.6923  0.9002
13904TIP3    H263204   4.653   4.861   4.028  0.3902  0.3672 -0.8104
13905TIP3   OH263205   1.339   3.464   4.301 -0.6199 -0.0801  0.3250
13905TIP3    H163206   1.297   3.423   4.225  1.2715 -0.9299 -0.3138
13905TIP3    H263207   1.405   3.522   4.263  1.0215 -1.2373  1.2901
13906TIP3   OH263208   5.542   2.956  13.132 -0.1437 -0.0517 -0.3704
13906TIP3    H163209   5.481   3.014  13.178 -1.3384 -0.5421 -1.2729
13906TIP3    H263210   5.540   2.987  13.041  0.3298 -0.6011 -0.5725
13907TIP3   OH263211   4.170   0.436   5.234 -0.1006  0.3377  0.4252
13907TIP3    H163212   4.138   0.473   5.151  1.3943  2.5308  0.7349
13907TIP3    H263213   4.247   0.384   5.208 -0.6932 -0.4846  0.2717
13908TIP3   OH263214   0.260   3.152  10.536 -0.1303 -0.4446 -0.5529
13908TIP3    H163215   0.261   3.219  10.467 -1.6102  0.8776  0.6485
13908TIP3    H263216   0.306   3.193  10.609  1.9181 -2.0434 -0.8446
13909TIP3   OH263217   0.104   2.643  11.389  0.1539  0.6697  0.1696
13909TIP3    H163218   0.060   2.728  11.399 -2.4117 -0.2544 -2.0977
13909TIP3    H263219   0.144   2.648  11.302  0.3114 -0.3297  0.1830
13910TIP3   OH263220   5.193   5.032   1.720  0.5384  0.2741 -0.0849
13910TIP3    H163221   5.172   5.125   1.728  1.5374  0.7466 -2.3575
13910TIP3    H263222   5.286   5.030   1.701  0.2060 -1.0634 -1.8023
13911TIP3   OH263223   5.673   0.401  13.835 -0.3896  0.3096  0.0886
13911TIP3    H163224   5.712   0.343  13.770 -0.7648  0.1238  0.0235
13911TIP3    H263225   5.662   0.484  13.790 -1.1756  0.0221 -0.2749
13912TIP3   OH263226   4.559   2.399   2.958  0.0210  0.7652  0.5642
13912TIP3    H163227   4.484   2.415   3.016  0.5316  1.2659  1.0984
13912TIP3    H263228   4.566   2.303   2.954 -0.7025  0.7092  0.4258
13913TIP3   OH263229   2.675   5.735   3.602  0.3192  0.0741 -0.7442
13913TIP3    H163230   2.612   5.676   3.562 -0.1491  0.9556 -1.3470
13913TIP3    H263231   2.633   5.821   3.596  0.6431  0.3659  0.8001
13914TIP3   OH263232   4.050   4.582   1.472  0.3664 -0.2427  0.0800
13914TIP3    H163233   4.086   4.670   1.470 -1.0633  0.3639 -0.4622
13914TIP3    H263234   4.046   4.555   1.380 -0.4233 -0.3280  0.1261
13915TIP3   OH263235   6.671   4.187  11.047 -0.2855 -0.1620  0.1809
13915TIP3    H163236   6.649   4.255  10.984  0.0871  0.9740  1.2256
13915TIP3    H263237   6.753   4.216  11.086 -0.1223 -1.2164  0.6630
13916TIP3   OH263238   5.166   1.417   3.820 -0.4995 -0.1052  0.3952
13916TIP3    H163239   5.120   1.485   3.870 -1.0307 -0.2138  0.0630
13916TIP3    H263240   5.246   1.401   3.870  2.3806  4.4186 -2.0977
13917TIP3   OH263241   0.505   4.505   5.410 -0.2396  0.4699  0.0097
13917TIP3    H163242   0.562   4.448   5.462  1.5949  0.9802 -1.3392
13917TIP3    H263243   0.555   4.586   5.402 -0.7299  0.5969 -2.0264
13918TIP3   OH263244   0.207   5.590  14.168  0.9307  0.1495  1.0270
13918TIP3    H163245   0.283   5.625  14.121  0.4649  0.2439  0.3374
13918TIP3    H263246   0.168   5.527  14.108 -0.5234  1.3407  0.6706
13919TIP3   OH263247   3.027   6.151   3.690 -0.2230 -0.5809  0.4021
13919TIP3    H163248   3.112   6.121   3.725 -0.9069 -2.8088  0.3329
13919TIP3    H263249   3.030   6.128   3.597  0.5847  3.0110 -0.6076
13920TIP3   OH263250   5.206   5.827  12.145  0.2049 -0.5184  0.0336
13920TIP3    H163251   5.211   5.911  12.099  1.6508  0.0012  1.0786
13920TIP3    H263252   5.218   5.849  12.237  0.9959 -1.9139  0.2854
13921TIP3   OH263253   4.335   4.721   4.099 -0.1398 -0.0870  0.3753
13921TIP3    H163254   4.406   4.783   4.082 -0.8509  0.2490 -1.6657
13921TIP3    H263255   4.375   4.654   4.154  1.3271  0.9073  0.5849
13922TIP3   OH263256   5.272   3.386   5.214  0.2576 -0.3928 -0.6082
13922TIP3    H163257   5.363   3.360   5.198  0.4773 -0.1448  0.1676
13922TIP3    H263258   5.243   3.330   5.286  0.3511  0.6518  0.2731
13923TIP3   OH263259   5.773   5.808   2.628 -0.1553  0.0181 -0.6105
13923TIP3    H163260   5.864   5.835   2.617  0.3329 -1.2417  0.1860
13923TIP3    H263261   5.775   5.713   2.621 -1.8246  0.0895 -3.2501
13924TIP3   OH263262   0.810   2.079   5.705  0.3502 -0.5547  0.1515
13924TIP3    H163263   0.756   2.075   5.784  1.2979 -0.2496  0.8345
13924TIP3    H263264   0.816   1.989   5.675 -1.0580 -0.5209 -0.3138
13925TIP3   OH263265   1.343   1.399   1.661  0.3238  0.9994 -0.1921
13925TIP3    H163266   1.343   1.443   1.747 -0.0523 -1.5771  1.2244
13925TIP3    H263267   1.363   1.308   1.681 -0.0452  0.2655 -2.8599
13926TIP3   OH263268   2.859   2.566  12.286  0.1367 -0.5047  0.3604
13926TIP3    H163269   2.872   2.493  12.346  0.1750 -0.6301  0.1991
13926TIP3    H263270   2.889   2.533  12.201 -1.8771 -1.0498 -0.1828
13927TIP3   OH263271   1.247   1.052   2.920  0.4248 -0.2639  0.5036
13927TIP3    H163272   1.286   0.969   2.947  1.3389  0.4451  1.4561
13927TIP3    H263273   1.183   1.072   2.989  0.8550  0.2521  0.7631
13928TIP3   OH263274   2.744   5.793   0.526 -0.3316  0.1895 -0.0435
13928TIP3    H163275   2.688   5.742   0.585 -1.6113  1.4539 -0.1241
13928TIP3    H263276   2.699   5.876   0.515  1.5781  1.2804 -0.1310
13929TIP3   OH263277   6.435   3.976  14.939 -0.1088  0.0717  0.3032
13929TIP3    H163278   6.417   3.932  14.855  5.2025 -1.0870 -0.6296
13929TIP3    H263279   6.368   3.943  14.998 -2.4263 -1.2894 -2.7703
13930TIP3   OH263280   3.461   6.011  13.864 -0.1829  0.4309 -0.4135
13930TIP3    H163281   3.550   6.047  13.865  0.3808 -0.8636  1.3714
13930TIP3    H263282   3.405   6.089  13.859  1.0264  1.4292  0.6454
13931TIP3   OH263283   3.146   1.731  11.831  0.4392  0.3622  0.4750
13931TIP3    H163284   3.203   1.698  11.761 -1.2194 -0.7183 -0.4197
13931TIP3    H263285   3.117   1.652  11.877  0.0718  0.9386  1.2462
13932TIP3   OH263286   6.068   3.262  12.557 -0.3029  0.3218  0.1079
13932TIP3    H163287   6.082   3.349  12.518  1.9587 -0.5788 -1.3118
13932TIP3    H263288   6.148   3.245  12.606 -0.5725 -1.0889  0.0955
13933TIP3   OH263289   3.686   1.106  11.314  0.1967 -0.4764  0.0253
13933TIP3    H163290   3.653   1.195  11.324 -0.7620 -0.8934  0.7104
13933TIP3    H263291   3.692   1.093  11.220 -2.6622 -0.7372 -0.2161
13934TIP3   OH263292   2.929   1.560  15.277  0.0448  0.1615 -0.0667
13934TIP3    H163293   2.990   1.633  15.269 -0.1787  0.5667  1.5705
13934TIP3    H263294   2.979   1.483  15.249  1.1463  0.5627  0.7633
13935TIP3   OH263295   6.426   3.736   2.755  0.3680 -0.2642 -0.6343
13935TIP3    H163296   6.374   3.801   2.803  0.5799 -0.5652  0.0068
13935TIP3    H263297   6.374   3.656   2.760  0.1643 -0.1810 -1.3241
13936TIP3   OH263298   5.048   0.553  17.196  0.6694 -0.3073 -0.5277
13936TIP3    H163299   5.095   0.609  17.257  1.2771  0.6216 -1.8130
13936TIP3    H263300   4.994   0.612  17.145 -0.1484 -1.1179 -0.6265
13937TIP3   OH263301   0.343   6.616   2.375  0.1359  0.1934 -0.5892
13937TIP3    H163302   0.278   6.555   2.340  0.3508 -1.2658  1.3765
13937TIP3    H263303   0.354   6.589   2.466  1.0027  2.5755  0.0829
13938TIP3   OH263304   4.519   3.682   4.123  0.3165  0.3813  0.5546
13938TIP3    H163305   4.581   3.626   4.170  1.1322 -0.7414 -1.7134
13938TIP3    H263306   4.489   3.745   4.189  0.9500 -1.4095  2.7003
13939TIP3   OH263307   2.584   6.551   3.036 -0.1184  0.4185  0.4726
13939TIP3    H163308   2.509   6.606   3.015 -0.7956  0.1711  2.0979
13939TIP3    H263309   2.552   6.462   3.027  0.2132  0.3062  0.3863
13940TIP3   OH263310   1.409   2.973  16.406  0.4167 -0.0591 -0.2753
13940TIP3    H163311   1.461   2.892  16.400 -1.9792 -2.0892  2.9130
13940TIP3    H263312   1.321   2.946  16.382 -0.7033  1.2450  2.0882
13941TIP3   OH263313   6.527   6.731  12.217  0.0700 -1.1748  0.4863
13941TIP3    H163314   6.494   6.716  12.129  0.8068  1.4875 -0.3430
13941TIP3    H263315   6.457   6.780  12.261  0.2661 -1.2984  0.9448
13942TIP3   OH263316   4.744   0.913   2.469 -0.1930  0.0409  0.3488
13942TIP3    H163317   4.654   0.915   2.437  0.3279  0.6972 -1.1599
13942TIP3    H263318   4.764   0.820   2.477 -1.3365 -0.1218  1.7738
13943TIP3   OH263319   1.179   2.799   1.892  0.3231  0.0640 -0.1961
13943TIP3    H163320   1.159   2.747   1.970 -1.0524 -1.3454 -1.4381
13943TIP3    H263321   1.189   2.888   1.926 -1.1848 -0.3366  1.4828
13944TIP3   OH263322   2.240   5.648  15.650  0.0547 -0.6166 -0.1189
13944TIP3    H163323   2.254   5.634  15.557 -0.1412 -2.7605  0.1202
13944TIP3    H263324   2.168   5.710  15.656 -0.8637 -1.5249 -1.4104
13945TIP3   OH263325   2.226   5.178   2.763  0.2506 -0.2942 -0.4595
13945TIP3    H163326   2.134   5.171   2.788  0.7491 -2.0038  1.0974
13945TIP3    H263327   2.227   5.161   2.669 -0.9009 -1.6247 -0.2558
13946TIP3   OH263328   3.850   5.446  16.921 -0.9304 -0.1741  0.3771
13946TIP3    H163329   3.768   5.424  16.877 -0.3605  1.2568 -1.5465
13946TIP3    H263330   3.839   5.414  17.011 -3.1645 -0.9381 -0.1143
13947TIP3   OH263331   3.515   2.988  16.451 -0.0689  0.0501 -0.4822
13947TIP3    H163332   3.479   3.072  16.423  1.3252  0.4609 -1.1018
13947TIP3    H263333   3.486   2.926  16.383 -0.4652  0.1703 -0.4236
13948TIP3   OH263334   5.017   6.768   2.380 -0.0561 -0.7077 -0.0108
13948TIP3    H163335   5.098   6.764   2.331  0.1299 -1.2832  0.3296
13948TIP3    H263336   5.040   6.813   2.462  0.1340 -1.6390  0.4652
13949TIP3   OH263337   4.222   2.404   2.416 -0.3493 -0.3057 -0.3192
13949TIP3    H163338   4.155   2.362   2.470  0.1831  0.2000  0.7662
13949TIP3    H263339   4.263   2.332   2.368 -0.2162 -0.8797  0.6439
13950TIP3   OH263340   1.549   1.570  17.005 -0.3797 -0.0390  0.1661
13950TIP3    H163341   1.559   1.579  16.910 -1.3018 -0.4790  0.0254
13950TIP3    H263342   1.619   1.510  17.031 -0.0985  0.1151 -0.2275
13951TIP3   OH263343   0.339   3.174  14.009 -0.0753  0.4591  0.8303
13951TIP3    H163344   0.287   3.221  14.073 -0.8446 -0.2670  0.7546
13951TIP3    H263345   0.357   3.089  14.050 -0.6558 -0.0503  0.0615
13952TIP3   OH263346   6.647   5.399   5.050 -0.4574 -0.0452 -0.1729
13952TIP3    H163347   6.607   5.372   4.967  0.5118 -0.9742 -0.3510
13952TIP3    H263348   6.741   5.396   5.034 -0.2637  1.7817  0.3508
13953TIP3   OH263349   1.188   0.575  17.151  0.3135  0.1445 -0.5766
13953TIP3    H163350   1.183   0.566  17.247 -0.2585  2.0585 -0.3815
13953TIP3    H263351   1.131   0.505  17.118  0.9297 -0.8721  0.4532
13954TIP3   OH263352   2.638   3.804  14.492 -0.0674 -0.0021 -0.4230
13954TIP3    H163353   2.556   3.837  14.455  0.4689  1.2088 -0.5742
13954TIP3    H263354   2.637   3.833  14.583  0.4973  0.6158 -0.6068
13955TIP3   OH263355   4.330   5.515  17.181  0.0306  0.2420 -0.3662
13955TIP3    H163356   4.248   5.509  17.230 -0.0268 -1.2165 -0.6070
13955TIP3    H263357   4.303   5.512  17.089  0.1731  2.5015 -0.5345
13956TIP3   OH263358   0.027   0.822   0.190 -0.2860 -0.7220  0.4188
13956TIP3    H163359  -0.033   0.897   0.193  0.3220 -0.1980 -0.1821
13956TIP3    H263360  -0.006   0.762   0.257 -2.1327 -0.9522 -0.6232
13957TIP3   OH263361   4.294   3.002  13.172  0.0918 -0.5007  0.1129
13957TIP3    H163362   4.208   3.013  13.213 -0.7907 -0.9407 -1.5269
13957TIP3    H263363   4.300   2.908  13.153  2.7024 -1.2996  3.7562
13958TIP3   OH263364   6.154   0.186   3.416  0.1779  0.0915  0.0330
13958TIP3    H163365   6.221   0.151   3.357 -1.9177 -1.5198 -1.5486
13958TIP3    H263366   6.144   0.120   3.484  1.4028  1.1767  1.3296
13959TIP3   OH263367   3.346   0.160  15.795  0.4342 -0.0745 -0.5150
13959TIP3    H163368   3.410   0.130  15.859  0.6742  0.2040 -0.6223
13959TIP3    H263369   3.326   0.083  15.743  2.6711  0.3665 -2.1877
13960TIP3   OH263370   0.374   5.025  14.504 -0.1171  0.6013 -0.5686
13960TIP3    H163371   0.363   4.960  14.435 -0.4029 -1.2295  1.1134
13960TIP3    H263372   0.293   5.076  14.503 -1.5229 -1.5185  0.4809
13961TIP3   OH263373   5.577   6.104   1.584  0.1994  0.0693  0.5872
13961TIP3    H163374   5.537   6.038   1.642  0.6455 -0.0523  0.7581
13961TIP3    H263375   5.660   6.065   1.557  0.0841  0.2127  0.0206
13962TIP3   OH263376   1.105   5.083  10.606 -0.3093 -0.0296 -0.8892
13962TIP3    H163377   1.058   5.164  10.587 -2.6853 -0.7096  1.5074
13962TIP3    H263378   1.041   5.014  10.586  0.9885 -1.2403 -1.0129
13963TIP3   OH263379   5.236   6.025   4.626 -0.3482  0.7771 -0.4216
13963TIP3    H163380   5.207   5.943   4.665  1.0879  0.7786  0.7278
13963TIP3    H263381   5.302   6.059   4.686 -2.0142  3.6197 -0.0018
13964TIP3   OH263382   3.832   2.324   6.407 -0.2232 -0.0621 -0.0764
13964TIP3    H163383   3.770   2.296   6.475  1.0254  0.2829  1.2506
13964TIP3    H263384   3.831   2.419   6.412  1.4100 -0.0708  0.9249
13965TIP3   OH263385   3.712   6.467  15.059  0.1946 -0.7608  0.3247
13965TIP3    H163386   3.726   6.373  15.057 -0.0173 -0.8016 -1.9073
13965TIP3    H263387   3.726   6.496  14.969 -2.5895  0.8830  0.2912
13966TIP3   OH263388   2.630   1.156  15.416 -0.2178  0.3713  0.0698
13966TIP3    H163389   2.556   1.214  15.398 -2.2917 -2.2768 -0.5313
13966TIP3    H263390   2.644   1.109  15.333  1.0110 -0.4299  0.6991
13967TIP3   OH263391   5.214   6.306   4.773 -0.5752 -0.0842 -0.3028
13967TIP3    H163392   5.303   6.303   4.808 -1.2154 -0.0045  1.4220
13967TIP3    H263393   5.161   6.336   4.847 -1.5898  3.2923 -2.1919
13968TIP3   OH263394   0.456   0.334  12.436  0.0237  0.1044  0.5523
13968TIP3    H163395   0.371   0.376  12.451 -0.3352  0.4360 -1.9364
13968TIP3    H263396   0.521   0.403  12.453 -0.4145  0.8482 -0.6361
13969TIP3   OH263397   1.258   1.234  13.598  0.0269  0.2354  0.1220
13969TIP3    H163398   1.232   1.147  13.628 -0.0759 -1.0101 -3.1409
13969TIP3    H263399   1.192   1.258  13.533  1.1920  1.8077 -0.5587
13970TIP3   OH263400   2.791   3.828  13.186  0.4264 -0.2379 -0.1632
13970TIP3    H163401   2.870   3.882  13.182  0.8110 -0.8456 -1.1399
13970TIP3    H263402   2.823   3.738  13.178 -0.2755 -0.5701  0.6236
13971TIP3   OH263403   3.203   2.193   0.063 -0.4198  0.3164  0.3235
13971TIP3    H163404   3.206   2.278   0.108 -0.6820 -0.0419  1.0353
13971TIP3    H263405   3.203   2.215  -0.030 -2.0499  1.1660  0.4888
13972TIP3   OH263406   2.038   1.467  16.661  0.1145  0.3880  0.1640
13972TIP3    H163407   2.109   1.525  16.634  0.2962  0.0515 -0.0941
13972TIP3    H263408   1.996   1.442  16.579 -0.0581  0.2765  0.2875
13973TIP3   OH263409   6.006   2.837  11.272 -0.0015  0.5153  0.0585
13973TIP3    H163410   5.929   2.826  11.328  0.4872  0.1758  0.6662
13973TIP3    H263411   5.970   2.838  11.183 -0.4988 -2.3601  0.1295
13974TIP3   OH263412   5.942   0.566  17.106  0.3763  0.5288 -0.8421
13974TIP3    H163413   5.996   0.613  17.170 -0.3308  1.1908 -0.7125
13974TIP3    H263414   5.860   0.616  17.103 -0.8691 -1.3163  0.1263
13975TIP3   OH263415   6.336   2.891  11.928 -0.1907  0.2235 -0.0296
13975TIP3    H163416   6.293   2.815  11.967 -1.2492  2.0990  2.7600
13975TIP3    H263417   6.273   2.925  11.865 -1.4323  0.9751  1.5525
13976TIP3   OH263418   1.939   5.447   1.409  0.0145  0.0580 -0.1760
13976TIP3    H163419   2.004   5.379   1.390 -1.4114 -0.7073 -2.6453
13976TIP3    H263420   1.967   5.483   1.493  3.1121 -0.8243 -0.7091
13977TIP3   OH263421   0.736   6.257   3.728  0.2719 -0.5026 -0.1162
13977TIP3    H163422   0.669   6.243   3.661 -0.0236  1.1723 -0.2101
13977TIP3    H263423   0.690   6.240   3.810 -0.4549  1.0954 -0.1488
13978TIP3   OH263424   2.980   3.369   2.286  0.1527 -0.0486 -0.5782
13978TIP3    H163425   2.966   3.364   2.191 -2.0075 -0.6611 -0.2765
13978TIP3    H263426   2.904   3.416   2.319  1.1215  0.5817  0.8331
13979TIP3   OH263427   3.967   0.657   3.586  0.0230  0.7150  0.2198
13979TIP3    H163428   3.965   0.712   3.664  0.9832  1.2464 -0.1125
13979TIP3    H263429   3.943   0.570   3.618 -1.1614  1.2428  0.8111
13980TIP3   OH263430   2.282   3.989   2.249 -0.0127  0.0615  0.2787
13980TIP3    H163431   2.193   3.958   2.233  0.0888  0.6476 -1.6727
13980TIP3    H263432   2.275   4.084   2.248  0.7973  0.1207 -0.9882
13981TIP3   OH263433   4.537   3.647  11.820  0.1919 -0.3561 -0.2336
13981TIP3    H163434   4.604   3.584  11.847  0.8889  1.1115  1.6723
13981TIP3    H263435   4.485   3.662  11.899  1.0895  2.6801 -0.1255
13982TIP3   OH263436   6.322   4.700   4.021  0.0909 -0.0031  0.5635
13982TIP3    H163437   6.244   4.717   3.967 -1.5886 -1.5186  2.3212
13982TIP3    H263438   6.389   4.673   3.958 -1.1733  0.1474 -0.9207
13983TIP3   OH263439   6.342   2.960  13.492 -0.3135 -0.3444  0.1643
13983TIP3    H163440   6.271   2.924  13.546 -0.3660  1.3030  1.2600
13983TIP3    H263441   6.305   3.040  13.455 -0.2836 -1.4242 -2.4203
13984TIP3   OH263442   4.161   4.794   3.743 -0.3420 -0.4637  0.1165
13984TIP3    H163443   4.180   4.748   3.661 -1.7135 -1.3276  0.2427
13984TIP3    H263444   4.090   4.743   3.783 -0.3368  0.4765  1.3949
13985TIP3   OH263445   3.083   0.700   1.812 -0.1192 -0.2054 -0.0971
13985TIP3    H163446   3.070   0.791   1.836  1.1641 -0.3317  1.2066
13985TIP3    H263447   3.084   0.700   1.716 -2.1677  0.8070 -0.1720
13986TIP3   OH263448   2.519   3.225  16.147 -0.3019  0.1522  0.0725
13986TIP3    H163449   2.479   3.265  16.224 -1.3828 -0.9857  0.1427
13986TIP3    H263450   2.558   3.144  16.180  1.7126  1.0268 -0.0826
13987TIP3   OH263451   5.177   0.465   3.575 -0.1436 -0.2364 -0.3634
13987TIP3    H163452   5.133   0.546   3.603 -1.1779 -0.7678 -0.4038
13987TIP3    H263453   5.155   0.457   3.482  0.9840  0.0692 -0.6692
13988TIP3   OH263454   6.749   5.891   0.957  0.3745  0.0569  0.7385
13988TIP3    H163455   6.681   5.857   1.015  0.3857  1.7909  1.8349
13988TIP3    H263456   6.729   5.852   0.872 -1.6756  0.1152  1.1365
13989TIP3   OH263457   2.974   3.588   6.621  0.1812 -0.0013 -1.1329
13989TIP3    H163458   3.057   3.637   6.614  0.1343  0.2756  0.0624
13989TIP3    H263459   2.968   3.540   6.538  0.5637  1.4977 -2.0719
13990TIP3   OH263460   4.387   6.204  13.804  0.3137 -0.5688 -0.3085
13990TIP3    H163461   4.437   6.187  13.884 -1.0831 -1.0805  0.4955
13990TIP3    H263462   4.452   6.205  13.734  1.1189 -5.1894  0.0735
13991TIP3   OH263463   1.736   3.170   3.900  0.0622 -0.2217 -0.0894
13991TIP3    H163464   1.708   3.261   3.911 -1.1288 -0.4113 -1.2098
13991TIP3    H263465   1.786   3.170   3.818  0.9115 -0.4171  0.4154
13992TIP3   OH263466   1.463   2.226  16.705  0.4697  0.6571  0.5963
13992TIP3    H163467   1.479   2.135  16.679  0.6525  0.0644  2.6362
13992TIP3    H263468   1.371   2.241  16.684  1.0441  0.9002 -2.1310
13993TIP3   OH263469   2.016   1.949  13.317  0.6876  0.4831 -0.2158
13993TIP3    H163470   2.037   1.880  13.254  1.8666  1.0664 -0.4918
13993TIP3    H263471   2.095   2.002  13.322  0.6521  0.4262  1.8110
13994TIP3   OH263472   5.381   2.020  13.122 -0.3447 -0.1344  0.5373
13994TIP3    H163473   5.412   1.934  13.148  1.0240 -0.2501 -1.2835
13994TIP3    H263474   5.307   2.002  13.063 -0.0343 -0.0769  0.1268
13995TIP3   OH263475   0.904   3.805  13.588  0.0836 -0.2139 -0.0828
13995TIP3    H163476   0.948   3.853  13.519 -0.1405  0.0029 -0.0775
13995TIP3    H263477   0.811   3.805  13.563  0.0791 -0.6453 -0.0844
13996TIP3   OH263478   3.016   4.708   3.449 -0.0140 -0.1296 -0.4702
13996TIP3    H163479   3.001   4.629   3.500 -0.8178  0.4164  0.1728
13996TIP3    H263480   3.082   4.757   3.500  0.2463 -0.2327 -0.7028
13997TIP3   OH263481   3.873   5.570   1.580 -0.4758  0.1822 -0.0087
13997TIP3    H163482   3.947   5.538   1.633 -0.3551 -1.4728 -1.0979
13997TIP3    H263483   3.811   5.497   1.579 -0.9908  0.6142 -1.1686
13998TIP3   OH263484   0.921   3.649   0.428 -0.1059 -0.3964 -0.1957
13998TIP3    H163485   0.897   3.605   0.509  1.8190 -1.4699 -0.1407
13998TIP3    H263486   0.971   3.726   0.457  2.3175 -1.8366 -0.2861
13999TIP3   OH263487   0.643   5.730   5.214 -0.2928  0.2244 -0.0942
13999TIP3    H163488   0.659   5.746   5.307 -2.3673  0.1851  0.3253
13999TIP3    H263489   0.701   5.657   5.192 -0.9196 -0.8438  1.6067
14000TIP3   OH263490   5.458   4.716  15.014 -0.1247 -0.2173  0.0351
14000TIP3    H163491   5.454   4.632  14.968  0.6247 -0.0806 -0.2884
14000TIP3    H263492   5.379   4.762  14.986  1.3177  0.7360 -2.8561
14001TIP3   OH263493   5.383   4.044  16.486  0.2905 -0.1398  0.0816
14001TIP3    H163494   5.301   3.997  16.499 -0.1809  0.5235 -0.3660
14001TIP3    H263495   5.356   4.133  16.462  1.1406  0.1065 -0.0183
14002TIP3   OH263496   4.701   4.835  11.634 -0.2634 -0.2718 -0.0766
14002TIP3    H163497   4.743   4.918  11.658 -0.7285  0.1057 -0.5334
14002TIP3    H263498   4.675   4.847  11.542 -2.1240 -0.1555  0.4185
14003TIP3   OH263499   0.478   4.272  16.755 -0.0436 -0.0976  0.4178
14003TIP3    H163500   0.521   4.210  16.696 -0.1774 -1.3934  1.6246
14003TIP3    H263501   0.400   4.300  16.708  0.9448  0.5762 -0.8905
14004TIP3   OH263502   2.273   5.074  15.026  0.7932  0.0194 -0.3141
14004TIP3    H163503   2.305   5.089  15.114 -0.5309  3.0244 -0.2105
14004TIP3    H263504   2.178   5.090  15.032  0.6307  0.0277 -2.1952
14005TIP3   OH263505   1.287   4.335   0.003  0.0395 -0.4003 -0.6465
14005TIP3    H163506   1.285   4.357  -0.090 -0.4596  1.4239 -0.2375
14005TIP3    H263507   1.334   4.408   0.044 -1.5078 -0.1418  0.7740
14006TIP3   OH263508   3.213   3.364   3.665  0.0622  0.6051  0.0622
14006TIP3    H163509   3.190   3.368   3.572 -1.3025  0.0345  0.3573
14006TIP3    H263510   3.144   3.414   3.709  1.3259  1.8508  0.6897
14007TIP3   OH263511   5.501   2.354   2.138 -0.0709  0.2580  0.5037
14007TIP3    H163512   5.510   2.259   2.150 -0.9810 -0.2646 -2.2299
14007TIP3    H263513   5.422   2.377   2.186  0.3149 -0.2961  1.4312
14008TIP3   OH263514   5.046   4.624  12.600 -0.1475  0.6042  0.4736
14008TIP3    H163515   5.094   4.676  12.536 -0.1884  0.2370  0.1416
14008TIP3    H263516   4.966   4.596  12.555 -0.0202  0.0664  0.5681
14009TIP3   OH263517   3.270   2.800   0.565  0.2677 -0.1791 -0.0352
14009TIP3    H163518   3.349   2.840   0.531  0.5186 -0.4370  0.2427
14009TIP3    H263519   3.221   2.774   0.486 -0.1539  1.1329 -0.2316
14010TIP3   OH263520   0.400   2.311   3.414  0.0537  0.5519 -0.8491
14010TIP3    H163521   0.385   2.257   3.492 -2.7394  1.8123 -0.3879
14010TIP3    H263522   0.425   2.249   3.346 -1.6630 -1.1501 -0.0053
14011TIP3   OH263523   3.165   0.699  16.260 -0.0772  0.2746  0.2884
14011TIP3    H163524   3.154   0.605  16.268 -1.6939  0.5165  1.3399
14011TIP3    H263525   3.194   0.728  16.346 -0.4329  0.8247  0.2301
14012TIP3   OH263526   4.539   2.082  14.660 -0.0657  0.1719 -0.7201
14012TIP3    H163527   4.604   2.128  14.712 -0.2738  0.3658 -0.6270
14012TIP3    H263528   4.488   2.152  14.618 -1.3603  0.0948  0.6156
14013TIP3   OH263529   0.912   6.388  11.761  0.4006  0.4044 -0.4906
14013TIP3    H163530   0.918   6.295  11.782  1.6917  0.0531 -2.2487
14013TIP3    H263531   0.827   6.415  11.796 -0.3339 -1.6031 -0.6123
14014TIP3   OH263532   5.325   5.071  16.932 -0.0573  0.1687  0.0233
14014TIP3    H163533   5.417   5.055  16.951  0.0088  1.0481  0.5147
14014TIP3    H263534   5.281   5.056  17.016 -0.1202  1.4288  0.2431
14015TIP3   OH263535   0.690   2.677   0.932 -0.2385  0.0324  0.1501
14015TIP3    H163536   0.728   2.665   0.846 -0.5009 -0.2583  0.0742
14015TIP3    H263537   0.662   2.590   0.960  1.0848 -0.1079  1.1193
14016TIP3   OH263538   5.978   2.478  17.041 -0.0490 -0.1377 -0.2030
14016TIP3    H163539   5.965   2.449  17.131 -0.0401 -0.3673 -0.2732
14016TIP3    H263540   5.914   2.548  17.028 -0.3109 -0.3640 -0.1380
14017TIP3   OH263541   0.986   3.766   1.794 -0.0727  0.1128 -0.9146
14017TIP3    H163542   0.990   3.737   1.703  0.6172 -1.7750 -0.3203
14017TIP3    H263543   0.986   3.686   1.846 -2.1274  1.0695  0.7528
14018TIP3   OH263544   1.825   3.547   6.052 -0.8057  0.0645  0.2833
14018TIP3    H163545   1.762   3.483   6.019  0.3721 -0.5670 -0.8636
14018TIP3    H263546   1.903   3.495   6.071 -0.3849  0.9245  0.9874
14019TIP3   OH263547   2.573   3.658   0.159 -0.1893  0.0509  0.1928
14019TIP3    H163548   2.576   3.698   0.246 -2.1107  0.0104  0.3220
14019TIP3    H263549   2.529   3.722   0.104 -1.8677 -1.1556  0.0317
14020TIP3   OH263550   2.854   0.595   4.362  0.4038  0.1649 -0.2496
14020TIP3    H163551   2.872   0.687   4.347  1.5359  0.1542  0.8960
14020TIP3    H263552   2.903   0.573   4.441 -0.4433 -1.2358 -0.0713
14021TIP3   OH263553   3.252   5.187  11.407 -0.0678  0.3964  0.0397
14021TIP3    H163554   3.276   5.170  11.498  2.3966  0.5904 -0.5250
14021TIP3    H263555   3.207   5.272  11.410 -1.3346 -0.2674  1.2128
14022TIP3   OH263556   6.410   0.299  13.941 -0.0939 -0.1507 -0.1961
14022TIP3    H163557   6.412   0.377  13.886  1.2755  0.9967  1.3564
14022TIP3    H263558   6.458   0.233  13.891  1.3758  0.9474 -0.3058
14023TIP3   OH263559   4.922   2.128   1.197 -0.4270  0.4994 -0.0419
14023TIP3    H163560   4.962   2.213   1.178 -3.2853  1.6342 -1.7124
14023TIP3    H263561   4.830   2.149   1.214 -0.6120 -1.9631  2.9627
14024TIP3   OH263562   3.353   0.856   1.864  0.6194  0.1619 -0.0278
14024TIP3    H163563   3.398   0.932   1.828  0.5604  0.1843 -0.0542
14024TIP3    H263564   3.369   0.785   1.802  1.7298 -0.1801  0.6183
14025TIP3   OH263565   1.218   2.549  11.039  0.4932 -0.0753 -0.0063
14025TIP3    H163566   1.220   2.482  10.972  1.7428 -0.7070  0.6378
14025TIP3    H263567   1.302   2.594  11.032  0.1978  0.5696  0.4209
14026TIP3   OH263568   1.600   1.157   1.976  0.3234  0.8498 -0.0765
14026TIP3    H163569   1.654   1.081   1.997 -0.5990 -0.2476 -1.4854
14026TIP3    H263570   1.583   1.149   1.882 -0.6272  2.2471 -0.0510
14027TIP3   OH263571   1.816   0.132  12.992  0.4807 -0.4112 -0.0128
14027TIP3    H163572   1.802   0.220  12.957 -0.6430 -0.3714  0.4918
14027TIP3    H263573   1.901   0.106  12.958 -0.2580 -0.1166 -2.2387
14028TIP3   OH263574   0.067   1.539  16.216  0.2363  0.2413 -0.7350
14028TIP3    H163575   0.085   1.490  16.297  0.2315 -0.9668 -1.4464
14028TIP3    H263576   0.030   1.622  16.247  1.1309  0.2053  0.5347
14029TIP3   OH263577   6.048   5.816  14.547  0.4475 -0.2081 -0.1774
14029TIP3    H163578   6.018   5.879  14.612  0.0531 -0.7267  0.1557
14029TIP3    H263579   6.126   5.776  14.587 -0.4498 -1.3467  0.5083
14030TIP3   OH263580   0.740   1.091  15.279  0.5592 -0.2691  0.0237
14030TIP3    H163581   0.679   1.164  15.267  1.1092  0.4247  1.3106
14030TIP3    H263582   0.705   1.022  15.222 -2.6562 -0.6554  2.1641
14031TIP3   OH263583   2.310   4.946   4.788 -0.5615  0.3021  0.0227
14031TIP3    H163584   2.310   4.869   4.846  0.5886  0.0442 -0.3020
14031TIP3    H263585   2.291   5.019   4.847  2.3972  0.2984  1.1577
14032TIP3   OH263586   3.169   5.633   5.355  0.6410  0.7213  0.0916
14032TIP3    H163587   3.233   5.564   5.339  0.2156  0.3687 -0.1089
14032TIP3    H263588   3.214   5.695   5.413  0.5334 -0.4625  1.4941
14033TIP3   OH263589   2.251   5.654  12.015  0.2206 -0.2368 -0.1090
14033TIP3    H163590   2.211   5.567  12.020 -0.3024 -0.0079 -0.2345
14033TIP3    H263591   2.227   5.696  12.098 -2.3551  0.9649 -1.3165
14034TIP3   OH263592   0.922   2.192   4.685 -0.1521  0.4863  0.1693
14034TIP3    H163593   0.921   2.131   4.759  3.5145 -2.2044 -1.6990
14034TIP3    H263594   0.973   2.267   4.716 -0.7277  0.5110  1.0847
14035TIP3   OH263595   0.247   6.034   4.939  0.4014  0.6949 -0.3233
14035TIP3    H163596   0.250   5.947   4.900  2.0530  0.5341  0.1116
14035TIP3    H263597   0.181   6.081   4.888  1.0501 -0.1271 -1.9803
14036TIP3   OH263598   5.871   0.149   2.805  0.1584 -0.1366  0.6378
14036TIP3    H163599   5.867   0.245   2.807  1.5126 -0.0312 -0.3759
14036TIP3    H263600   5.963   0.130   2.787 -0.2760 -1.6081 -0.1378
14037TIP3   OH263601   5.807   4.862   5.124 -0.1007  0.1593 -0.4752
14037TIP3    H163602   5.799   4.807   5.046 -1.4383 -0.6918  0.2159
14037TIP3    H263603   5.900   4.883   5.130  0.0443  0.1402 -2.2157
14038TIP3   OH263604   2.891   6.634  15.432 -0.1557  0.2337 -0.3534
14038TIP3    H163605   2.845   6.579  15.368  1.9192 -0.2405 -1.5316
14038TIP3    H263606   2.915   6.573  15.502 -0.7058  0.3500 -0.0544
14039TIP3   OH263607   4.580   2.975   4.942 -0.7286 -0.1021 -0.0547
14039TIP3    H163608   4.553   2.893   4.983  0.1453  0.1996  1.1664
14039TIP3    H263609   4.668   2.991   4.975 -0.3352  0.6337 -1.3635
14040TIP3   OH263610   0.843   3.935  15.782  0.4501 -0.1595  0.2678
14040TIP3    H163611   0.792   3.860  15.750  1.5928 -0.9155  0.1748
14040TIP3    H263612   0.913   3.896  15.834 -0.0573  0.9431  1.8396
14041TIP3   OH263613   0.346   1.703  11.493  0.3350  0.4130 -0.0266
14041TIP3    H163614   0.275   1.739  11.547  1.4049  0.7403  1.1979
14041TIP3    H263615   0.339   1.749  11.410 -1.3927 -0.1464 -0.2408
14042TIP3   OH263616   5.410   1.820  14.669  0.2876  0.3517 -0.4090
14042TIP3    H163617   5.499   1.820  14.635  0.1252 -0.5709 -0.8870
14042TIP3    H263618   5.418   1.788  14.759  0.6046  1.8136  0.1024
14043TIP3   OH263619   4.790   5.253   5.225 -0.2610  0.1598  0.1789
14043TIP3    H163620   4.820   5.344   5.223  0.9506 -0.2204 -1.6404
14043TIP3    H263621   4.870   5.201   5.226 -0.8986 -0.8734 -0.3598
14044TIP3   OH263622   1.833   0.651   5.589 -0.1539 -0.0300  0.1695
14044TIP3    H163623   1.816   0.564   5.554 -1.2836  0.2191  0.0753
14044TIP3    H263624   1.812   0.644   5.682 -0.2121  0.1362  0.1691
14045TIP3   OH263625   6.326   1.027  11.632  0.3512  0.0734 -0.1039
14045TIP3    H163626   6.291   1.018  11.720 -1.1386  0.4600 -0.6123
14045TIP3    H263627   6.410   0.982  11.634  1.3796  1.8887  2.0774
14046TIP3   OH263628   3.460   1.949  15.044 -0.0692  0.0958 -0.3969
14046TIP3    H163629   3.484   1.956  14.951 -3.0423  0.3932 -1.2413
14046TIP3    H263630   3.407   1.870  15.049 -0.1475  0.2232  1.0166
14047TIP3   OH263631   6.697   3.202   1.431  0.0817 -0.8035  0.1350
14047TIP3    H163632   6.697   3.238   1.520  0.5670  0.2965 -0.2918
14047TIP3    H263633   6.783   3.162   1.421  0.4876  0.1263 -0.2302
14048TIP3   OH263634   2.384   0.684   0.790  0.3141 -0.5347 -0.0480
14048TIP3    H163635   2.310   0.676   0.851  1.4137  0.7732  1.5362
14048TIP3    H263636   2.390   0.597   0.749 -0.0754 -1.7134  2.1996
14049TIP3   OH263637   2.176   5.695  13.407 -0.2293  0.0518  0.1886
14049TIP3    H163638   2.248   5.758  13.405 -0.0994 -0.0668  1.0985
14049TIP3    H263639   2.104   5.741  13.362 -0.0591  0.7541  0.6177
14050TIP3   OH263640   4.534   5.990  10.789  0.2552  0.0863 -0.0202
14050TIP3    H163641   4.507   6.015  10.701 -0.9932 -0.5195  0.1685
14050TIP3    H263642   4.517   5.896  10.794 -0.6208  0.2831  1.1712
14051TIP3   OH263643   3.157   2.963   1.305  0.3354 -0.1318 -0.1376
14051TIP3    H163644   3.215   3.012   1.363 -0.9980 -0.9584  2.0339
14051TIP3    H263645   3.129   3.026   1.239  1.8126  0.8926  0.1750
14052TIP3   OH263646   1.468   0.666   6.713  0.4154 -0.1847 -0.1148
14052TIP3    H163647   1.524   0.636   6.642  0.0837 -0.8540 -0.0973
14052TIP3    H263648   1.380   0.663   6.677  0.4404  1.9161 -0.5154
14053TIP3   OH263649   0.685   5.809  12.790 -0.3592 -0.6121  0.5232
14053TIP3    H163650   0.656   5.830  12.879 -1.1934 -1.2651  0.4103
14053TIP3    H263651   0.632   5.734  12.764  0.6553 -1.1352 -0.1130
14054TIP3   OH263652   4.877   5.943   5.732  0.1090  0.2848  0.1646
14054TIP3    H163653   4.961   5.931   5.776  0.0030 -0.2744  0.2246
14054TIP3    H263654   4.835   6.014   5.779 -0.0468 -0.3739  1.0503
14055TIP3   OH263655   1.811   4.461  16.473  0.2063  0.3953 -0.1707
14055TIP3    H163656   1.805   4.385  16.415 -1.0868  1.1881 -1.1171
14055TIP3    H263657   1.860   4.526  16.423 -0.2285  0.8063 -0.0653
14056TIP3   OH263658   1.473   1.766   2.210  0.0070 -0.0281 -0.3345
14056TIP3    H163659   1.484   1.843   2.266 -0.3870 -0.6482  0.6112
14056TIP3    H263660   1.560   1.726   2.207  0.3722  0.7814 -1.3558
14057TIP3   OH263661   2.201   4.820   3.634 -0.1922 -0.5381 -0.0230
14057TIP3    H163662   2.186   4.823   3.728  0.5580 -1.7238  0.1501
14057TIP3    H263663   2.278   4.764   3.623  0.6985  0.8571 -1.2405
14058TIP3   OH263664   6.635   5.163  13.457  0.4131  0.1818 -0.0384
14058TIP3    H163665   6.573   5.159  13.385  0.7120  0.2212 -0.3035
14058TIP3    H263666   6.696   5.233  13.432  0.5872  0.1165  0.1966
14059TIP3   OH263667   0.159   1.698  12.159  0.0291 -0.6720 -0.5942
14059TIP3    H163668   0.150   1.678  12.066  0.4098 -0.7222 -0.6223
14059TIP3    H263669   0.120   1.623  12.204  0.0734 -0.7642 -0.7099
14060TIP3   OH263670   0.005   3.017   3.610 -0.1861 -0.4987  0.4757
14060TIP3    H163671  -0.075   2.980   3.571 -0.1975  0.5908 -0.5946
14060TIP3    H263672  -0.013   3.111   3.616  1.1551 -0.1865 -0.1220
14061TIP3   OH263673   4.043   4.975  17.103  0.3309  0.8789  0.0510
14061TIP3    H163674   4.073   4.957  17.013  0.3859  4.1449 -0.7088
14061TIP3    H263675   4.004   4.892  17.132  1.4613 -0.6823 -2.4806
14062TIP3   OH263676   3.965   0.732   2.561 -0.5097  0.6820 -0.0780
14062TIP3    H163677   4.006   0.736   2.475  0.2818 -0.3547  0.2097
14062TIP3    H263678   3.876   0.702   2.545 -0.4133  0.6518 -0.5579
14063TIP3   OH263679   2.406   6.081  15.182  0.3407 -0.3417  0.1929
14063TIP3    H163680   2.401   6.114  15.272  0.9872  1.1884 -0.3041
14063TIP3    H263681   2.500   6.073  15.165  0.2921 -3.9590  0.7524
14064TIP3   OH263682   6.217   3.212  13.470 -0.1237  0.3202  0.6821
14064TIP3    H163683   6.240   3.291  13.519 -1.7170  0.4866  1.2381
14064TIP3    H263684   6.169   3.243  13.394 -0.1731 -0.0795  0.5455
14065TIP3   OH263685   2.659   4.215  16.286 -0.8007  0.3022  0.0999
14065TIP3    H163686   2.675   4.202  16.193  1.8043 -1.8296  0.7358
14065TIP3    H263687   2.745   4.232  16.324 -1.0963 -2.8697  2.6018
14066TIP3   OH263688   2.586   2.420   6.612 -0.0471  0.2132  0.7610
14066TIP3    H163689   2.621   2.428   6.523 -0.8786  1.5140  0.5144
14066TIP3    H263690   2.641   2.354   6.653  2.9634  2.3263  0.5154
14067TIP3   OH263691   2.257   6.636   6.247 -0.1686  0.0900  0.2296
14067TIP3    H163692   2.325   6.700   6.227 -0.6705  0.6251  0.2152
14067TIP3    H263693   2.305   6.557   6.271  0.4810 -0.3382 -2.2192
14068TIP3   OH263694   4.708   6.422   5.471  0.3174 -0.0926  0.0062
14068TIP3    H163695   4.678   6.374   5.548  0.6922  1.3981  1.1465
14068TIP3    H263696   4.725   6.355   5.406 -1.2071 -1.3185  0.7919
14069TIP3   OH263697   6.655   0.447   5.607 -0.2281  0.1493 -0.0698
14069TIP3    H163698   6.706   0.397   5.672  0.3341 -0.0963 -0.6830
14069TIP3    H263699   6.565   0.443   5.639 -0.3288 -1.9111 -0.4798
14070TIP3   OH263700   3.104   1.509  12.494  0.4770 -0.4645 -0.1442
14070TIP3    H163701   3.182   1.555  12.526  0.2297  0.1195 -0.3651
14070TIP3    H263702   3.039   1.519  12.564  0.5058 -0.7045 -0.0820
14071TIP3   OH263703   6.666   2.656   2.299  0.4661 -0.1238 -0.0672
14071TIP3    H163704   6.694   2.716   2.367 -0.8901  1.1774 -0.5815
14071TIP3    H263705   6.571   2.666   2.296  0.3520 -1.2351 -1.1520
14072TIP3   OH263706   3.562   6.724  15.782  0.3182  0.0753  0.0974
14072TIP3    H163707   3.547   6.775  15.861 -0.3259  0.3023 -0.1597
14072TIP3    H263708   3.485   6.741  15.727 -1.1734 -3.0196  0.9532
14073TIP3   OH263709   5.309   5.621  14.231 -0.4148  0.3914 -0.6250
14073TIP3    H163710   5.280   5.534  14.202 -1.8127  0.0675  1.4766
14073TIP3    H263711   5.396   5.631  14.193  0.1491 -2.2905 -0.2931
14074TIP3   OH263712   1.010   5.220  13.667  0.5319  0.2401  0.0155
14074TIP3    H163713   1.079   5.195  13.728  0.1530  1.8315  1.1828
14074TIP3    H263714   0.935   5.239  13.723 -0.5166 -0.3438 -1.1442
14075TIP3   OH263715   0.132   2.867  14.781  0.0928 -0.1286  0.0018
14075TIP3    H163716   0.120   2.927  14.707 -0.6208 -0.8167 -0.4535
14075TIP3    H263717   0.065   2.893  14.844 -1.6718 -1.7928 -1.1057
14076TIP3   OH263718   0.645   3.166   4.130  0.2138 -0.2356  0.2616
14076TIP3    H163719   0.739   3.168   4.147  0.3710 -0.2643 -0.5956
14076TIP3    H263720   0.627   3.077   4.100  0.2837  0.3439 -1.5861
14077TIP3   OH263721   2.632   5.622   0.770  0.0416  0.2319  0.0871
14077TIP3    H163722   2.604   5.577   0.849 -2.0047  0.1252 -0.6405
14077TIP3    H263723   2.657   5.710   0.799  0.8300 -0.2964  1.0414
14078TIP3   OH263724   5.494   0.865   4.490  0.1294 -0.1797  0.3685
14078TIP3    H163725   5.434   0.793   4.511 -1.5919  0.6093 -1.4999
14078TIP3    H263726   5.518   0.851   4.399 -1.0345  2.0870 -0.3456
14079TIP3   OH263727   2.992   5.522  13.750 -0.6931 -0.3342 -0.1582
14079TIP3    H163728   2.970   5.499  13.660 -0.1839  1.8172 -0.8824
14079TIP3    H263729   2.911   5.506  13.800 -2.4511  2.5114 -1.8120
14080TIP3   OH263730   0.976   3.927   3.159  0.0277  0.5000 -0.0567
14080TIP3    H163731   1.014   3.873   3.090 -0.4588 -0.1168  0.1435
14080TIP3    H263732   1.024   3.903   3.238 -0.2812  0.2440  0.0590
14081TIP3   OH263733   3.894   4.553   3.213 -0.6732  0.4341 -0.2999
14081TIP3    H163734   3.956   4.490   3.250  0.7393  1.8781 -0.0874
14081TIP3    H263735   3.810   4.528   3.250 -0.2558 -1.6403 -0.6478
14082TIP3   OH263736   0.486   5.789  14.613 -0.3438  0.2538  0.1521
14082TIP3    H163737   0.474   5.804  14.519 -1.5386  1.1031  0.4083
14082TIP3    H263738   0.401   5.810  14.651 -0.6888 -2.5835  1.1687
14083TIP3   OH263739   2.297   4.234  16.249  0.5871 -0.7753 -0.5544
14083TIP3    H163740   2.311   4.311  16.194  0.6299 -0.0623  0.4403
14083TIP3    H263741   2.332   4.161  16.197  2.0570  0.0867 -0.8348
14084TIP3   OH263742   1.916   0.880   2.291  0.7286  0.3274  0.1860
14084TIP3    H163743   1.994   0.908   2.338  1.0619  1.3165 -0.9028
14084TIP3    H263744   1.938   0.893   2.199 -0.8029  0.8330 -0.1253
14085TIP3   OH263745   0.413   0.819  12.765  0.3667  0.4391 -0.8662
14085TIP3    H163746   0.369   0.853  12.687 -0.4879  1.7098  0.1139
14085TIP3    H263747   0.375   0.870  12.837  2.7874  0.9255  0.1396
14086TIP3   OH263748   3.201   5.705   0.864  0.1238  0.0047  0.1226
14086TIP3    H163749   3.176   5.781   0.810  0.5861  0.8346  1.0382
14086TIP3    H263750   3.277   5.668   0.818 -0.3635 -0.1547 -0.5572
14087TIP3   OH263751   1.658   4.489   0.235  0.6781  0.8898 -0.3503
14087TIP3    H163752   1.647   4.465   0.143 -1.5467 -2.6525  0.6554
14087TIP3    H263753   1.706   4.416   0.273  0.9875  1.9793  1.4567
14088TIP3   OH263754   0.654   4.722   0.195  0.9027  0.0248  0.8535
14088TIP3    H163755   0.737   4.759   0.225  0.4122 -0.1450  2.5052
14088TIP3    H263756   0.626   4.665   0.266 -0.4556 -0.2051  0.1595
14089TIP3   OH263757   2.063   6.528   5.752  0.3396  0.1299 -0.2767
14089TIP3    H163758   2.152   6.511   5.783 -0.2055 -0.2622  1.1675
14089TIP3    H263759   2.018   6.564   5.829 -0.1939  2.4284 -1.5760
14090TIP3   OH263760   1.333   4.080   0.890  0.3948 -0.5661  0.2255
14090TIP3    H163761   1.393   4.074   0.964  0.4046 -0.4364  0.2295
14090TIP3    H263762   1.351   4.166   0.852 -0.5637 -0.0414  0.9010
14091TIP3   OH263763   2.683   0.766  13.958 -0.1075  0.4125  0.1648
14091TIP3    H163764   2.628   0.733  13.887  1.3281  0.8726 -1.2367
14091TIP3    H263765   2.693   0.692  14.018 -0.6909 -0.2435 -0.5303
14092TIP3   OH263766   4.735   1.984  11.267  0.4021 -0.0646  0.1429
14092TIP3    H163767   4.660   1.989  11.325  1.1370 -2.5281  1.4756
14092TIP3    H263768   4.700   1.950  11.184 -0.2124  0.5693  0.1454
14093TIP3   OH263769   5.374   6.540   6.192  0.1885 -0.1414  0.3001
14093TIP3    H163770   5.446   6.536   6.129 -0.7814 -0.9428 -0.7976
14093TIP3    H263771   5.365   6.634   6.212  1.2888  0.0048  0.1962
14094TIP3   OH263772   5.572   2.967   1.177  0.0743  0.1522  0.0683
14094TIP3    H163773   5.638   2.994   1.113  0.3370  0.1094  0.3185
14094TIP3    H263774   5.501   2.930   1.124 -0.2293  1.1984 -0.2665
14095TIP3   OH263775   0.244   4.863   0.503 -0.0812 -0.0772 -0.5453
14095TIP3    H163776   0.197   4.892   0.425 -0.7214  0.1123 -0.0973
14095TIP3    H263777   0.268   4.945   0.547  0.3709 -0.1815 -0.6005
14096TIP3   OH263778   4.203   2.048  13.250 -0.4199  0.0370  0.1547
14096TIP3    H163779   4.202   2.110  13.177  1.3095  0.4393  0.4358
14096TIP3    H263780   4.284   1.999  13.239 -0.1054  0.1239  1.8201
14097TIP3   OH263781   6.659   1.749   3.142  0.2122 -0.3024  0.3562
14097TIP3    H163782   6.661   1.727   3.235  0.2421 -0.1265  0.3977
14097TIP3    H263783   6.686   1.668   3.097 -0.1975 -0.5077  0.4778
14098TIP3   OH263784   2.332   0.699  17.083  0.5211 -0.4481 -0.1302
14098TIP3    H163785   2.320   0.606  17.100 -0.8847 -0.3463 -0.4410
14098TIP3    H263786   2.313   0.742  17.167  1.9177 -0.4691  0.2201
14099TIP3   OH263787   4.405   2.659   1.987  0.2668  0.2843  0.4161
14099TIP3    H163788   4.321   2.672   2.031 -0.4571 -0.7115 -0.6217
14099TIP3    H263789   4.448   2.590   2.037  0.4397  0.7291  0.8924
14100TIP3   OH263790   3.919   1.271   5.958  0.0805  0.7839  0.2240
14100TIP3    H163791   3.833   1.296   5.925 -0.4919 -1.2435  0.0447
14100TIP3    H263792   3.975   1.345   5.937 -1.4836  1.8959 -0.2107
14101TIP3   OH263793   5.560   2.728   1.861  0.0188 -0.5989 -0.1054
14101TIP3    H163794   5.485   2.788   1.852 -0.9291 -1.8182 -0.7106
14101TIP3    H263795   5.611   2.742   1.781 -0.0870 -0.4542 -0.1495
14102TIP3   OH263796   4.235   0.812   0.834  0.1366 -0.2897 -0.5790
14102TIP3    H163797   4.323   0.817   0.795  1.1153  1.2021  1.6174
14102TIP3    H263798   4.248   0.833   0.926 -2.5017 -0.4367 -0.0898
14103TIP3   OH263799   0.963   2.602  12.111 -0.0701 -0.6370  0.0224
14103TIP3    H163800   0.968   2.693  12.139  1.3825 -1.0299  1.2176
14103TIP3    H263801   0.956   2.606  12.016 -2.3520  0.7223  0.2000
14104TIP3   OH263802   6.399   4.536   0.763  0.0765  0.1093  0.0429
14104TIP3    H163803   6.470   4.599   0.766 -0.3142  0.5617 -0.0662
14104TIP3    H263804   6.356   4.544   0.848 -0.0642  0.0926 -0.0263
14105TIP3   OH263805   2.125   4.726  13.960 -0.0071 -0.1684 -0.0032
14105TIP3    H163806   2.152   4.643  13.919  0.8195  0.3856 -0.6221
14105TIP3    H263807   2.030   4.725  13.956  0.0348 -0.1409 -1.9874
14106TIP3   OH263808   4.186   4.280  14.618 -0.4620 -0.0705 -0.3630
14106TIP3    H163809   4.101   4.291  14.662  0.6975 -0.5032  2.1076
14106TIP3    H263810   4.192   4.356  14.561 -1.3191  1.5024  1.5095
14107TIP3   OH263811   4.953   4.773  13.120  0.5123 -0.2764  0.3282
14107TIP3    H163812   4.959   4.680  13.141  0.9225 -0.4275 -0.4151
14107TIP3    H263813   5.032   4.811  13.159  1.0466 -0.4816 -0.5254
14108TIP3   OH263814   3.046   5.450  16.572 -0.2687  1.3180  0.2391
14108TIP3    H163815   3.096   5.504  16.633  0.2310 -0.7151  1.7543
14108TIP3    H263816   3.064   5.360  16.600  0.0715  0.2471 -3.0183
14109TIP3   OH263817   0.971   5.043   0.819  0.4739 -0.3473 -0.2999
14109TIP3    H163818   1.046   4.985   0.809  1.0654  0.5228 -1.0859
14109TIP3    H263819   0.895   4.986   0.808  1.0036 -1.2793  0.7622
14110TIP3   OH263820   6.782   0.052   5.321 -0.4035 -0.5671  0.2067
14110TIP3    H163821   6.796   0.144   5.299 -1.3570 -0.3936  0.2688
14110TIP3    H263822   6.716   0.022   5.259 -1.5109 -0.6710  1.3947
14111TIP3   OH263823   2.944   2.604  15.643  0.0943  0.3235  0.2111
14111TIP3    H163824   3.001   2.637  15.573  3.5404 -1.2421  2.0455
14111TIP3    H263825   2.946   2.673  15.710 -0.1924  0.2737  0.2731
14112TIP3   OH263826   0.205   5.757  15.804  0.5766 -0.6165  0.1210
14112TIP3    H163827   0.262   5.757  15.881 -1.1590 -0.0005  1.4673
14112TIP3    H263828   0.174   5.848  15.797  0.1968 -0.8089 -0.9286
14113TIP3   OH263829   3.752   0.996  10.822 -0.4649 -0.3437 -0.4138
14113TIP3    H163830   3.716   0.911  10.799 -2.4783  1.0209 -2.8033
14113TIP3    H263831   3.812   1.017  10.750 -2.5318  1.5872 -1.7157
14114TIP3   OH263832   2.429   3.958   1.747  0.7359  0.0749  0.2372
14114TIP3    H163833   2.512   3.915   1.764  1.1293  0.9450  0.5496
14114TIP3    H263834   2.380   3.896   1.693  1.2689 -0.7772  0.7223
14115TIP3   OH263835   1.829   4.746  15.686 -0.2335  0.1838  0.3260
14115TIP3    H163836   1.921   4.719  15.690 -0.5389 -0.7807  1.0803
14115TIP3    H263837   1.830   4.839  15.708  0.6272  0.3355 -0.3176
14116TIP3   OH263838   1.276   4.584  12.241 -0.0939 -0.0057  0.1301
14116TIP3    H163839   1.230   4.667  12.228  0.4541  0.2812 -0.0085
14116TIP3    H263840   1.362   4.609  12.274  1.2157 -0.3347 -2.7923
14117TIP3   OH263841   0.009   2.351  17.200 -0.2700 -0.2610 -0.4802
14117TIP3    H163842  -0.005   2.325  17.109  1.3830 -0.9505 -0.5754
14117TIP3    H263843  -0.038   2.434  17.209 -0.1386  0.0230 -2.0790
14118TIP3   OH263844   6.083   5.155  13.201  0.0180  0.0189  0.1790
14118TIP3    H163845   6.141   5.166  13.276 -1.9010 -0.5568  1.8363
14118TIP3    H263846   6.035   5.238  13.196 -0.8012 -0.4269  0.4656
14119TIP3   OH263847   5.145   0.911   3.195  0.2796  0.4456 -0.5943
14119TIP3    H163848   5.104   0.980   3.142 -0.4294 -0.4714 -1.2568
14119TIP3    H263849   5.193   0.959   3.263 -1.4081  1.5893 -0.1432
14120TIP3   OH263850   3.627   5.508  12.659  0.2076 -0.1144 -0.8080
14120TIP3    H163851   3.536   5.537  12.661 -0.1680 -1.1241 -1.9153
14120TIP3    H263852   3.673   5.569  12.717 -1.1517  0.4511 -0.2801
14121TIP3   OH263853   3.788   2.363  12.170 -0.1012  0.5059  0.2662
14121TIP3    H163854   3.828   2.391  12.252  0.4759  2.0103 -0.4824
14121TIP3    H263855   3.859   2.370  12.106 -0.6730 -0.1580 -0.4530
14122TIP3   OH263856   1.548   1.912   3.379  0.1408  0.2266 -0.1677
14122TIP3    H163857   1.506   1.854   3.442  2.2255 -0.9307  0.2781
14122TIP3    H263858   1.496   1.992   3.380 -0.6369 -0.2562  2.0414
14123TIP3   OH263859   2.219   3.595  12.044 -0.1667 -0.0821 -1.1098
14123TIP3    H163860   2.295   3.567  11.993  1.4550 -0.4744  1.3632
14123TIP3    H263861   2.182   3.514  12.078 -0.7079  0.2354 -0.9346
14124TIP3   OH263862   5.140   3.429   3.645 -0.0763 -0.7441  0.0799
14124TIP3    H163863   5.217   3.377   3.671 -0.3072 -1.8683 -1.3351
14124TIP3    H263864   5.175   3.516   3.625  0.8471 -1.2446 -0.5622
14125TIP3   OH263865   2.110   3.855   3.912 -0.4113 -0.3860 -0.4574
14125TIP3    H163866   2.087   3.900   3.993 -0.0194  0.8925 -1.0241
14125TIP3    H263867   2.190   3.808   3.932  0.6623  1.3304 -0.5443
14126TIP3   OH263868   5.915   3.775   3.852 -0.4854  0.6294 -0.0848
14126TIP3    H163869   5.864   3.749   3.775  1.1744  2.0179 -1.7742
14126TIP3    H263870   5.853   3.823   3.907 -1.9215 -1.1321 -0.0878
14127TIP3   OH263871   2.445   2.130   5.367  0.4156  0.7897 -0.8699
14127TIP3    H163872   2.398   2.172   5.439  1.6384  1.9198 -0.6882
14127TIP3    H263873   2.378   2.114   5.301 -0.2569  2.2482 -0.5808
14128TIP3   OH263874   5.421   0.923  17.220 -0.3168  0.6333 -0.1014
14128TIP3    H163875   5.457   0.953  17.137  1.0105 -0.1082  0.1615
14128TIP3    H263876   5.494   0.876  17.261 -1.6303 -1.0534  0.4275
14129TIP3   OH263877   5.875   3.094   4.683  0.2828 -0.7107 -0.5388
14129TIP3    H163878   5.927   3.036   4.739  0.1892  1.0715  1.5079
14129TIP3    H263879   5.940   3.148   4.638  0.3227  0.6625  1.0699
14130TIP3   OH263880   6.714   1.348   0.634  0.0089  0.2765  0.5581
14130TIP3    H163881   6.792   1.402   0.618  1.0423 -0.3292  2.9784
14130TIP3    H263882   6.641   1.408   0.628  0.7219  1.0328 -1.0199
14131TIP3   OH263883   5.986   3.235   5.297  0.0363  0.4942 -0.7576
14131TIP3    H163884   6.007   3.316   5.252 -0.1342  0.9550 -0.0340
14131TIP3    H263885   6.066   3.211   5.343 -0.1315  0.6670 -0.3657
14132TIP3   OH263886   3.806   5.656  15.006  0.3302  0.0811 -0.8643
14132TIP3    H163887   3.795   5.730  15.066  0.4701 -0.6449  0.0961
14132TIP3    H263888   3.816   5.696  14.920 -1.2717  1.1098 -0.6228
14133TIP3   OH263889   3.961   0.239  15.125  0.4415  0.8184 -0.1631
14133TIP3    H163890   3.908   0.205  15.198  0.7250  1.4877  0.3614
14133TIP3    H263891   4.050   0.241  15.159  1.1764 -2.0505 -1.6409
14134TIP3   OH263892   3.651   3.772   3.619  0.0955 -0.6432 -0.2850
14134TIP3    H163893   3.699   3.728   3.549  3.7449 -0.5284  1.9244
14134TIP3    H263894   3.599   3.703   3.660 -0.7250 -1.0538 -1.9122
14135TIP3   OH263895   1.376   4.196   1.981 -0.6689 -0.1346 -0.1600
14135TIP3    H163896   1.392   4.263   1.915 -0.4046 -0.6305 -0.6068
14135TIP3    H263897   1.287   4.215   2.013 -0.5579  0.4823 -0.2027
14136TIP3   OH263898   6.230   0.780  13.543 -0.4319  0.1078 -0.0207
14136TIP3    H163899   6.144   0.742  13.525 -0.9820  0.6580  1.2844
14136TIP3    H263900   6.247   0.839  13.470  0.4347 -2.5359 -2.1005
14137TIP3   OH263901   0.358   0.324   3.759  0.0022 -0.1330 -0.6450
14137TIP3    H163902   0.368   0.341   3.665 -2.0024  0.8920 -0.7303
14137TIP3    H263903   0.272   0.284   3.767  0.3160 -0.5707  0.7421
14138TIP3   OH263904   3.692   2.846   4.667  0.2707 -0.4373 -0.2679
14138TIP3    H163905   3.728   2.815   4.584  1.3306 -1.3226  0.4976
14138TIP3    H263906   3.738   2.928   4.684 -1.3832  0.8293 -1.4973
14139TIP3   OH263907   3.865   3.310   1.953 -0.5562  0.0274  0.2685
14139TIP3    H163908   3.815   3.233   1.926 -0.1366 -1.1431  2.6047
14139TIP3    H263909   3.941   3.311   1.895  0.0225 -2.0067  0.9334
14140TIP3   OH263910   1.104   2.259   1.475  0.0780 -0.4650  0.2167
14140TIP3    H163911   1.111   2.354   1.492 -1.4974 -0.0739 -1.0944
14140TIP3    H263912   1.119   2.219   1.561 -1.7096  1.1167  1.3644
14141TIP3   OH263913   3.213   5.619   6.066 -0.1623 -0.1152 -0.2361
14141TIP3    H163914   3.190   5.595   6.156 -0.5311 -1.6137 -0.7026
14141TIP3    H263915   3.172   5.705   6.053 -1.4719 -0.5989  0.5087
14142TIP3   OH263916   0.930   1.677   1.725  0.1276 -0.0057  0.6254
14142TIP3    H163917   0.899   1.622   1.653 -0.1466 -1.0639  1.5158
14142TIP3    H263918   1.022   1.654   1.735  0.1719  0.1590  0.5948
14143TIP3   OH263919   4.824   2.162   4.824 -0.6109 -0.3472  0.5678
14143TIP3    H163920   4.779   2.081   4.800 -2.1284  0.7747 -0.5837
14143TIP3    H263921   4.768   2.232   4.790  1.5296  1.1707 -0.0474
14144TIP3   OH263922   3.307   2.442   4.627  0.1364 -0.1703  0.4571
14144TIP3    H163923   3.343   2.500   4.560  0.6398  0.4544  1.2436
14144TIP3    H263924   3.263   2.501   4.688 -2.2722 -0.9050 -0.4591
14145TIP3   OH263925   5.894   6.632  12.511 -0.1542 -0.5440  0.0599
14145TIP3    H163926   5.801   6.620  12.529 -0.2914  2.0261  1.6252
14145TIP3    H263927   5.897   6.686  12.432 -0.0576 -0.0606  0.3838
14146TIP3   OH263928   5.335   4.070  11.389  0.4390  0.6669 -0.0153
14146TIP3    H163929   5.382   4.062  11.472 -0.7379 -0.0497  0.6041
14146TIP3    H263930   5.403   4.095  11.326  1.9073 -1.5627  0.5776
14147TIP3   OH263931   4.173   5.027  16.823 -0.1296  0.0763 -0.1488
14147TIP3    H163932   4.245   5.003  16.765 -0.1157 -0.7982  0.2131
14147TIP3    H263933   4.206   5.100  16.874  0.6172 -0.4978  0.2126
14148TIP3   OH263934   4.046   5.024  11.484 -0.3877 -0.5416  0.0266
14148TIP3    H163935   4.057   5.101  11.428  1.1346 -0.6258  0.1829
14148TIP3    H263936   3.952   5.006  11.480 -0.2529 -1.3104 -3.5553
14149TIP3   OH263937   5.663   6.287   0.110 -0.1273 -0.7378  0.1519
14149TIP3    H163938   5.741   6.278   0.165 -0.3179  1.3809  0.8522
14149TIP3    H263939   5.600   6.225   0.147  1.4753 -3.3009 -1.0850
14150TIP3   OH263940   5.159   5.764   3.953  0.4039 -0.0999  0.3836
14150TIP3    H163941   5.124   5.677   3.969  0.5225 -0.3831 -0.8194
14150TIP3    H263942   5.098   5.803   3.890  0.2084  0.7899  1.1030
14151TIP3   OH263943   6.218   3.098   4.234  0.1306  0.1339 -0.5126
14151TIP3    H163944   6.139   3.149   4.251  0.4001  1.3270 -2.4658
14151TIP3    H263945   6.191   3.035   4.168  0.4492 -0.5046 -0.0390
14152TIP3   OH263946   5.852   2.005   3.028 -0.4104 -0.6987 -0.2947
14152TIP3    H163947   5.765   1.978   3.056  0.1395 -1.2465  0.9720
14152TIP3    H263948   5.903   1.924   3.027 -0.1747 -0.5703 -2.1368
14153TIP3   OH263949   1.037   4.222   0.003 -0.0234  0.1647  0.6926
14153TIP3    H163950   1.021   4.195  -0.087 -1.8428 -0.8590  1.2809
14153TIP3    H263951   1.124   4.263   0.001  0.8694 -1.6814 -1.1108
14154TIP3   OH263952   1.549   6.417  16.936 -0.2142 -0.0898  0.3675
14154TIP3    H163953   1.539   6.479  16.864 -0.4996 -1.3660 -0.7277
14154TIP3    H263954   1.463   6.377  16.946 -0.1590  0.0174  1.3877
14155TIP3   OH263955   3.455   5.833   5.348  0.3588 -0.1408 -0.1693
14155TIP3    H163956   3.412   5.864   5.427  1.5289  1.0329  0.0447
14155TIP3    H263957   3.472   5.740   5.364 -1.6343 -0.5296 -0.0917
14156TIP3   OH263958   6.200   3.398  10.826 -0.7608  0.4004 -0.4563
14156TIP3    H163959   6.208   3.316  10.776 -0.5814 -1.0133  1.7462
14156TIP3    H263960   6.107   3.418  10.826 -0.7320  0.6045 -1.5771
14157TIP3   OH263961   5.890   2.589  12.063  0.3709 -0.2168  0.4208
14157TIP3    H163962   5.898   2.670  12.113 -1.7355  0.9287 -0.9376
14157TIP3    H263963   5.808   2.550  12.094  1.9476 -2.5266  1.9163
14158TIP3   OH263964   1.719   2.856   5.883 -0.1834  0.0539 -0.3143
14158TIP3    H163965   1.750   2.842   5.794 -0.2098 -1.2662 -0.1349
14158TIP3    H263966   1.782   2.917   5.922 -0.1925  0.6671 -1.2308
14159TIP3   OH263967   5.183   3.947  12.209 -0.3930  0.1264 -0.5586
14159TIP3    H163968   5.103   3.923  12.163 -0.1223  1.7040 -1.9701
14159TIP3    H263969   5.201   3.874  12.268 -3.0493 -0.1133  0.0649
14160TIP3   OH263970   0.349   4.361   0.396 -0.8896 -0.2084 -0.1480
14160TIP3    H163971   0.297   4.325   0.469 -1.7794 -0.9719 -1.1192
14160TIP3    H263972   0.391   4.439   0.432 -1.7075 -0.2915  1.0408
14161TIP3   OH263973   3.950   3.981   1.569 -0.2594  0.1213  0.8747
14161TIP3    H163974   3.855   3.972   1.581 -0.0813 -1.8518  1.1812
14161TIP3    H263975   3.981   4.012   1.654 -0.8465  3.3938  0.0167
14162TIP3   OH263976   4.619   0.587   4.419 -0.4490 -0.7138  0.8436
14162TIP3    H163977   4.536   0.539   4.415 -1.1508  0.5249 -1.6948
14162TIP3    H263978   4.681   0.530   4.374 -0.3099 -0.9162  1.2848
14163TIP3   OH263979   2.174   2.540   2.388  0.0783 -0.0805 -0.3753
14163TIP3    H163980   2.097   2.529   2.331  0.4522  1.0872 -1.1494
14163TIP3    H263981   2.142   2.595   2.460  0.3223  0.9413 -1.0283
14164TIP3   OH263982   3.157   6.078  11.255 -0.1386 -0.2385  0.4315
14164TIP3    H163983   3.167   6.077  11.160 -0.4413  0.0471  0.3934
14164TIP3    H263984   3.150   5.986  11.280 -1.2214 -0.2815  0.0474
14165TIP3   OH263985   0.098   1.883  12.344  0.3888  0.2398 -0.1117
14165TIP3    H163986   0.014   1.839  12.339  0.3987  0.1978  0.0872
14165TIP3    H263987   0.147   1.851  12.268  0.1590  0.4092 -0.3345
14166TIP3   OH263988   1.758   0.328  17.002 -0.0080  0.5320 -0.3374
14166TIP3    H163989   1.751   0.405  17.058 -0.3894 -0.2756  0.7595
14166TIP3    H263990   1.851   0.306  17.001 -0.0617  0.2336  0.4451
14167TIP3   OH263991   1.419   2.704  15.478 -0.6931  0.4950  0.0919
14167TIP3    H163992   1.508   2.707  15.444 -0.7436 -1.5054 -0.3245
14167TIP3    H263993   1.427   2.729  15.570  0.7520 -2.2645  0.7975
14168TIP3   OH263994   6.676   3.373   3.899  0.6234 -0.2080  0.2491
14168TIP3    H163995   6.714   3.355   3.813 -1.4874  1.0193 -1.0331
14168TIP3    H263996   6.703   3.299   3.953 -0.3042 -2.5456 -2.2597
14169TIP3   OH263997   6.641   5.900   0.475  0.1537 -0.7772 -0.3243
14169TIP3    H163998   6.683   5.843   0.411 -0.0324 -2.3965  0.9421
14169TIP3    H263999   6.589   5.961   0.421  1.9870 -0.4095 -1.7847
14170TIP3   OH264000   4.314   4.906   0.139 -0.2897 -0.5654  0.0932
14170TIP3    H164001   4.348   4.829   0.186  2.3793 -0.0609 -0.8394
14170TIP3    H264002   4.389   4.964   0.130 -1.0795  0.1338 -3.2663
14171TIP3   OH264003   3.501   6.283  12.321 -0.0516  0.2201  0.3347
14171TIP3    H164004   3.555   6.289  12.242  2.0406  2.1193  1.7684
14171TIP3    H264005   3.461   6.369  12.329  0.9323  0.5671  2.0400
14172TIP3   OH264006   3.644   3.919   6.606 -0.2502 -0.4171  0.1573
14172TIP3    H164007   3.708   3.853   6.630 -1.0137 -0.8914  0.9460
14172TIP3    H264008   3.560   3.884   6.636 -0.9363  0.0281 -1.1792
14173TIP3   OH264009   5.433   2.286   0.610  0.6117 -0.5598  0.2422
14173TIP3    H164010   5.476   2.201   0.623 -0.2287 -1.0436 -0.0617
14173TIP3    H264011   5.376   2.273   0.534  0.6810  0.3619  0.0221
14174TIP3   OH264012   5.276   3.397  15.294 -0.6717 -0.0893 -0.1266
14174TIP3    H164013   5.232   3.479  15.318  0.8113  0.1269  2.1738
14174TIP3    H264014   5.211   3.329  15.311 -0.5990  0.3124  2.1088
14175TIP3   OH264015   5.266   0.523  14.429 -0.3955 -0.1842  0.1162
14175TIP3    H164016   5.309   0.608  14.437 -1.0464  0.0447  1.3382
14175TIP3    H264017   5.298   0.488  14.345 -1.4742  2.0318 -1.3199
14176TIP3   OH264018   5.423   3.844   1.019  0.5991  0.4522  0.0199
14176TIP3    H164019   5.485   3.784   0.978 -0.0368 -1.1872  1.3475
14176TIP3    H264020   5.395   3.902   0.948  0.3958 -1.5228 -1.6036
14177TIP3   OH264021   0.722   4.180   1.378  0.2377  0.3079 -0.4235
14177TIP3    H164022   0.632   4.200   1.356 -0.3642 -1.0148  0.6613
14177TIP3    H264023   0.752   4.256   1.428 -0.1220  0.9426 -1.1579
14178TIP3   OH264024   4.255   5.689   5.767  0.0493  0.1370 -0.1997
14178TIP3    H164025   4.271   5.686   5.673 -3.0084 -1.6566 -0.8171
14178TIP3    H264026   4.327   5.640   5.806  0.2316 -0.9930 -1.8701
14179TIP3   OH264027   5.567   3.321   0.990 -0.2960  0.6184 -0.2357
14179TIP3    H164028   5.549   3.346   0.900 -0.3430 -1.0534 -0.7346
14179TIP3    H264029   5.611   3.236   0.983 -1.5189 -0.2099  1.3467
14180TIP3   OH264030   6.339   0.505   1.802  0.3250  0.3248 -0.1330
14180TIP3    H164031   6.245   0.512   1.789  0.1893 -0.2348  0.4631
14180TIP3    H264032   6.360   0.414   1.779  0.9177  0.7573 -1.3824
14181TIP3   OH264033   5.279   4.964  12.233 -0.4075 -0.0069 -0.2295
14181TIP3    H164034   5.315   5.053  12.238  0.1980 -0.2870  0.7789
14181TIP3    H264035   5.342   4.916  12.181 -0.6831  0.1187 -0.6884
14182TIP3   OH264036   1.280   5.314  12.266 -0.3357 -0.2217 -0.0412
14182TIP3    H164037   1.239   5.364  12.195 -1.0488 -0.8347 -0.0688
14182TIP3    H264038   1.254   5.361  12.346  0.9101  0.7841 -0.1907
14183TIP3   OH264039   3.101   6.463  11.980  0.3971 -1.1985  0.0960
14183TIP3    H164040   3.158   6.409  12.035  1.1023 -1.0416 -0.4544
14183TIP3    H264041   3.161   6.501  11.915 -0.1954 -0.2911  0.0683
14184TIP3   OH264042   2.164   1.447  14.802  0.2874 -0.2408  0.1423
14184TIP3    H164043   2.097   1.385  14.772  1.0838  0.0928 -2.6964
14184TIP3    H264044   2.247   1.400  14.791  0.8492  0.9873 -1.4004
14185TIP3   OH264045   6.753   0.676  16.100  0.3293 -0.0002 -0.4816
14185TIP3    H164046   6.687   0.699  16.034  2.2275  0.6502 -2.2521
14185TIP3    H264047   6.704   0.673  16.182 -1.5296  2.5592 -1.3639
14186TIP3   OH264048   2.262   5.865  12.644 -0.2593 -0.7608  0.6005
14186TIP3    H164049   2.250   5.889  12.736  0.0680 -0.1577  0.4871
14186TIP3    H264050   2.357   5.863  12.632 -0.2902 -1.3480  0.4030
14187TIP3   OH264051   2.808   5.704  16.722  0.1209 -0.3653  0.0076
14187TIP3    H164052   2.786   5.616  16.691  1.1430 -0.5466 -0.2518
14187TIP3    H264053   2.873   5.689  16.791  1.2612  0.2189 -0.9088
14188TIP3   OH264054   0.824   4.663   3.483  0.5674  0.5816 -0.6828
14188TIP3    H164055   0.793   4.598   3.420 -2.3318  0.5774  0.5899
14188TIP3    H264056   0.781   4.639   3.565  1.7825  2.3684  0.5425
14189TIP3   OH264057   5.735   5.859   2.297 -0.2421 -0.4511 -0.6589
14189TIP3    H164058   5.760   5.869   2.205  1.3460 -2.9514 -0.6047
14189TIP3    H264059   5.784   5.782   2.326 -0.7643  0.2182  2.2777
14190TIP3   OH264060   0.255   6.491  17.041  0.6625 -0.1433 -0.7665
14190TIP3    H164061   0.348   6.472  17.028  0.4037 -2.2796  0.1727
14190TIP3    H264062   0.213   6.405  17.047 -1.3556  0.7736 -0.9091
14191TIP3   OH264063   1.562   2.734   0.743 -0.3118 -0.1587 -0.1336
14191TIP3    H164064   1.512   2.678   0.683 -2.5378  1.2526  0.2778
14191TIP3    H264065   1.502   2.751   0.815  1.3322  0.4334  1.1417
14192TIP3   OH264066   3.169   2.745  11.401  0.1373 -0.0493  0.4197
14192TIP3    H164067   3.239   2.808  11.385 -0.9978  0.9114 -0.9686
14192TIP3    H264068   3.108   2.791  11.459 -0.1617 -0.2619  0.2785
14193TIP3   OH264069   6.566   3.356  15.139 -0.3582  0.5575  0.5063
14193TIP3    H164070   6.505   3.394  15.076  1.4419  2.3395 -0.2955
14193TIP3    H264071   6.528   3.376  15.224 -2.0595 -0.5378  0.0632
14194TIP3   OH264072   4.156   3.825   3.914  0.2393 -0.2225  0.0704
14194TIP3    H164073   4.127   3.915   3.901  1.2166  0.0447 -0.3696
14194TIP3    H264074   4.075   3.775   3.925 -0.2915  0.8017  0.9755
14195TIP3   OH264075   5.284   5.819  15.606 -0.1876 -0.6544  0.1937
14195TIP3    H164076   5.240   5.812  15.691 -0.8411  0.2706 -0.0537
14195TIP3    H264077   5.251   5.900  15.569  0.9462 -0.4747 -0.4674
14196TIP3   OH264078   2.763   5.901  17.113 -0.5514  0.1594  0.1220
14196TIP3    H164079   2.858   5.894  17.123 -0.6575 -1.6024  0.1964
14196TIP3    H264080   2.733   5.944  17.193  0.0596 -0.5111  0.7205
14197TIP3   OH264081   0.701   1.904  14.644  0.1641  0.5525 -0.2986
14197TIP3    H164082   0.654   1.980  14.609  1.7523  1.2102 -1.1282
14197TIP3    H264083   0.710   1.923  14.738  0.0552  1.1240 -0.3988
14198TIP3   OH264084   6.412   3.032   0.188 -0.0497  0.0846 -0.0661
14198TIP3    H164085   6.458   2.972   0.129  1.2213 -0.0088  0.9891
14198TIP3    H264086   6.332   2.985   0.211  1.0754 -1.4142  1.0097
14199TIP3   OH264087   3.429   4.675   1.298  0.0320  0.3274  0.4122
14199TIP3    H164088   3.519   4.661   1.267 -0.9200  0.8546 -3.1050
14199TIP3    H264089   3.382   4.596   1.271 -1.0650  1.2219 -0.3945
14200TIP3   OH264090   6.212   6.191   2.620 -0.1462  0.0262  0.0185
14200TIP3    H164091   6.140   6.163   2.564 -0.8872  1.0993  0.3977
14200TIP3    H264092   6.261   6.253   2.567 -1.4292  1.8223  0.8318
14201TIP3   OH264093   2.627   2.312   1.092 -0.4553 -0.7054  0.2861
14201TIP3    H164094   2.545   2.362   1.089 -1.2680 -1.9138  1.3551
14201TIP3    H264095   2.681   2.358   1.156  0.0927  0.6059 -1.0603
14202TIP3   OH264096   4.372   6.197  13.434 -0.6678  0.0908 -0.5900
14202TIP3    H164097   4.341   6.113  13.470 -0.1383 -0.9384 -2.4144
14202TIP3    H264098   4.440   6.225  13.495 -0.4870 -1.0873 -0.2190
14203TIP3   OH264099   4.939   1.579   6.705 -0.0568 -0.2518 -0.1233
14203TIP3    H164100   4.888   1.617   6.777 -1.1460 -0.5343 -0.7221
14203TIP3    H264101   4.951   1.487   6.729 -0.4972 -0.3674 -0.3368
14204TIP3   OH264102   3.429   4.264   0.600  0.3871  0.1363 -0.6409
14204TIP3    H164103   3.502   4.265   0.537  0.0271 -0.2151 -1.0713
14204TIP3    H264104   3.441   4.344   0.651  1.7631 -0.5010  0.0846
14205TIP3   OH264105   0.899   1.209   4.223  0.3622 -0.4599  0.0514
14205TIP3    H164106   0.882   1.182   4.313 -0.1873 -0.9454 -0.1898
14205TIP3    H264107   0.994   1.215   4.217  0.4711 -1.7571  0.2875
14206TIP3   OH264108   2.725   3.666   4.490 -0.3845 -0.0200  1.2968
14206TIP3    H164109   2.750   3.717   4.566 -0.5571  1.7216  0.2466
14206TIP3    H264110   2.688   3.730   4.429  0.4807 -1.1912 -0.5763
14207TIP3   OH264111   5.032   5.501   2.209 -0.1712 -0.1211  0.2271
14207TIP3    H164112   5.125   5.504   2.185 -0.1252  1.3208  0.4809
14207TIP3    H264113   5.024   5.566   2.279 -1.7235  1.2009 -1.1030
14208TIP3   OH264114   1.470   0.269  13.180 -0.3028 -0.6417  0.4105
14208TIP3    H164115   1.494   0.309  13.097 -0.9706 -0.6682  0.1945
14208TIP3    H264116   1.491   0.336  13.246  0.1036 -0.5705  0.2061
14209TIP3   OH264117   0.439   4.507   3.525 -0.4397 -0.3306  0.0721
14209TIP3    H164118   0.497   4.479   3.453  1.0983  0.4787  0.9430
14209TIP3    H264119   0.442   4.603   3.521 -2.2739 -0.2597 -0.2529
14210TIP3   OH264120   4.141   3.495  16.963  0.1325 -0.1075  0.3129
14210TIP3    H164121   4.078   3.544  16.911  0.4969  1.0121  0.9041
14210TIP3    H264122   4.184   3.561  17.018 -0.8108 -1.3033  2.6630
14211TIP3   OH264123   3.873   4.877   4.919 -0.0912  0.1873  0.9640
14211TIP3    H164124   3.931   4.838   4.854 -1.6021 -2.1514  0.8848
14211TIP3    H264125   3.808   4.925   4.867 -0.3687 -0.3419  0.8086
14212TIP3   OH264126   0.136   4.981   1.596  0.5452  0.5067 -0.3731
14212TIP3    H164127   0.207   4.921   1.572 -2.3230 -2.2818 -2.6634
14212TIP3    H264128   0.131   5.042   1.523  0.0989  0.2144 -0.5877
14213TIP3   OH264129   2.878   1.131   2.307 -0.6790 -0.2368 -0.0986
14213TIP3    H164130   2.888   1.068   2.235 -0.6608  0.3284 -0.5992
14213TIP3    H264131   2.933   1.096   2.377  1.4955  0.5908 -1.3038
14214TIP3   OH264132   0.630   6.823   3.340  0.0844 -0.1772  0.4651
14214TIP3    H164133   0.628   6.802   3.433  1.0862 -1.2354  0.2538
14214TIP3    H264134   0.546   6.791   3.307 -0.3594  0.3767  1.0239
14215TIP3   OH264135   2.258   5.628   5.313 -0.6516  0.4698  0.1611
14215TIP3    H164136   2.169   5.655   5.334 -1.6265 -1.0790 -1.6949
14215TIP3    H264137   2.306   5.711   5.300 -1.9799  1.3158  0.5169
14216TIP3   OH264138   1.925   6.615  15.918 -0.1767  0.2350 -0.4035
14216TIP3    H164139   1.920   6.708  15.939 -1.6443  0.1749 -0.4249
14216TIP3    H264140   1.947   6.572  16.001 -2.6900  0.3148  0.3745
14217TIP3   OH264141   1.928   0.767   5.156  0.7771  0.6266  0.6248
14217TIP3    H164142   1.860   0.776   5.089  0.8638 -0.3378  0.4014
14217TIP3    H264143   1.891   0.811   5.233 -0.3739 -0.4314  0.6984
14218TIP3   OH264144   5.140   5.313   1.793  0.1230 -0.2220  0.1027
14218TIP3    H164145   5.106   5.393   1.833  2.3647  1.6302 -1.4525
14218TIP3    H264146   5.233   5.312   1.816  0.5165 -1.4160 -1.3810
14219TIP3   OH264147   2.801   0.517  14.038  0.4977 -0.2077  0.0595
14219TIP3    H164148   2.764   0.435  14.069 -2.3247  1.3835  1.2505
14219TIP3    H264149   2.857   0.492  13.965 -2.6545 -2.9494 -1.6599
14220TIP3   OH264150   2.322   5.849  16.050 -0.0809 -0.5176  0.8803
14220TIP3    H164151   2.306   5.917  16.116  0.5688 -0.9393  1.4960
14220TIP3    H264152   2.317   5.895  15.966  0.9473  0.4286  1.3076
14221TIP3   OH264153   6.645   6.643   2.304  0.3024  0.2053 -0.8455
14221TIP3    H164154   6.721   6.585   2.301  0.5683  0.5142 -0.2416
14221TIP3    H264155   6.678   6.726   2.269 -0.0953 -0.0190 -1.7766
14222TIP3   OH264156   0.312   5.908  16.722  0.1830  0.0167  0.1781
14222TIP3    H164157   0.307   5.950  16.808 -0.2325 -2.1484  1.2713
14222TIP3    H264158   0.221   5.890  16.699  0.3861 -0.9879  0.1307
14223TIP3   OH264159   1.003   5.115   3.449  0.5754 -0.1953 -0.6117
14223TIP3    H164160   1.019   5.024   3.475 -1.7895 -0.0070  1.9657
14223TIP3    H264161   1.043   5.168   3.517  1.7219  0.7711 -1.9659
14224TIP3   OH264162   3.225   3.900   5.290 -0.1812 -0.1323 -0.2346
14224TIP3    H164163   3.293   3.855   5.342  0.3162 -0.7636 -1.3968
14224TIP3    H264164   3.247   3.880   5.199  0.2866  2.7820 -0.8720
14225TIP3   OH264165   0.006   5.184  10.864 -0.2862 -0.6116 -0.2873
14225TIP3    H164166  -0.086   5.178  10.886 -0.5909  0.3753 -1.1979
14225TIP3    H264167   0.007   5.205  10.770  0.8383 -0.0477 -0.1711
14226TIP3   OH264168   0.517   5.566  13.773  0.7515 -0.5031 -0.4251
14226TIP3    H164169   0.595   5.618  13.753 -1.0564  2.0413 -1.3561
14226TIP3    H264170   0.510   5.504  13.701  2.1329 -1.1209 -0.0716
14227TIP3   OH264171   3.915   5.795   4.515  0.6422  0.3606  0.4063
14227TIP3    H164172   3.916   5.713   4.565  0.0011  1.1334  1.7309
14227TIP3    H264173   3.884   5.861   4.577  1.0072  1.5943 -0.6761
14228TIP3   OH264174   3.535   3.559   0.552  0.9204  0.1162  0.1220
14228TIP3    H164175   3.461   3.606   0.513  0.5630 -0.7471 -0.2715
14228TIP3    H264176   3.589   3.627   0.591 -1.1135  0.6554  2.2383
14229TIP3   OH264177   1.581   4.945   3.071 -0.6503  0.4847  0.0222
14229TIP3    H164178   1.522   5.002   3.022  0.4276  1.0249 -0.7097
14229TIP3    H264179   1.641   5.006   3.116 -0.0587 -0.0451 -0.0327
14230TIP3   OH264180   6.251   0.716   1.529 -0.4238  0.3195 -0.0065
14230TIP3    H164181   6.186   0.783   1.505  0.3855  1.2544  0.3345
14230TIP3    H264182   6.269   0.670   1.447 -0.2769  1.1721 -0.4751
14231TIP3   OH264183   2.262   2.039  11.849  0.2611  0.1009 -0.2404
14231TIP3    H164184   2.286   1.960  11.897 -0.0814  0.1680  0.0475
14231TIP3    H264185   2.217   2.094  11.913 -0.2838  0.1531 -0.6530
14232TIP3   OH264186   2.466   3.553   3.672  0.4549 -0.1830 -0.0359
14232TIP3    H164187   2.404   3.583   3.738  1.1481 -0.8129  0.9361
14232TIP3    H264188   2.524   3.628   3.658 -0.4902  0.4004 -0.9343
14233TIP3   OH264189   0.094   5.043  15.649  0.5585 -0.1897 -0.0317
14233TIP3    H164190   0.023   5.108  15.650 -0.6077 -1.3940 -0.4077
14233TIP3    H264191   0.088   5.000  15.734  1.4317  0.2837  0.2804
14234TIP3   OH264192   0.827   6.500   5.393  0.1702  0.1467  0.3975
14234TIP3    H164193   0.894   6.520   5.327  2.5351  1.1719  2.9066
14234TIP3    H264194   0.751   6.473   5.342  2.6798 -1.8921 -2.6574
14235TIP3   OH264195   3.732   6.026  13.885 -0.4962  0.3086 -0.1981
14235TIP3    H164196   3.720   5.948  13.939  1.4865 -1.0302 -1.5736
14235TIP3    H264197   3.823   6.022  13.856 -0.8136  2.2576 -1.6871
14236TIP3   OH264198   2.467   6.208  14.399  0.1815 -0.0189  0.3350
14236TIP3    H164199   2.423   6.212  14.314 -2.1751 -1.0832  1.4033
14236TIP3    H264200   2.403   6.245  14.460  1.6385  0.2931  1.7443
14237TIP3   OH264201   0.675   2.015  14.901  0.2973  0.7421 -0.5554
14237TIP3    H164202   0.715   1.979  14.979 -0.0062  1.8920  0.1557
14237TIP3    H264203   0.583   1.992  14.908  0.6273 -1.2369 -1.8109
14238TIP3   OH264204   0.030   4.083   2.641  0.0158 -0.1532 -0.2660
14238TIP3    H164205  -0.015   4.045   2.566 -2.3309 -0.1707  1.0327
14238TIP3    H264206   0.102   4.022   2.660  1.3496  0.4216 -3.0587
14239TIP3   OH264207   5.369   5.627   3.761  0.2621 -0.0955  0.5067
14239TIP3    H164208   5.366   5.717   3.727 -0.9041  0.1143  1.1007
14239TIP3    H264209   5.310   5.629   3.836 -0.3888 -1.5675  0.0521
14240TIP3   OH264210   1.921   6.396   1.469 -0.2662 -0.1414  0.0537
14240TIP3    H164211   1.853   6.328   1.469  0.3378 -0.7517  0.1220
14240TIP3    H264212   2.002   6.350   1.449  0.0605  0.6702 -0.5492
14241TIP3   OH264213   0.557   1.821   6.540  0.3102 -0.5378  0.1984
14241TIP3    H164214   0.649   1.804   6.558  0.0825 -0.2986  1.6893
14241TIP3    H264215   0.556   1.908   6.502  0.7230 -0.6628 -0.1072
14242TIP3   OH264216   0.200   3.649  13.943  1.1006  0.3798 -0.1147
14242TIP3    H164217   0.107   3.627  13.937  0.3606  2.5562  1.6420
14242TIP3    H264218   0.201   3.744  13.956  3.6777  0.6358 -1.5244
14243TIP3   OH264219   2.853   6.350  13.786 -0.5453 -0.1980 -0.0515
14243TIP3    H164220   2.883   6.263  13.811 -2.2819 -0.8129  0.0221
14243TIP3    H264221   2.773   6.334  13.734 -0.7057  1.3285 -0.3265
14244TIP3   OH264222   5.178   5.478  14.947 -0.1247  0.0226  0.0902
14244TIP3    H164223   5.154   5.542  15.014 -1.3251 -1.1187  0.7999
14244TIP3    H264224   5.187   5.396  14.995  0.8745 -0.4523 -0.8770
14245TIP3   OH264225   3.567   6.062  13.488  0.1834 -0.3093  0.1620
14245TIP3    H164226   3.493   6.120  13.505  0.9517  0.7135  0.1124
14245TIP3    H264227   3.540   5.977  13.523 -2.0492 -0.6752 -2.1220
14246TIP3   OH264228   6.474   4.215   0.906 -0.6038  0.5542 -0.3247
14246TIP3    H164229   6.547   4.274   0.927  0.3366 -0.9784  0.9890
14246TIP3    H264230   6.399   4.252   0.953  0.3067 -0.0296  1.7103
14247TIP3   OH264231   6.423   2.790   5.568 -0.4940  1.0758 -0.0678
14247TIP3    H164232   6.440   2.832   5.483  0.1969 -0.8134 -0.9014
14247TIP3    H264233   6.443   2.698   5.554 -2.3791  0.3489  1.5979
14248TIP3   OH264234   0.660   4.166   3.479  0.0146 -0.7868  0.2865
14248TIP3    H164235   0.566   4.165   3.495  0.1398 -0.4198  1.0960
14248TIP3    H264236   0.699   4.145   3.564  0.6490 -2.1917 -0.3110
14249TIP3   OH264237   6.380   2.742  14.927 -0.0479 -0.0173 -0.1953
14249TIP3    H164238   6.463   2.699  14.910  0.8674  0.5993  2.2939
14249TIP3    H264239   6.368   2.735  15.022 -2.8809 -0.1342 -0.4568
14250TIP3   OH264240   6.650   3.868   4.877 -0.2217  0.4795  0.3161
14250TIP3    H164241   6.697   3.936   4.828 -1.6705  1.6720  0.4731
14250TIP3    H264242   6.643   3.795   4.815  1.4705  0.3912  0.1813
14251TIP3   OH264243   2.149   2.726  16.675 -0.2477  0.4519  0.4425
14251TIP3    H164244   2.140   2.663  16.746  0.8849 -1.6416 -1.1802
14251TIP3    H264245   2.243   2.736  16.663 -0.4178  1.7177 -0.0145
14252TIP3   OH264246   1.244   1.575   2.888 -0.4236  0.2639 -0.1956
14252TIP3    H164247   1.253   1.481   2.875 -1.9434  0.2953 -1.8723
14252TIP3    H264248   1.334   1.609   2.885  0.2805 -1.2394  1.9117
14253TIP3   OH264249   5.450   1.293  17.145  0.2619  0.0084 -0.0721
14253TIP3    H164250   5.480   1.377  17.111  1.5744 -0.9211 -1.3917
14253TIP3    H264251   5.498   1.282  17.227 -0.9715  1.1387  0.8279
14254TIP3   OH264252   6.804   5.332   4.582  0.0467 -0.0681  0.0310
14254TIP3    H164253   6.899   5.341   4.577  0.3898 -0.5019  3.2331
14254TIP3    H264254   6.784   5.257   4.527  1.4012  0.6217 -1.4781
14255TIP3   OH264255   3.808   2.830  13.925  0.1104 -0.0727 -0.0323
14255TIP3    H164256   3.756   2.817  13.847  1.5737  0.2103 -1.1042
14255TIP3    H264257   3.881   2.886  13.897  0.0040  1.1097  1.8184
14256TIP3   OH264258   4.196   4.989  15.552 -0.2919  0.0252  0.0614
14256TIP3    H164259   4.130   5.058  15.541 -1.5064 -1.2646 -1.0508
14256TIP3    H264260   4.187   4.962  15.643  0.7984  1.8774  0.7737
14257TIP3   OH264261   1.499   5.157  13.375  0.4245 -0.2715 -0.2687
14257TIP3    H164262   1.452   5.240  13.371  1.4513  0.2878 -1.4318
14257TIP3    H264263   1.592   5.182  13.374  0.7504 -1.4537 -1.3792
14258TIP3   OH264264   2.509   5.514   3.408  0.5088 -0.3505 -0.2329
14258TIP3    H164265   2.466   5.491   3.326  1.0158 -1.2326 -0.2579
14258TIP3    H264266   2.578   5.450   3.418  1.0493  0.3151  0.4241
14259TIP3   OH264267   3.343   1.167   1.337 -0.2376 -0.8211 -0.4378
14259TIP3    H164268   3.353   1.253   1.297  0.0912  0.8134  2.8712
14259TIP3    H264269   3.248   1.157   1.348 -0.2271 -0.4344  0.0327
14260TIP3   OH264270   3.751   5.096  10.944  0.5027 -0.2467 -0.5468
14260TIP3    H164271   3.807   5.124  11.017  0.5174 -1.3527 -0.1128
14260TIP3    H264272   3.666   5.079  10.984  0.6036 -1.1902 -0.7224
14261TIP3   OH264273   2.692   0.272  14.049 -0.0171 -1.0134  0.5743
14261TIP3    H164274   2.747   0.235  14.119  0.8544 -0.5360  0.1534
14261TIP3    H264275   2.604   0.238  14.068  0.2634 -1.1559  1.7116
14262TIP3   OH264276   5.043   3.710  14.930 -0.0128 -0.7194  0.3670
14262TIP3    H164277   5.062   3.783  14.872 -1.6276  0.4982  1.2853
14262TIP3    H264278   4.986   3.652  14.879  1.0820 -1.2609 -0.2807
14263TIP3   OH264279   5.915   2.982  15.262  0.0870 -0.2134 -0.3168
14263TIP3    H164280   5.824   2.954  15.269 -0.6967  2.3013  0.6187
14263TIP3    H264281   5.950   2.975  15.351  0.7873 -0.9994 -0.6373
14264TIP3   OH264282   1.117   0.227   5.843  0.4873  0.5213  0.2529
14264TIP3    H164283   1.129   0.279   5.922  0.3857  0.3511  0.3790
14264TIP3    H264284   1.078   0.145   5.873 -0.5492  0.8746 -0.0920
14265TIP3   OH264285   3.567   5.988   2.812 -0.0770 -0.1259 -0.4619
14265TIP3    H164286   3.526   6.008   2.896 -1.5495 -0.6516 -1.0196
14265TIP3    H264287   3.583   5.894   2.815  0.6360 -0.0123 -0.4619
14266TIP3   OH264288   3.937   3.558  14.132  0.5621 -0.3240  0.1912
14266TIP3    H164289   3.966   3.555  14.223 -0.7852  0.0056  0.6529
14266TIP3    H264290   3.878   3.484  14.122  1.5786 -1.0481 -0.7663
14267TIP3   OH264291   4.175   1.265  12.190  0.5201  0.3531 -0.2191
14267TIP3    H164292   4.111   1.232  12.253 -0.3451  0.6932 -0.8801
14267TIP3    H264293   4.254   1.282  12.241  0.6979 -1.7932  0.3053
14268TIP3   OH264294   3.733   3.876  11.370 -0.3517 -0.3071 -0.3333
14268TIP3    H164295   3.777   3.814  11.311 -0.3484 -0.7506  0.1242
14268TIP3    H264296   3.663   3.825  11.410 -1.5022  0.4760 -1.2887
14269TIP3   OH264297   0.217   2.446  12.939 -0.3761 -0.0548  0.8130
14269TIP3    H164298   0.291   2.391  12.964 -0.1882  0.4138  1.2771
14269TIP3    H264299   0.147   2.383  12.919  0.1938 -0.5040  0.1691
14270TIP3   OH264300   3.441   6.065   1.199 -0.7533  0.5534 -0.4980
14270TIP3    H164301   3.417   6.120   1.273 -0.2017  0.2408 -0.0816
14270TIP3    H264302   3.476   6.126   1.134 -0.2974  0.7252 -0.1004
14271TIP3   OH264303   3.846   3.091  11.027 -0.4236 -0.2514  0.4546
14271TIP3    H164304   3.910   3.163  11.026  1.2031 -1.6404 -0.4322
14271TIP3    H264305   3.812   3.088  10.938  0.3276 -1.2313  0.1798
14272TIP3   OH264306   1.951   0.413   1.167  0.2320  0.5331 -0.0176
14272TIP3    H164307   2.009   0.438   1.239  0.6388  1.2263 -0.5760
14272TIP3    H264308   1.944   0.492   1.113 -1.4687  0.5669  0.1787
14273TIP3   OH264309   2.178   1.270  16.804  0.0358 -0.0763 -0.0326
14273TIP3    H164310   2.113   1.336  16.782  0.9681  1.0321  0.4204
14273TIP3    H264311   2.206   1.234  16.720 -0.4747  0.0897 -0.2774
14274TIP3   OH264312   0.025   2.325  13.860 -0.5126 -0.4539 -0.2720
14274TIP3    H164313  -0.061   2.282  13.858 -1.3040  1.0261  0.2826
14274TIP3    H264314   0.041   2.340  13.953  0.2222 -0.4588 -0.3963
14275TIP3   OH264315   2.988   1.223   5.409  0.1836  0.0819 -1.0768
14275TIP3    H164316   2.992   1.316   5.433 -0.1788 -0.7420  2.8784
14275TIP3    H264317   2.903   1.213   5.366 -0.0052  1.4914 -1.0730
14276TIP3   OH264318   6.471   4.122  16.207  0.1108 -0.5932  0.2125
14276TIP3    H164319   6.403   4.078  16.258 -1.2607  0.3698 -0.7406
14276TIP3    H264320   6.501   4.056  16.145 -0.8771 -0.6540 -0.2146
14277TIP3   OH264321   2.359   6.386   1.594  0.1001 -0.1464  0.1992
14277TIP3    H164322   2.328   6.356   1.679 -0.1948 -0.9506 -0.1808
14277TIP3    H264323   2.430   6.448   1.614 -0.1589 -0.1117  1.0245
14278TIP3   OH264324   3.339   2.784  14.129 -0.5464 -0.4464  0.1047
14278TIP3    H164325   3.295   2.793  14.044 -0.1605  3.5891  0.1286
14278TIP3    H264326   3.429   2.814  14.113 -0.0527 -0.9817  1.6572
14279TIP3   OH264327   3.498   5.809  14.540  0.3065 -0.3988  0.4019
14279TIP3    H164328   3.468   5.723  14.509 -2.7124  0.6181  0.2221
14279TIP3    H264329   3.448   5.825  14.620 -0.6765  1.9671 -0.5991
14280TIP3   OH264330   0.043   2.269  12.817  0.0500  0.6443  0.1354
14280TIP3    H164331   0.048   2.336  12.749  2.0466  0.1526 -0.2705
14280TIP3    H264332   0.044   2.186  12.769 -1.1956  0.2886  0.6861
14281TIP3   OH264333   6.205   0.128   6.646 -0.3626  0.0033  0.3803
14281TIP3    H164334   6.173   0.190   6.711  0.3457  0.2240  0.5286
14281TIP3    H264335   6.133   0.066   6.634 -0.5769  0.0799  1.2190
14282TIP3   OH264336   4.765   1.328   0.095  0.0529 -0.4938 -0.0648
14282TIP3    H164337   4.774   1.413   0.053  0.4758  0.0817  1.1491
14282TIP3    H264338   4.785   1.265   0.026 -0.2069  0.3796 -0.9638
14283TIP3   OH264339   4.901   0.056  15.786  0.6139  0.0361 -0.2215
14283TIP3    H164340   4.813   0.083  15.813  0.5523 -0.6343  0.2514
14283TIP3    H264341   4.951   0.051  15.868  0.5805 -1.4356 -0.2714
14284TIP3   OH264342   5.653   2.447  14.372  0.0249  0.2363 -0.9908
14284TIP3    H164343   5.595   2.450  14.448  0.7556  1.1316 -0.4514
14284TIP3    H264344   5.602   2.402  14.305 -0.7113 -0.3846 -0.0438
14285TIP3   OH264345   6.539   6.416   0.493 -0.0968 -0.2756 -0.3428
14285TIP3    H164346   6.453   6.452   0.516 -0.5566  0.1044 -2.4730
14285TIP3    H264347   6.602   6.481   0.527 -0.7251  0.3486 -0.3540
14286TIP3   OH264348   4.885   5.605   4.842 -0.9071  0.3773  0.4773
14286TIP3    H164349   4.966   5.585   4.795 -0.5908 -0.2121  1.2489
14286TIP3    H264350   4.835   5.524   4.839 -1.3514  0.6617  0.2333
14287TIP3   OH264351   2.373   3.559  12.405  0.4671 -0.4729 -0.1215
14287TIP3    H164352   2.354   3.505  12.482  0.2594 -0.6678 -0.3099
14287TIP3    H264353   2.418   3.500  12.344  2.2725  0.1139  0.5492
14288TIP3   OH264354   3.417   6.240   3.486 -0.1739  0.1764 -0.3300
14288TIP3    H164355   3.454   6.251   3.398  1.4998 -1.7569  0.0594
14288TIP3    H264356   3.479   6.286   3.543 -1.0062  1.0319 -0.1016
14289TIP3   OH264357   6.787   2.758  12.203  0.4166 -0.4802  0.8133
14289TIP3    H164358   6.857   2.748  12.268  1.5779 -0.2358 -0.3621
14289TIP3    H264359   6.830   2.799  12.128 -0.8127 -1.1176 -0.2692
14290TIP3   OH264360   4.816   2.973   3.818 -0.2828  0.0661 -0.3354
14290TIP3    H164361   4.909   2.996   3.825  0.0379 -1.4737  1.4492
14290TIP3    H264362   4.814   2.900   3.757 -0.5107  0.9511 -1.3992
14291TIP3   OH264363   6.270   6.325   1.508 -0.7069 -0.1868 -0.4993
14291TIP3    H164364   6.323   6.287   1.578 -2.2658  0.5117  1.1452
14291TIP3    H264365   6.183   6.287   1.520 -0.8304 -0.6757 -2.6033
14292TIP3   OH264366   0.051   2.324  11.924  0.2559 -0.3141 -0.1103
14292TIP3    H164367  -0.011   2.304  11.994  0.4864  0.0892  0.2176
14292TIP3    H264368   0.133   2.282  11.951  0.8946  1.4438  0.8528
14293TIP3   OH264369   5.067   3.539  11.963  0.0927  0.9738 -0.0701
14293TIP3    H164370   5.104   3.517  11.877 -0.6305 -0.1543 -0.1114
14293TIP3    H264371   5.048   3.454  12.003  0.6004  1.4848  1.2975
14294TIP3   OH264372   5.315   1.380  14.352 -0.2823 -0.4895 -0.1693
14294TIP3    H164373   5.248   1.341  14.296 -0.2657 -0.5257 -0.1643
14294TIP3    H264374   5.351   1.307  14.401 -1.2947 -0.2452  0.9636
14295TIP3   OH264375   1.171   2.212  13.381 -0.2176  0.7397  0.2777
14295TIP3    H164376   1.125   2.274  13.325  1.6449 -0.2874 -2.6228
14295TIP3    H264377   1.131   2.127  13.361  0.7964  0.2913  0.1004
14296TIP3   OH264378   5.476   4.236  15.675 -0.2315  1.0203 -0.4174
14296TIP3    H164379   5.415   4.176  15.632  0.3495  1.0179 -1.2585
14296TIP3    H264380   5.511   4.186  15.749 -0.4278  0.6340 -0.5822
14297TIP3   OH264381   4.606   2.452   2.386 -0.5841  0.4808  0.2687
14297TIP3    H164382   4.685   2.461   2.440 -0.0866 -1.1765 -0.0928
14297TIP3    H264383   4.541   2.412   2.445 -0.6130  0.3299  0.1361
14298TIP3   OH264384   5.959   1.998  15.596  0.0082  0.3755  0.2388
14298TIP3    H164385   5.902   2.056  15.645 -0.2443  0.7958 -0.5372
14298TIP3    H264386   5.904   1.963  15.526  0.1679 -0.7611  0.6554
14299TIP3   OH264387   4.173   6.129   5.715 -0.3457  0.5809  0.2082
14299TIP3    H164388   4.111   6.072   5.762  0.6444 -2.1624 -1.5699
14299TIP3    H264389   4.131   6.145   5.631  0.5091  0.3300 -0.2702
14300TIP3   OH264390   0.772   4.514  17.208  0.1669  0.3138  0.8589
14300TIP3    H164391   0.807   4.586  17.259  0.5896  1.0478 -0.4367
14300TIP3    H264392   0.845   4.485  17.153 -0.5530  0.2082 -0.0628
14301TIP3   OH264393   0.761   4.250  12.586 -0.5136  0.1241  0.2815
14301TIP3    H164394   0.689   4.288  12.637  0.8382  2.1349  0.8026
14301TIP3    H264395   0.752   4.288  12.499 -1.0891 -1.0227 -0.1830
14302TIP3   OH264396   3.560   1.746   0.349  0.2846 -0.0827  0.6615
14302TIP3    H164397   3.498   1.789   0.290  1.7022 -0.2224 -1.0144
14302TIP3    H264398   3.506   1.686   0.401 -1.1413  0.7125  0.1474
14303TIP3   OH264399   0.764   6.748  16.865  0.8412  0.3178  0.2724
14303TIP3    H164400   0.765   6.836  16.905 -4.4358  0.1571  1.4431
14303TIP3    H264401   0.726   6.762  16.778 -0.5756 -0.7764  0.6833
14304TIP3   OH264402   0.062   2.675  13.650 -0.2483 -0.1483  0.1838
14304TIP3    H164403   0.073   2.628  13.732  3.6849 -2.0352 -1.1857
14304TIP3    H264404   0.114   2.755  13.660 -0.4982  0.0673 -0.1787
14305TIP3   OH264405   5.244   6.509   2.750  0.4709  0.3860 -0.3437
14305TIP3    H164406   5.258   6.414   2.750  0.8675  0.3200  3.4158
14305TIP3    H264407   5.331   6.546   2.766 -0.0378  1.2586  0.4725
14306TIP3   OH264408   3.254   3.068  14.260  0.2346  0.0083  0.5476
14306TIP3    H164409   3.221   3.079  14.349  0.7595 -0.9343  0.8801
14306TIP3    H264410   3.349   3.060  14.271  0.1128 -2.8954  0.2528
14307TIP3   OH264411   5.986   4.327  15.794 -0.5233  0.0467 -0.3674
14307TIP3    H164412   5.991   4.243  15.749  0.8632 -0.4827  0.6826
14307TIP3    H264413   6.017   4.391  15.730 -1.7593 -0.1826 -1.2354
14308TIP3   OH264414   3.203   2.121   2.964  0.2880 -0.0531 -0.2393
14308TIP3    H164415   3.182   2.205   2.925 -1.7499 -0.1310  0.5931
14308TIP3    H264416   3.160   2.122   3.049  0.4292 -1.8420 -0.1043
14309TIP3   OH264417   4.182   3.072   1.905 -0.3615 -0.7611  0.2803
14309TIP3    H164418   4.268   3.032   1.898  0.0251  0.2936 -1.7037
14309TIP3    H264419   4.165   3.077   2.000  2.4464  0.4099  0.8269
14310TIP3   OH264420   1.705   5.801   4.618  0.5800 -0.9112  0.2866
14310TIP3    H164421   1.789   5.786   4.576  0.2152  0.9043 -1.2583
14310TIP3    H264422   1.673   5.714   4.639  2.0075 -1.7557 -0.8108
14311TIP3   OH264423   5.551   3.910   5.622 -0.2215  0.2444 -0.9370
14311TIP3    H164424   5.606   3.837   5.593 -1.6184 -1.9386  1.4575
14311TIP3    H264425   5.523   3.953   5.541  2.2015 -0.6594 -2.3481
14312TIP3   OH264426   1.570   2.440   0.378  0.5922 -0.0636  0.6051
14312TIP3    H164427   1.648   2.464   0.327  0.1209  2.6682  1.0484
14312TIP3    H264428   1.604   2.423   0.466  0.8448 -0.1968  0.4840
14313TIP3   OH264429   1.471   0.849  16.168  0.1116  0.4347 -0.0491
14313TIP3    H164430   1.443   0.767  16.129 -0.9078  0.1583  1.1960
14313TIP3    H264431   1.445   0.843  16.260 -2.4500  3.1785 -0.4187
14314TIP3   OH264432   0.376   3.624  10.743 -0.1387 -0.1014  0.6707
14314TIP3    H164433   0.395   3.717  10.754  2.0204 -0.4265  0.1558
14314TIP3    H264434   0.366   3.612  10.649 -0.1404 -0.4317  0.7115
14315TIP3   OH264435   2.336   3.357  13.264  0.8018  0.3195 -0.0516
14315TIP3    H164436   2.358   3.394  13.350  1.8374  1.5253 -0.7878
14315TIP3    H264437   2.285   3.279  13.283  2.3454 -0.3269  1.7128
14316TIP3   OH264438   6.747   0.876  14.871  0.3580  0.5265 -0.0831
14316TIP3    H164439   6.729   0.929  14.948 -1.6810  0.0257 -0.1484
14316TIP3    H264440   6.834   0.839  14.886 -0.2124  0.0046  2.2346
14317TIP3   OH264441   2.049   2.496  15.794 -0.2119  0.0184 -0.1540
14317TIP3    H164442   2.046   2.578  15.746  0.4284  0.9777  1.3687
14317TIP3    H264443   1.960   2.484  15.827 -0.0993  0.6084  0.3914
14318TIP3   OH264444   4.896   0.438   2.669  0.4304 -0.0525 -0.2139
14318TIP3    H164445   4.823   0.477   2.717  0.2223 -0.5687 -0.1062
14318TIP3    H264446   4.940   0.513   2.627  1.6277  0.6601  2.1184
14319TIP3   OH264447   3.858   6.316   5.588 -0.0442 -0.3198  0.0325
14319TIP3    H164448   3.938   6.324   5.537 -1.4105  1.7665 -1.9757
14319TIP3    H264449   3.841   6.221   5.591  1.0617 -0.6346 -1.8836
14320TIP3   OH264450   1.896   2.809   4.654  0.1048  0.3952 -0.1287
14320TIP3    H164451   1.808   2.839   4.678  0.3507  0.0966  1.1907
14320TIP3    H264452   1.881   2.755   4.576 -0.8452  0.5823 -0.0935
14321TIP3   OH264453   1.761   6.780   5.350 -0.5094 -0.0550  0.9350
14321TIP3    H164454   1.737   6.776   5.442  1.0371  0.1923  1.3743
14321TIP3    H264455   1.814   6.702   5.335  0.2127  0.4933  0.5574
14322TIP3   OH264456   0.660   4.397  13.746 -0.1129  0.2718 -0.1042
14322TIP3    H164457   0.633   4.475  13.793  2.6508  0.2118  1.8305
14322TIP3    H264458   0.643   4.325  13.806  1.8872 -0.0042  0.2208
14323TIP3   OH264459   1.986   0.853  11.641  0.2563  0.2205  0.2190
14323TIP3    H164460   2.014   0.940  11.672 -1.9781  0.9588  0.3453
14323TIP3    H264461   1.955   0.809  11.720  1.3433 -0.7060  0.1443
14324TIP3   OH264462   6.387   1.041   4.124  0.3010 -0.0600  0.3350
14324TIP3    H164463   6.410   1.133   4.118  0.0274  0.0300  0.6495
14324TIP3    H264464   6.457   1.002   4.177  0.0170  0.1127  0.8426
14325TIP3   OH264465   1.328   4.868   3.871 -0.5897 -0.2735 -0.0509
14325TIP3    H164466   1.318   4.833   3.783  0.8768  1.8698 -1.1667
14325TIP3    H264467   1.283   4.952   3.869  0.5119  0.3758  0.8471
14326TIP3   OH264468   2.467   3.249   2.974 -0.0455  0.4236 -0.4149
14326TIP3    H164469   2.504   3.312   3.036 -1.3283  0.6048  0.1945
14326TIP3    H264470   2.512   3.167   2.995  0.3136  0.7244  0.0255
14327TIP3   OH264471   6.284   0.460  15.389 -0.2877 -0.1631 -0.3566
14327TIP3    H164472   6.260   0.513  15.312 -1.8814 -1.5187 -0.8481
14327TIP3    H264473   6.214   0.478  15.452  1.5705  1.7786  1.2921
14328TIP3   OH264474   0.515   6.074  16.611  0.1517  0.3852 -0.1182
14328TIP3    H164475   0.446   6.010  16.630  0.3358  0.2688  0.1627
14328TIP3    H264476   0.547   6.050  16.524  1.6338 -1.2142  0.7892
14329TIP3   OH264477   3.025   6.079   6.429 -0.4132 -0.1202  0.5234
14329TIP3    H164478   2.964   6.078   6.356  0.3073 -0.8950 -0.0835
14329TIP3    H264479   2.977   6.036   6.500 -0.3383 -1.3953 -0.1658
14330TIP3   OH264480   0.002   4.637   2.931  0.0821 -0.0221 -0.6351
14330TIP3    H164481   0.074   4.691   2.963  0.3185  1.1062 -2.8547
14330TIP3    H264482   0.041   4.552   2.913 -0.2988 -1.1126  2.9446
14331TIP3   OH264483   4.749   2.170   1.423  0.1537  0.1817  0.2529
14331TIP3    H164484   4.829   2.164   1.476  1.2357  1.3990 -1.1276
14331TIP3    H264485   4.678   2.153   1.485  1.3744  0.9217  1.9672
14332TIP3   OH264486   0.175   2.085  13.108  0.2227  0.2188  0.0482
14332TIP3    H164487   0.235   2.129  13.049  1.2164 -0.0400  0.8267
14332TIP3    H264488   0.162   2.147  13.180 -0.2136  0.1589  0.0247
14333TIP3   OH264489   6.500   0.961  15.502  0.1494 -0.3177 -0.1935
14333TIP3    H164490   6.457   0.877  15.484  1.9250 -1.4830  0.6827
14333TIP3    H264491   6.591   0.938  15.522  0.3442  1.6462  1.6268
14334TIP3   OH264492   4.096   6.455  14.880 -0.3526 -0.5568 -0.1129
14334TIP3    H164493   4.130   6.425  14.965  1.5078  0.1866 -0.5460
14334TIP3    H264494   4.071   6.546  14.896 -3.8547 -1.4891  0.6104
14335TIP3   OH264495   0.798   0.153  12.027 -0.2231 -0.4788  0.3308
14335TIP3    H164496   0.848   0.173  11.948  0.5143  1.3353  1.1855
14335TIP3    H264497   0.807   0.059  12.039  3.2917 -0.2407  0.5630
14336TIP3   OH264498   1.555   0.138   2.497  0.2106  0.1219 -0.2507
14336TIP3    H164499   1.569   0.131   2.591 -0.6403 -0.8789 -0.1827
14336TIP3    H264500   1.643   0.139   2.460  0.5883 -2.1692  0.4096
14337TIP3   OH264501   3.379   0.227   1.396  0.0543 -0.2057  0.0842
14337TIP3    H164502   3.385   0.152   1.455  0.3698 -0.8842 -0.7866
14337TIP3    H264503   3.412   0.195   1.313 -0.5365  0.6852 -0.5176
14338TIP3   OH264504   5.283   1.478   6.479 -0.3978  0.7694 -0.6331
14338TIP3    H164505   5.191   1.463   6.456 -0.4564 -0.4312  0.2805
14338TIP3    H264506   5.326   1.394   6.462  0.3138  1.0050 -0.0576
14339TIP3   OH264507   2.498   2.535   3.248  0.2124 -0.0513  0.1076
14339TIP3    H164508   2.489   2.500   3.160  0.3560 -1.5277  0.6482
14339TIP3    H264509   2.411   2.570   3.269  0.4654  1.3532 -0.9968
14340TIP3   OH264510   1.885   1.840  16.157 -0.0283  0.2187  0.3356
14340TIP3    H164511   1.922   1.883  16.080  1.8058 -1.2787  0.3242
14340TIP3    H264512   1.790   1.840  16.141  0.4022 -1.8501 -2.9500
14341TIP3   OH264513   2.908   3.106  13.355 -0.5083  0.2651  0.0625
14341TIP3    H164514   2.856   3.035  13.393 -0.4365 -0.8790 -1.8544
14341TIP3    H264515   2.999   3.083  13.375 -0.5042 -0.0317 -0.2873
14342TIP3   OH264516   2.754   4.685  17.009 -0.9099  0.6313 -0.0509
14342TIP3    H164517   2.661   4.664  16.995 -0.7589 -0.2034  0.1167
14342TIP3    H264518   2.790   4.606  17.048 -0.2424  1.1593  0.4110
14343TIP3   OH264519   6.681   3.300  12.480  0.3786  0.1352 -0.4171
14343TIP3    H164520   6.627   3.285  12.402  1.7531  1.6396 -1.7350
14343TIP3    H264521   6.730   3.380  12.460  0.7969  0.5507  2.0121
14344TIP3   OH264522   3.997   5.199  11.739 -0.4423  0.5933  0.1500
14344TIP3    H164523   3.936   5.269  11.715  1.1245  1.3470 -1.8490
14344TIP3    H264524   4.081   5.242  11.749  0.3780 -0.8626 -0.1629
14345TIP3   OH264525   2.716   3.929   2.513  0.0881  0.0768  0.3183
14345TIP3    H164526   2.701   3.977   2.594 -1.4387 -0.0053  0.1141
14345TIP3    H264527   2.637   3.945   2.460  0.0873 -1.5925 -0.2728
14346TIP3   OH264528   4.225   6.443  14.100 -0.3915  0.0325 -0.3177
14346TIP3    H164529   4.218   6.449  14.005 -0.8062  1.3944 -0.2205
14346TIP3    H264530   4.296   6.503  14.123  2.4719 -3.1350 -0.0314
14347TIP3   OH264531   6.312   0.061   0.572 -0.5834  0.7462 -0.1138
14347TIP3    H164532   6.235   0.009   0.596 -0.5043 -0.1275 -1.6443
14347TIP3    H264533   6.276   0.144   0.543 -1.1122 -0.1576 -2.1990
14348TIP3   OH264534   2.362   4.556   4.653  0.5996 -0.0035 -1.3668
14348TIP3    H164535   2.269   4.578   4.655  0.5882  0.2538  2.0524
14348TIP3    H264536   2.363   4.460   4.655  0.4305 -0.0155 -1.7085
14349TIP3   OH264537   1.813   0.081  11.936  0.2137 -0.0391 -0.5097
14349TIP3    H164538   1.732   0.110  11.894  0.0032  0.6634  0.3590
14349TIP3    H264539   1.828  -0.007  11.901 -0.1162  0.3980 -1.8156
14350TIP3   OH264540   3.666   4.197  15.055  0.2804 -0.1851 -0.1678
14350TIP3    H164541   3.604   4.215  15.126 -1.0945 -1.9684 -0.8538
14350TIP3    H264542   3.749   4.232  15.087 -0.7575  0.9859  1.3928
14351TIP3   OH264543   1.376   5.314   4.816 -0.6667  0.5324  0.0872
14351TIP3    H164544   1.330   5.355   4.889  0.7899  0.2521  1.2028
14351TIP3    H264545   1.366   5.220   4.831  1.2532  0.4395  1.0436
14352TIP3   OH264546   5.949   4.699   5.542  0.1092 -0.2596  0.7047
14352TIP3    H164547   5.902   4.657   5.614 -1.9759  0.7780  0.0337
14352TIP3    H264548   5.890   4.692   5.467  2.6196 -2.1977 -1.2819
14353TIP3   OH264549   2.156   5.671  10.933 -0.0018  0.2149 -0.3722
14353TIP3    H164550   2.242   5.688  10.896  0.3034  0.3690  0.3983
14353TIP3    H264551   2.146   5.576  10.928 -0.5201  0.3080 -2.0386
14354TIP3   OH264552   0.520   0.128  13.456 -0.0979 -0.0543  0.0035
14354TIP3    H164553   0.519   0.135  13.551  1.5534 -0.9101  0.1179
14354TIP3    H264554   0.539   0.216  13.425 -0.4705  0.1901  0.4575
14355TIP3   OH264555   5.976   5.750   6.585 -0.1242  0.0906 -0.4225
14355TIP3    H164556   5.922   5.685   6.540 -0.6265  0.1905  0.0279
14355TIP3    H264557   5.914   5.818   6.612  0.3470  0.6046 -0.6142
14356TIP3   OH264558   1.243   1.969  12.461  0.6914  0.0326  0.4346
14356TIP3    H164559   1.239   1.926  12.375  0.6694 -0.6986  0.8017
14356TIP3    H264560   1.262   2.061  12.440  2.5342 -0.4691 -0.2776
14357TIP3   OH264561   4.647   6.157  16.304  0.3003 -0.0190 -0.1892
14357TIP3    H164562   4.650   6.162  16.209 -0.1993 -0.6875 -0.2476
14357TIP3    H264563   4.606   6.072  16.323  2.3062 -0.8636  0.6548
14358TIP3   OH264564   2.979   3.962  15.717 -0.1194 -0.1412 -0.0689
14358TIP3    H164565   3.010   3.910  15.791  2.2826  0.4746 -0.5678
14358TIP3    H264566   2.948   4.043  15.757 -0.6954 -0.5849  0.4103
14359TIP3   OH264567   3.571   5.881   1.412 -0.3573 -0.3211  0.2934
14359TIP3    H164568   3.531   5.961   1.379  1.8809  0.7331 -0.0109
14359TIP3    H264569   3.558   5.817   1.343  0.7799  0.7566 -0.9681
14360TIP3   OH264570   0.190   1.484   5.831  0.4432  0.1526 -0.7737
14360TIP3    H164571   0.220   1.575   5.830 -0.5855  0.5166  0.2082
14360TIP3    H264572   0.218   1.451   5.917 -0.6283  0.0585 -0.4431
14361TIP3   OH264573   5.251   5.311  10.359 -0.2120  0.7729  0.2341
14361TIP3    H164574   5.171   5.344  10.319 -0.3032  2.4849  1.6678
14361TIP3    H264575   5.220   5.252  10.428 -0.1081 -0.7945 -1.0118
14362TIP3   OH264576   5.063   4.462   0.912  0.3369 -0.2000  0.5974
14362TIP3    H164577   5.087   4.536   0.856 -1.1353  0.0997  0.3185
14362TIP3    H264578   5.147   4.422   0.936  1.2365  2.0487  1.4494
14363TIP3   OH264579   4.972   2.920   6.294  0.3613  0.2043  0.3263
14363TIP3    H164580   5.056   2.890   6.260 -0.1231 -1.1945  0.3136
14363TIP3    H264581   4.955   3.001   6.247  2.5252  1.5002  1.6127
14364TIP3   OH264582   0.147   1.278   5.315 -0.0347 -0.1473 -0.1597
14364TIP3    H164583   0.111   1.327   5.389  0.5037  0.0428 -0.0194
14364TIP3    H264584   0.076   1.220   5.288  0.0468 -0.8433  1.0517
14365TIP3   OH264585   0.706   1.208  11.376  0.2940  1.2550 -0.3668
14365TIP3    H164586   0.724   1.272  11.445  2.2464 -0.3856  0.7407
14365TIP3    H264587   0.760   1.236  11.303  0.3287  1.4455 -0.2706
14366TIP3   OH264588   1.153   0.567   5.785 -0.4175  0.5905 -0.2343
14366TIP3    H164589   1.091   0.494   5.779  1.6647 -1.1893 -1.5714
14366TIP3    H264590   1.172   0.590   5.695  3.4052 -1.3173 -0.0944
14367TIP3   OH264591   6.100   4.698   2.746  0.1198  0.1368 -0.2495
14367TIP3    H164592   6.041   4.624   2.758 -0.1896  0.4037 -0.1317
14367TIP3    H264593   6.043   4.775   2.744  0.4329  0.3686 -0.4326
14368TIP3   OH264594   3.023   0.393   0.273  0.2251 -0.1856 -0.0396
14368TIP3    H164595   2.937   0.354   0.287  0.1838  0.2504  1.0029
14368TIP3    H264596   3.011   0.449   0.196 -0.3404 -0.3623 -0.0835
14369TIP3   OH264597   0.669   2.671  12.986  0.2529  0.0553 -0.3881
14369TIP3    H164598   0.658   2.596  13.044 -0.3168  2.0259  2.2279
14369TIP3    H264599   0.597   2.731  13.009  1.3071  1.8926 -1.5706
14370TIP3   OH264600   2.507   4.732  12.504  0.0437 -0.1833  0.0226
14370TIP3    H164601   2.486   4.744  12.411  1.6007 -0.2105 -0.3650
14370TIP3    H264602   2.545   4.816  12.531 -0.6382 -0.0932  0.7053
14371TIP3   OH264603   4.478   4.526   3.329  0.0427  0.1789  0.5966
14371TIP3    H164604   4.559   4.539   3.281  0.7656  0.0841  1.7564
14371TIP3    H264605   4.496   4.559   3.417 -1.4743  1.0427  0.6332
14372TIP3   OH264606   1.540   0.131   0.939  0.5312 -0.3616  0.2264
14372TIP3    H164607   1.498   0.209   0.976 -1.3746 -0.4836 -1.5201
14372TIP3    H264608   1.614   0.114   0.998  0.3082  2.0449  1.3380
14373TIP3   OH264609   6.824   3.975  13.982  0.6182  0.6488 -0.7649
14373TIP3    H164610   6.916   3.987  14.006  0.1559  2.1563  0.4163
14373TIP3    H264611   6.808   4.043  13.916  0.4524  0.0674 -1.3387
14374TIP3   OH264612   5.104   5.201   5.233  0.0843  0.1298  0.0420
14374TIP3    H164613   5.158   5.141   5.283  1.2260  0.9485 -0.1715
14374TIP3    H264614   5.080   5.269   5.296 -1.3255 -0.5913  0.3224
14375TIP3   OH264615   2.897   1.780   0.009  0.0295 -0.4805  0.0347
14375TIP3    H164616   2.964   1.767   0.077 -0.5476 -0.8764  0.5384
14375TIP3    H264617   2.851   1.697   0.005  0.0130 -0.4386 -0.8093
14376TIP3   OH264618   3.741   5.153  13.457 -0.5511  0.8559 -0.3798
14376TIP3    H164619   3.653   5.187  13.473 -0.0752  2.9682 -1.8028
14376TIP3    H264620   3.756   5.167  13.364  1.3638  0.7929 -0.1354
14377TIP3   OH264621   5.424   2.091   5.860 -0.1037  0.1936  0.4271
14377TIP3    H164622   5.490   2.123   5.922 -0.8472  1.0843  0.7910
14377TIP3    H264623   5.450   2.128   5.776  0.6778 -0.6755  0.2744
14378TIP3   OH264624   6.092   3.815  16.508 -0.5377 -0.6328 -0.2822
14378TIP3    H164625   6.179   3.854  16.498 -1.3469  1.7646  1.2789
14378TIP3    H264626   6.051   3.827  16.422  0.4318 -1.2755 -0.8604
14379TIP3   OH264627   5.145   6.735   1.417  0.0616  0.0232 -0.1571
14379TIP3    H164628   5.209   6.763   1.352  2.2894 -2.0889  0.9440
14379TIP3    H264629   5.073   6.700   1.365  1.3068 -0.6420 -1.5457
14380TIP3   OH264630   1.959   4.463   4.453 -0.1771 -0.2367  0.3610
14380TIP3    H164631   1.998   4.534   4.503 -3.2364  1.4401  0.5942
14380TIP3    H264632   1.936   4.397   4.519  0.4293 -0.3303  0.4789
14381TIP3   OH264633   2.983   3.168   3.995 -0.3496 -0.0682  0.2086
14381TIP3    H164634   3.022   3.252   4.018  0.0036  0.0295 -0.7186
14381TIP3    H264635   2.972   3.123   4.078 -1.5266  1.3157  0.8497
14382TIP3   OH264636   5.270   6.293  15.898  0.3270  0.1809 -0.5245
14382TIP3    H164637   5.238   6.237  15.827  0.7044 -1.0570  0.2629
14382TIP3    H264638   5.252   6.382  15.867 -2.5788 -0.3831 -0.7529
14383TIP3   OH264639   1.508   5.541   3.099 -0.3736  0.2584  0.2298
14383TIP3    H164640   1.593   5.551   3.141 -0.7954 -0.4319  1.2760
14383TIP3    H264641   1.524   5.565   3.007  1.4292 -1.8920 -0.1118
14384TIP3   OH264642   1.684   0.458  13.572 -0.0511  0.1738 -0.4796
14384TIP3    H164643   1.779   0.449  13.582 -0.1709 -0.8377 -0.1852
14384TIP3    H264644   1.647   0.391  13.629 -0.9215 -0.3485 -1.6120
14385TIP3   OH264645   0.859   2.363   1.368  0.0435 -0.2294 -0.4521
14385TIP3    H164646   0.807   2.439   1.396 -2.2813 -1.8446 -0.1475
14385TIP3    H264647   0.901   2.332   1.448  0.7888  0.5259 -0.5296
14386TIP3   OH264648   5.116   1.906  13.272 -0.2201  0.0476 -0.3896
14386TIP3    H164649   5.134   1.886  13.180  0.3512 -0.6227 -0.1372
14386TIP3    H264650   5.152   1.994  13.285  1.5809 -0.6783 -0.2766
14387TIP3   OH264651   4.359   1.452  11.698 -0.4450 -0.1088  0.7091
14387TIP3    H164652   4.422   1.518  11.728  0.1027 -0.5760  0.6232
14387TIP3    H264653   4.298   1.500  11.643  0.2567  0.2400  0.2159
14388TIP3   OH264654   3.790   1.073   1.272 -0.0896 -0.1431 -0.1156
14388TIP3    H164655   3.732   1.118   1.333  2.4576  0.8515  1.7117
14388TIP3    H264656   3.836   1.144   1.227  3.0445 -0.7503  1.8749
14389TIP3   OH264657   0.619   0.256  13.070  0.5562 -0.7383  0.0524
14389TIP3    H164658   0.680   0.330  13.078 -0.7272  0.2327  1.4376
14389TIP3    H264659   0.537   0.296  13.040  0.9374 -2.2429 -3.4547
14390TIP3   OH264660   4.481   3.581  17.207  0.0185  0.2892 -0.7613
14390TIP3    H164661   4.431   3.543  17.135 -0.1955  1.7407 -1.4079
14390TIP3    H264662   4.492   3.509  17.269 -2.2297 -0.2636 -0.9309
14391TIP3   OH264663   2.830   6.064   6.200  0.1492 -1.1331  0.3763
14391TIP3    H164664   2.786   6.004   6.260  1.2104 -2.0961  0.2093
14391TIP3    H264665   2.787   6.050   6.116  1.2718 -2.6712  0.0220
14392TIP3   OH264666   0.825   5.718  16.928 -0.1247  0.2650  0.2237
14392TIP3    H164667   0.909   5.678  16.907  1.4502  2.2146  2.3169
14392TIP3    H264668   0.802   5.768  16.849  1.4330  0.8313  0.0980
14393TIP3   OH264669   4.416   6.613  12.529 -0.3946 -0.0453  0.5463
14393TIP3    H164670   4.394   6.704  12.549 -0.2194  0.1581 -0.1564
14393TIP3    H264671   4.497   6.619  12.477  0.4169 -0.6869  1.7070
14394TIP3   OH264672   0.697   5.584   4.067 -0.0994 -0.7116 -0.1240
14394TIP3    H164673   0.762   5.525   4.029  1.0399  0.3568  0.0694
14394TIP3    H264674   0.721   5.670   4.032 -1.7124 -0.3563 -0.3958
14395TIP3   OH264675   3.059   6.569   0.872  0.6704 -0.4094  0.6496
14395TIP3    H164676   2.972   6.528   0.872  0.4588 -0.0080 -0.4204
14395TIP3    H264677   3.119   6.498   0.850  0.3862 -0.3328 -0.4812
14396TIP3   OH264678   1.663   6.690   0.185 -0.1597 -0.5552 -0.3790
14396TIP3    H164679   1.712   6.730   0.256 -0.1253 -1.9111  0.3909
14396TIP3    H264680   1.725   6.631   0.142 -0.7696 -1.4123 -0.1250
14397TIP3   OH264681   0.473   3.426  14.207  0.2390 -0.0911 -0.1130
14397TIP3    H164682   0.402   3.486  14.229 -1.1206 -1.5429 -0.3133
14397TIP3    H264683   0.429   3.343  14.187  2.0031 -1.0661 -0.2007
14398TIP3   OH264684   6.604   3.626   6.042  0.0781 -0.5074 -0.5691
14398TIP3    H164685   6.648   3.645   6.125  0.1917 -1.0728 -0.4996
14398TIP3    H264686   6.627   3.535   6.022 -0.1367 -0.4497 -1.1048
14399TIP3   OH264687   1.953   2.524  11.753 -0.0387  0.0337 -0.0351
14399TIP3    H164688   1.990   2.574  11.680 -1.3789  0.4395 -0.4680
14399TIP3    H264689   1.985   2.567  11.832 -0.6250  1.1789 -0.4034
14400TIP3   OH264690   0.160   0.506   5.603 -0.0708 -0.3489 -0.6223
14400TIP3    H164691   0.074   0.479   5.635  0.3867 -0.9123  0.1622
14400TIP3    H264692   0.188   0.434   5.546 -1.8734  1.6055 -4.3751
14401TIP3   OH264693   0.816   5.346   5.519 -0.0540  0.1533 -0.3815
14401TIP3    H164694   0.752   5.331   5.589 -0.3643  0.5876 -0.5654
14401TIP3    H264695   0.849   5.434   5.536  1.6979 -0.6657  0.6553
14402TIP3   OH264696   1.092   0.342  12.641 -0.1313  0.3053  0.1236
14402TIP3    H164697   1.100   0.314  12.550 -0.5884  1.7687 -0.3994
14402TIP3    H264698   1.063   0.264  12.688 -1.0211 -0.1911 -1.1999
14403TIP3   OH264699   6.088   6.356  16.052 -0.3022 -0.1228 -0.6200
14403TIP3    H164700   6.036   6.424  16.095 -1.6236 -1.8507  0.6412
14403TIP3    H264701   6.058   6.274  16.092  0.5797 -1.5504 -2.7193
14404TIP3   OH264702   5.279   0.621   5.885 -0.1185 -0.1506 -0.9270
14404TIP3    H164703   5.369   0.622   5.920  0.3370  0.6079 -2.0411
14404TIP3    H264704   5.276   0.697   5.826 -2.5354  1.8977  1.6012
14405TIP3   OH264705   1.257   4.757   3.629  0.0470  0.0870  0.2141
14405TIP3    H164706   1.207   4.794   3.556  0.4132 -0.9518 -0.5850
14405TIP3    H264707   1.238   4.663   3.626  4.2100 -0.8893 -1.9589
14406TIP3   OH264708   4.733   4.262   4.116  0.2027  0.1964 -0.4290
14406TIP3    H164709   4.728   4.189   4.055  1.0627 -1.6959  1.6193
14406TIP3    H264710   4.645   4.269   4.153  0.3110 -0.3561 -0.0571
14407TIP3   OH264711   2.746   5.656  14.079  0.1382  0.1667 -0.1442
14407TIP3    H164712   2.664   5.639  14.034  0.7734 -1.5269 -0.7545
14407TIP3    H264713   2.723   5.660  14.171 -0.8414  1.2720 -0.4238
14408TIP3   OH264714   0.157   4.489   4.429  0.2024  0.2261  0.0290
14408TIP3    H164715   0.102   4.465   4.355  0.2081 -2.2911  0.7355
14408TIP3    H264716   0.213   4.559   4.396 -0.0798 -0.5228 -2.2091
14409TIP3   OH264717   0.151   1.746  13.586 -0.3841 -0.2939 -0.3866
14409TIP3    H164718   0.105   1.830  13.585  1.1030  0.5871  0.7374
14409TIP3    H264719   0.238   1.766  13.553  0.4529 -1.0647  1.2296
14410TIP3   OH264720   0.001   2.074   0.316  0.0189 -0.2430  0.0785
14410TIP3    H164721   0.036   2.078   0.227  0.2340  0.6845  0.1967
14410TIP3    H264722  -0.014   2.165   0.340 -1.0329 -0.5376  0.6056
14411TIP3   OH264723   2.969   3.819   0.607 -0.2091 -0.0430  0.4085
14411TIP3    H164724   2.900   3.883   0.625  0.2655  0.5813  0.0531
14411TIP3    H264725   3.033   3.867   0.553 -0.9470 -1.4475 -1.8549
14412TIP3   OH264726   6.586   4.711  11.912 -0.0193 -0.2660  0.2096
14412TIP3    H164727   6.612   4.791  11.958  1.7929 -0.5754 -0.2375
14412TIP3    H264728   6.566   4.649  11.982 -1.3098  0.5010  0.5571
14413TIP3   OH264729   1.823   1.033   1.487 -0.0171 -0.0914 -0.3815
14413TIP3    H164730   1.743   0.985   1.508  0.4301 -0.4803  0.4744
14413TIP3    H264731   1.859   1.057   1.573  0.0875  1.2401 -0.7794
14414TIP3   OH264732   2.549   1.226  11.007 -0.1546  0.1858  0.0938
14414TIP3    H164733   2.495   1.213  10.928 -0.5786 -0.8919  0.5387
14414TIP3    H264734   2.618   1.161  11.000  0.3292  0.6823  0.1859
14415TIP3   OH264735   2.784   0.592   0.899  0.4552 -0.0485  0.0528
14415TIP3    H164736   2.869   0.622   0.931  0.7323  2.5431 -2.6921
14415TIP3    H264737   2.723   0.610   0.971  1.6835  1.3955  0.7855
14416TIP3   OH264738   5.017   4.255  10.962 -0.0086 -0.3139  0.1077
14416TIP3    H164739   4.961   4.204  11.021  0.6242 -0.6862  0.3986
14416TIP3    H264740   4.967   4.335  10.944 -0.4339 -0.4326  0.7310
14417TIP3   OH264741   2.907   2.388   3.782 -0.0043  0.2742  0.2545
14417TIP3    H164742   2.876   2.467   3.737 -0.3637 -0.2888 -0.5060
14417TIP3    H264743   2.832   2.329   3.782  0.2305 -0.0356  0.9161
14418TIP3   OH264744   3.504   4.029   0.191 -0.7460 -0.4797  0.2252
14418TIP3    H164745   3.594   4.008   0.215 -0.5616  1.6386  1.6108
14418TIP3    H264746   3.450   3.986   0.258 -0.6767 -0.3467  0.3638
14419TIP3   OH264747   6.175   0.964  16.295 -0.8595  0.7722 -0.4011
14419TIP3    H164748   6.220   0.879  16.297 -0.7325  0.8419  1.2570
14419TIP3    H264749   6.246   1.028  16.289 -0.7861  0.8294  0.8166
14420TIP3   OH264750   6.187   0.054  11.201  0.1217 -0.3495 -0.2816
14420TIP3    H164751   6.167  -0.025  11.151 -0.4829 -0.5038  0.1927
14420TIP3    H264752   6.259   0.029  11.259  0.5242 -0.2961 -0.7541
14421TIP3   OH264753   2.024   4.984  11.986 -0.8353  0.4154 -0.0463
14421TIP3    H164754   2.018   4.895  11.952  1.9876  0.7652 -1.7513
14421TIP3    H264755   2.067   4.975  12.070 -0.2180  0.1635 -0.3803
14422TIP3   OH264756   6.010   2.378  16.784  0.0791 -0.3630 -0.0946
14422TIP3    H164757   6.028   2.284  16.783  1.1563 -0.1725 -1.3230
14422TIP3    H264758   6.010   2.402  16.877  2.1729 -1.1699  0.1596
14423TIP3   OH264759   0.175   5.623  11.848  0.4344  0.3197  0.3012
14423TIP3    H164760   0.243   5.609  11.782  1.6065 -1.0831  1.7406
14423TIP3    H264761   0.155   5.535  11.881 -1.5909  0.7787  0.4330
14424TIP3   OH264762   2.479   2.390   5.011  0.1918  0.0577  0.7487
14424TIP3    H164763   2.425   2.403   4.933  2.0202 -1.3959 -0.8725
14424TIP3    H264764   2.531   2.471   5.018 -0.2618  0.3555  0.7057
14425TIP3   OH264765   0.395   5.864   0.798  0.2713 -0.3279  0.1607
14425TIP3    H164766   0.451   5.844   0.873  0.3031 -1.4882 -0.1498
14425TIP3    H264767   0.312   5.821   0.818  0.3673 -0.8778 -0.5780
14426TIP3   OH264768   6.527   3.762  13.959 -0.1405 -0.1656 -0.6692
14426TIP3    H164769   6.532   3.832  13.895 -0.7757 -0.6602 -1.2737
14426TIP3    H264770   6.601   3.778  14.018 -0.3202  1.0440 -0.7443
14427TIP3   OH264771   4.478   1.377  11.330 -0.1527  0.6564  0.6893
14427TIP3    H164772   4.410   1.428  11.373 -0.4155  0.7058  0.2152
14427TIP3    H264773   4.490   1.419  11.245  0.1632  0.3846  0.5961
14428TIP3   OH264774   5.786   4.669  16.054 -0.4167  0.0891  0.2633
14428TIP3    H164775   5.694   4.645  16.056 -0.1744 -0.8147  1.2628
14428TIP3    H264776   5.814   4.669  16.145  0.8169 -0.6894 -0.0775
14429TIP3   OH264777   5.480   2.971   3.897 -0.0601 -0.2200  0.2340
14429TIP3    H164778   5.433   2.963   3.814  1.9358  0.2898 -1.0432
14429TIP3    H264779   5.476   2.884   3.936 -0.7439 -0.5617 -0.5673
14430TIP3   OH264780   6.406   0.162   5.507  0.2482 -0.2362  0.0327
14430TIP3    H164781   6.423   0.147   5.600 -1.3532  0.5193  0.4807
14430TIP3    H264782   6.321   0.207   5.505  0.1167 -0.4982 -1.8149
14431TIP3   OH264783   0.296   3.154   5.041  0.3490 -0.0471  0.3825
14431TIP3    H164784   0.388   3.174   5.021  0.3832  0.7319  1.2701
14431TIP3    H264785   0.247   3.226   5.003  0.1394 -0.2372  0.2909
14432TIP3   OH264786   3.417   2.942  13.724  0.0170  0.4941 -0.5184
14432TIP3    H164787   3.349   3.010  13.717  0.4728  1.1901  1.3082
14432TIP3    H264788   3.488   2.974  13.668 -0.5667  0.5073 -1.2643
14433TIP3   OH264789   5.333   4.791   1.336  0.3516  0.1530  0.3834
14433TIP3    H164790   5.399   4.861   1.330  1.2790 -0.7638 -0.3996
14433TIP3    H264791   5.251   4.833   1.309  0.8894  0.9597 -0.0359
14434TIP3   OH264792   1.743   5.550   3.488  0.0364 -0.5302  0.1870
14434TIP3    H164793   1.838   5.552   3.476 -0.0667  0.7072 -0.6588
14434TIP3    H264794   1.717   5.462   3.462  0.6291  0.0650 -2.8411
14435TIP3   OH264795   1.511   3.028  10.283 -0.0699 -0.3165 -0.0266
14435TIP3    H164796   1.526   2.954  10.224 -0.8907  0.3797 -1.1455
14435TIP3    H264797   1.457   2.992  10.353 -0.1104 -0.8790 -0.3408
14436TIP3   OH264798   0.510   5.693  15.728 -0.2589  0.4973 -0.7178
14436TIP3    H164799   0.601   5.663  15.735 -1.6350 -4.0805  0.7477
14436TIP3    H264800   0.498   5.753  15.802  1.1983  0.1608 -0.1800
14437TIP3   OH264801   2.405   4.704  15.367 -0.1862  0.5399 -0.1392
14437TIP3    H164802   2.378   4.632  15.310  0.5588 -0.6564  0.9656
14437TIP3    H264803   2.323   4.742  15.398 -0.7086 -1.7938  1.6539
14438TIP3   OH264804   2.748   4.778   4.162  0.2181 -0.0404  0.2884
14438TIP3    H164805   2.719   4.699   4.208  1.1412 -0.3141  0.4268
14438TIP3    H264806   2.806   4.746   4.093  1.2232  0.5359  0.8250
14439TIP3   OH264807   3.280   0.336   5.408 -0.4843 -0.2803  0.6968
14439TIP3    H164808   3.286   0.396   5.333  0.0164  0.1821  1.0945
14439TIP3    H264809   3.334   0.261   5.383  2.5236  1.2984  1.8744
14440TIP3   OH264810   3.924   5.627   1.044 -0.1822 -0.6274 -0.6712
14440TIP3    H164811   3.971   5.669   0.972 -1.2305  0.6272 -0.6649
14440TIP3    H264812   3.952   5.675   1.122 -2.8527  1.4802 -0.8912
14441TIP3   OH264813   4.533   1.103   2.098 -0.0618 -0.0251  0.2440
14441TIP3    H164814   4.570   1.043   2.033  0.7196 -0.1862  0.8275
14441TIP3    H264815   4.604   1.164   2.118 -1.0949  1.6630 -0.9688
14442TIP3   OH264816   0.728   3.374  16.638  0.0838 -0.8462 -0.1653
14442TIP3    H164817   0.662   3.415  16.694  1.7723  0.9978  0.5590
14442TIP3    H264818   0.677   3.324  16.575 -1.9934  0.0412  0.7080
14443TIP3   OH264819   6.052   6.081  13.258  0.2538 -0.2466 -0.4312
14443TIP3    H164820   5.973   6.054  13.210 -0.5670  0.1594  0.6516
14443TIP3    H264821   6.100   6.134  13.195 -0.3964 -0.4002 -1.0787
14444TIP3   OH264822   6.578   6.534  13.323 -0.0185 -0.8614 -0.3014
14444TIP3    H164823   6.574   6.621  13.282  3.7412  0.3250  1.4407
14444TIP3    H264824   6.536   6.546  13.408 -0.0691 -0.9662 -0.3116
14445TIP3   OH264825   1.229   3.037  11.345  0.0868  0.1550  0.2123
14445TIP3    H164826   1.309   3.083  11.320  0.4044 -0.0767  0.7900
14445TIP3    H264827   1.243   3.012  11.437  0.8198 -2.9614 -0.6355
14446TIP3   OH264828   5.723   3.295  12.195  0.2412  0.4494  0.3010
14446TIP3    H164829   5.775   3.239  12.252  1.4425 -0.5052 -1.6545
14446TIP3    H264830   5.747   3.384  12.221  1.5857  0.0317  0.5610
14447TIP3   OH264831   5.248   5.492   3.293  0.0826  0.4096 -0.3133
14447TIP3    H164832   5.179   5.554   3.270 -1.9853 -1.1453  1.2714
14447TIP3    H264833   5.273   5.515   3.382 -2.9014 -2.6425  1.5360
14448TIP3   OH264834   6.036   5.840  13.061 -0.4037 -0.4261  0.2273
14448TIP3    H164835   5.966   5.900  13.085 -0.3172  0.5526 -1.7276
14448TIP3    H264836   5.994   5.776  13.003  0.5887  1.4501 -2.8002
14449TIP3   OH264837   0.228   0.704   3.883 -0.6396  0.5525  0.0979
14449TIP3    H164838   0.292   0.635   3.896 -0.5154  0.6948  0.2392
14449TIP3    H264839   0.170   0.670   3.814 -0.7616  0.1825  0.3817
14450TIP3   OH264840   5.051   2.432  14.479  0.1930 -0.0904  0.1468
14450TIP3    H164841   5.029   2.339  14.466  1.8214 -0.7406  1.6971
14450TIP3    H264842   5.134   2.443  14.434  1.0501  0.0610  1.7138
14451TIP3   OH264843   0.322   5.109  11.951  0.0975 -0.5521 -0.3744
14451TIP3    H164844   0.245   5.119  12.007  0.8870  0.4385  0.5657
14451TIP3    H264845   0.330   5.014  11.939 -0.2033 -0.7798  1.0506
14452TIP3   OH264846   4.204   3.484   0.097  0.1654 -0.3045 -0.0228
14452TIP3    H164847   4.227   3.434   0.019  0.3869  0.1127 -0.2327
14452TIP3    H264848   4.162   3.421   0.155  0.7317 -0.8057 -0.1423
14453TIP3   OH264849   6.501   1.442   6.222  0.4611 -0.2768  0.2249
14453TIP3    H164850   6.594   1.448   6.243  0.0447 -0.1717  2.2859
14453TIP3    H264851   6.471   1.362   6.266 -0.5580  0.0722  0.1987
14454TIP3   OH264852   0.448   3.964  12.416 -0.3821 -0.2015  0.6810
14454TIP3    H164853   0.540   3.984  12.434 -0.4810 -0.4100  1.4785
14454TIP3    H264854   0.429   4.010  12.334  0.3001  0.2359  0.7562
14455TIP3   OH264855   2.082   4.982  16.280  0.0657  0.4001 -0.0657
14455TIP3    H164856   2.121   4.985  16.193 -0.0151 -0.0391 -0.1236
14455TIP3    H264857   2.032   4.900  16.280 -0.7670  0.9002  0.0402
14456TIP3   OH264858   6.170   0.796   4.972 -0.4002 -0.0840  0.2695
14456TIP3    H164859   6.193   0.703   4.968 -0.5194 -0.0830 -2.2837
14456TIP3    H264860   6.247   0.842   4.938 -0.9125  0.5955 -0.0104
14457TIP3   OH264861   4.081   5.642   0.680  0.4471  0.0677 -0.0678
14457TIP3    H164862   4.009   5.593   0.720 -0.9405 -0.2671 -2.7411
14457TIP3    H264863   4.086   5.724   0.730 -2.3633  0.4496 -0.2728
14458TIP3   OH264864   0.753   5.088   3.637  0.0527  0.4705  0.1186
14458TIP3    H164865   0.686   5.156   3.649 -1.6617 -1.4501  2.5088
14458TIP3    H264866   0.787   5.104   3.549 -3.6937  1.4924 -1.3503
14459TIP3   OH264867   5.705   4.364  15.860 -0.1852 -0.0423 -0.4459
14459TIP3    H164868   5.670   4.279  15.886  1.3690 -0.8320 -0.8466
14459TIP3    H264869   5.796   4.347  15.837 -0.3438  1.3716 -2.3818
14460TIP3   OH264870   0.008   4.713   2.222 -0.0041 -0.3016 -0.5343
14460TIP3    H164871   0.029   4.716   2.316 -2.4979  1.0178  0.0858
14460TIP3    H264872  -0.064   4.650   2.216 -0.1075 -0.0993 -1.5114
14461TIP3   OH264873   3.406   5.381   6.001 -0.0559  0.2242  0.1826
14461TIP3    H164874   3.342   5.453   6.001  1.6618  1.8992  1.8295
14461TIP3    H264875   3.426   5.367   6.093  1.3852 -0.7727 -0.2451
14462TIP3   OH264876   1.798   5.146   5.905 -0.1510 -0.6959 -1.0342
14462TIP3    H164877   1.753   5.069   5.939  2.0701 -1.0706  1.3735
14462TIP3    H264878   1.869   5.111   5.852  1.0189 -0.3828  0.2705
14463TIP3   OH264879   4.310   2.038  12.916 -0.6445 -0.0893  0.0348
14463TIP3    H164880   4.291   2.062  12.826  0.7115 -0.1816 -0.2932
14463TIP3    H264881   4.376   2.101  12.945 -3.2257  1.9061  2.0190
14464TIP3   OH264882   5.298   1.053  14.949 -0.3861  0.4664  0.2278
14464TIP3    H164883   5.250   1.135  14.957 -0.6385  0.3110  0.3275
14464TIP3    H264884   5.389   1.079  14.939 -0.4507  0.7550  0.3892
14465TIP3   OH264885   0.517   6.246  12.768  0.2782  0.0840  0.0897
14465TIP3    H164886   0.515   6.160  12.726 -0.0629 -0.2942  0.8630
14465TIP3    H264887   0.590   6.242  12.830  2.1818  1.3672 -1.9257
14466TIP3   OH264888   6.208   2.770  11.468 -0.5574  0.1185  0.1942
14466TIP3    H164889   6.155   2.834  11.421 -0.6651  1.0059  1.4660
14466TIP3    H264890   6.283   2.754  11.411 -1.8588 -0.6983 -1.3583
14467TIP3   OH264891   2.028   6.400   0.822  0.1916 -0.2956 -0.4529
14467TIP3    H164892   1.998   6.443   0.902 -2.0525 -1.7176 -0.4699
14467TIP3    H264893   2.053   6.312   0.849 -0.5102 -0.7642 -1.2871
14468TIP3   OH264894   1.076   0.394   1.450 -0.6427  0.5749 -0.7485
14468TIP3    H164895   0.999   0.427   1.403 -0.0694  2.0939 -0.6736
14468TIP3    H264896   1.104   0.318   1.400 -1.1653  1.0417 -1.7804
14469TIP3   OH264897   4.522   0.833  13.809 -0.2929  0.5346  0.0298
14469TIP3    H164898   4.534   0.753  13.860 -0.5503 -0.2323 -1.0851
14469TIP3    H264899   4.604   0.844  13.762 -0.6520  0.3142 -0.6572
14470TIP3   OH264900   3.797   3.551  16.124  1.0221  0.0764  0.0534
14470TIP3    H164901   3.800   3.633  16.076 -0.6538  0.5155  0.6326
14470TIP3    H264902   3.867   3.498  16.085 -0.5376  0.1855 -3.2898
14471TIP3   OH264903   4.042   4.850   1.228 -0.5709  0.1190 -0.1092
14471TIP3    H164904   4.123   4.853   1.176 -0.7286  0.0852 -0.3592
14471TIP3    H264905   3.999   4.770   1.199 -0.9410  0.4024 -0.3508
14472TIP3   OH264906   1.918   1.751   5.234 -0.1576 -0.4184 -0.0369
14472TIP3    H164907   1.992   1.795   5.277 -0.0920  1.6076 -2.0258
14472TIP3    H264908   1.850   1.819   5.228 -0.9075 -1.2427 -1.2354
14473TIP3   OH264909   0.239   5.368   4.636  0.2053  0.0968 -0.3595
14473TIP3    H164910   0.314   5.320   4.599 -0.5118 -0.6204 -0.9227
14473TIP3    H264911   0.277   5.425   4.702  1.1675 -0.8115 -0.1047
14474TIP3   OH264912   3.097   4.426   1.476 -0.0368  0.2894 -0.1877
14474TIP3    H164913   3.147   4.376   1.541 -0.6702  1.6651  1.4279
14474TIP3    H264914   3.048   4.490   1.527 -0.7617  1.2819 -2.0215
14475TIP3   OH264915   6.012   2.015   4.785 -0.2823 -0.3077 -0.3449
14475TIP3    H164916   6.041   2.042   4.698 -0.0779 -1.6546 -0.7173
14475TIP3    H264917   5.975   1.928   4.773 -2.4947  0.4312  0.5140
14476TIP3   OH264918   4.405   2.538  16.365 -0.1729 -0.0479 -0.5626
14476TIP3    H164919   4.432   2.446  16.362 -0.6530 -0.3736  2.1402
14476TIP3    H264920   4.336   2.540  16.432 -0.9266  2.1203 -1.3221
14477TIP3   OH264921   5.451   5.336   3.758 -0.8153  0.6714  0.0126
14477TIP3    H164922   5.392   5.332   3.834 -1.5393  0.3572 -0.5576
14477TIP3    H264923   5.441   5.425   3.725 -2.4502  0.0930 -1.2120
14478TIP3   OH264924   4.944   3.753  14.046  0.3214  0.4347 -0.3828
14478TIP3    H164925   4.971   3.714  13.963 -0.1494 -0.6252 -0.0463
14478TIP3    H264926   4.989   3.701  14.113 -0.1478  0.6047  0.0712
14479TIP3   OH264927   4.620   2.037  15.911  0.1852  0.4213  0.1687
14479TIP3    H164928   4.611   1.963  15.851 -0.7905  1.6810 -1.3146
14479TIP3    H264929   4.712   2.063  15.904  0.0891  0.5321 -0.7888
14480TIP3   OH264930   0.580   3.435  13.032 -0.1326 -0.1073 -0.5849
14480TIP3    H164931   0.607   3.493  13.103  1.1049 -2.0567  0.6233
14480TIP3    H264932   0.491   3.408  13.055  0.0206 -0.2168 -0.1239
14481TIP3   OH264933   1.985   1.856  10.599 -0.3367 -0.2990 -0.1303
14481TIP3    H164934   2.007   1.930  10.542  2.1943  0.3548  1.5280
14481TIP3    H264935   2.063   1.843  10.653 -0.6594 -4.2308 -0.3389
14482TIP3   OH264936   4.940   2.005  13.908 -0.3368  0.0084  0.3082
14482TIP3    H164937   4.980   1.977  13.990 -0.6207  0.2324  0.5253
14482TIP3    H264938   4.846   1.992  13.922 -0.3876  0.0611  0.0244
14483TIP3   OH264939   0.807   4.159   4.167 -0.0562  0.7326 -0.4158
14483TIP3    H164940   0.838   4.231   4.114  0.8940 -0.6373 -1.8040
14483TIP3    H264941   0.876   4.093   4.163 -1.4930 -0.8757 -0.4379
14484TIP3   OH264942   5.973   4.180  16.981 -0.2201  0.8544  0.0192
14484TIP3    H164943   5.938   4.111  17.038 -0.5598  0.9318 -0.0916
14484TIP3    H264944   6.006   4.246  17.041 -1.7398  1.5323  0.1554
14485TIP3   OH264945   1.959   6.008  11.930 -0.0288  0.0974  0.5106
14485TIP3    H164946   1.908   5.936  11.968 -0.5133  0.6373  0.8865
14485TIP3    H264947   2.009   5.966  11.860  1.5362 -1.0993  2.2448
14486TIP3   OH264948   1.993   4.775  13.397  0.0558 -0.2142  0.2844
14486TIP3    H164949   1.963   4.700  13.346 -1.0112  1.7008 -2.1302
14486TIP3    H264950   2.045   4.826  13.335  0.8881  0.9581  1.9055
14487TIP3   OH264951   4.659   1.615   0.776 -0.1570 -0.1915 -0.1623
14487TIP3    H164952   4.590   1.668   0.815  0.4914  0.2519  0.4159
14487TIP3    H264953   4.639   1.613   0.682 -0.0976  1.2502 -0.2254
14488TIP3   OH264954   3.951   1.656   4.187  0.2818  0.0496  0.4582
14488TIP3    H164955   3.905   1.717   4.129 -0.1058 -1.1489 -0.5290
14488TIP3    H264956   3.924   1.570   4.157  3.1606 -0.7211 -0.1756
14489TIP3   OH264957   2.783   4.411  15.678 -0.2238 -0.2976  0.3657
14489TIP3    H164958   2.714   4.383  15.619  1.4033 -2.5848 -0.5663
14489TIP3    H264959   2.858   4.429  15.621  0.9703 -1.1971  1.5986
14490TIP3   OH264960   2.333   3.972   5.343 -0.3564  0.0634 -0.1709
14490TIP3    H164961   2.369   4.057   5.367  0.3797 -0.6775  1.4831
14490TIP3    H264962   2.389   3.908   5.388 -0.9738 -1.2999 -1.2478
14491TIP3   OH264963   4.898   4.718  14.745  0.2220  0.0364 -0.0728
14491TIP3    H164964   4.805   4.710  14.766 -0.5582  1.0121 -2.7758
14491TIP3    H264965   4.912   4.812  14.737  1.0580 -0.1778 -1.2308
14492TIP3   OH264966   4.151   1.703   3.992 -0.1583 -0.2299 -0.1085
14492TIP3    H164967   4.093   1.667   4.059  1.0485 -0.2578  0.9549
14492TIP3    H264968   4.188   1.627   3.948  0.8948 -0.2954  0.8370
14493TIP3   OH264969   1.747   1.433  11.549 -0.0618  0.2006  0.4858
14493TIP3    H164970   1.800   1.512  11.535  0.7370  0.0232  2.2953
14493TIP3    H264971   1.782   1.370  11.485  1.2586  0.4118  0.9712
14494TIP3   OH264972   0.651   3.761   1.683 -0.5773 -0.6655 -0.1760
14494TIP3    H164973   0.579   3.778   1.744 -1.7667 -0.9679 -1.4601
14494TIP3    H264974   0.667   3.845   1.640  0.8829 -0.2196  1.1508
14495TIP3   OH264975   1.167   4.986   6.356  0.2002  0.0864 -0.3606
14495TIP3    H164976   1.109   5.024   6.290  0.4051 -1.3609 -1.4109
14495TIP3    H264977   1.254   5.021   6.334  0.2805 -0.4525 -0.9200
14496TIP3   OH264978   5.227   3.882   5.391  0.2859  0.4529  0.1387
14496TIP3    H164979   5.156   3.877   5.327  0.0661  1.4484  0.2816
14496TIP3    H264980   5.184   3.888   5.475  0.5802 -1.9621  0.5370
14497TIP3   OH264981   4.686   6.233  16.783 -0.0449 -0.3093  0.4848
14497TIP3    H164982   4.715   6.226  16.692 -0.3520  0.1982  0.3475
14497TIP3    H264983   4.603   6.281  16.779 -0.2916 -0.6807  0.9913
14498TIP3   OH264984   3.039   6.298   4.621  0.3292  0.1332 -0.1709
14498TIP3    H164985   2.956   6.345   4.628  1.1945  1.7579 -0.5366
14498TIP3    H264986   3.013   6.208   4.601 -1.3672  0.4071  0.5778
14499TIP3   OH264987   5.155   1.878   0.609  0.5831 -0.1472 -0.3132
14499TIP3    H164988   5.114   1.940   0.549  0.0354  0.3658  0.5666
14499TIP3    H264989   5.082   1.835   0.653  0.9274 -1.8160 -1.2478
14500TIP3   OH264990   1.886   1.796   5.814  0.7109 -0.2490 -0.3184
14500TIP3    H164991   1.832   1.731   5.859 -0.4132 -1.5881 -3.3066
14500TIP3    H264992   1.961   1.747   5.782  1.4271  0.6190  0.0004
14501TIP3   OH264993   1.329   5.160  11.328 -0.2427  0.7603 -0.5360
14501TIP3    H164994   1.378   5.160  11.246  0.7279  1.0884  0.0389
14501TIP3    H264995   1.255   5.218  11.311  1.6369  3.4210 -0.2062
14502TIP3   OH264996   0.062   4.780  15.468 -0.1603 -0.3394 -0.6688
14502TIP3    H164997   0.043   4.874  15.470  0.0518 -0.3012  1.4735
14502TIP3    H264998   0.133   4.768  15.530 -0.0279 -1.9116 -1.0739
14503TIP3   OH264999   1.702   0.226   6.064 -0.2959 -0.6948  0.3796
14503TIP3    H165000   1.730   0.313   6.092 -0.1464 -0.1963 -1.2264
14503TIP3    H265001   1.607   0.230   6.063 -0.2974 -0.6609  0.6183
14504TIP3   OH265002   1.921   0.378   3.986 -0.2000  0.2289  1.2804
14504TIP3    H165003   1.944   0.437   4.057 -0.4173  0.5588  1.0816
14504TIP3    H265004   2.004   0.363   3.939  0.3690 -1.5464  2.7156
14505TIP3   OH265005   1.203   5.545   5.277  0.1990 -0.0328  0.0724
14505TIP3    H165006   1.113   5.577   5.285 -0.2821 -1.1841 -0.5028
14505TIP3    H265007   1.257   5.624   5.274 -0.8776  0.6967 -0.6071
14506TIP3   OH265008   3.338   4.167  12.420  0.2592 -0.4552 -0.1183
14506TIP3    H165009   3.270   4.234  12.423 -0.1245 -0.6221 -2.6908
14506TIP3    H265010   3.300   4.092  12.466 -1.4241 -0.6122 -1.6705
14507TIP3   OH265011   5.468   2.698  14.937 -1.0025 -0.2378 -0.0612
14507TIP3    H165012   5.401   2.671  15.000  0.4999 -1.2066  1.2065
14507TIP3    H265013   5.534   2.628  14.941  0.4250  0.9996 -0.7191
14508TIP3   OH265014   1.128   6.282   4.480 -0.1051  0.5292  0.3459
14508TIP3    H165015   1.138   6.197   4.523 -0.5833 -0.7699 -1.9463
14508TIP3    H265016   1.209   6.293   4.429 -1.1324  0.0819 -1.4931
14509TIP3   OH265017   5.474   4.296   2.472 -0.1200 -0.1756  0.0750
14509TIP3    H165018   5.423   4.376   2.490 -1.0292 -0.7205 -0.0004
14509TIP3    H265019   5.562   4.328   2.451 -0.4861  0.8145 -0.0305
14510TIP3   OH265020   0.412   2.352   5.468 -0.5086  0.7411 -0.1939
14510TIP3    H165021   0.375   2.359   5.380 -0.8073 -3.3050 -0.6130
14510TIP3    H265022   0.381   2.430   5.514 -1.2415  2.4710 -3.3081
14511TIP3   OH265023   5.806   6.405   6.037  0.0762  0.1100 -0.2379
14511TIP3    H165024   5.841   6.378   5.953 -0.7029 -0.5749 -0.3619
14511TIP3    H265025   5.878   6.393   6.099  0.5745  0.3824 -0.7587
14512TIP3   OH265026   5.889   1.363  14.468 -0.1770 -0.1303 -0.2615
14512TIP3    H165027   5.863   1.274  14.443  0.9062 -0.0024 -1.9115
14512TIP3    H265028   5.881   1.414  14.388 -2.1827  1.6577  0.9484
14513TIP3   OH265029   4.658   0.714  15.061 -0.6053  0.4017  0.0228
14513TIP3    H165030   4.572   0.725  15.019 -0.9089  0.7278  0.7204
14513TIP3    H265031   4.710   0.786  15.026 -0.5086  0.0282 -0.6362
14514TIP3   OH265032   1.228   4.381  10.420  0.1828 -0.3481  0.1744
14514TIP3    H165033   1.310   4.333  10.403  0.3550 -0.8651  2.2107
14514TIP3    H265034   1.162   4.335  10.367  1.0143 -0.5210 -0.7432
14515TIP3   OH265035   2.089   2.300   2.599 -0.1228 -0.0241 -0.7333
14515TIP3    H165036   2.112   2.324   2.509  1.3647  0.5531 -0.2195
14515TIP3    H265037   2.042   2.376   2.633 -0.3691 -0.1029 -0.8877
14516TIP3   OH265038   1.674   2.094   3.952  0.0960 -0.1461  0.4187
14516TIP3    H165039   1.615   2.152   4.001 -0.0410 -0.1402  0.2488
14516TIP3    H265040   1.615   2.040   3.899  0.2579  0.0181  0.0735
14517TIP3   OH265041   6.501   0.238  10.704  0.0548  0.4314  0.0316
14517TIP3    H165042   6.494   0.277  10.617 -1.0483  0.6976  0.2292
14517TIP3    H265043   6.430   0.175  10.708  1.1191 -0.8047  0.1486
14518TIP3   OH265044   0.159   6.717  13.843  0.7495  0.0195  0.2519
14518TIP3    H165045   0.128   6.647  13.785  0.4456 -0.7623  1.3258
14518TIP3    H265046   0.253   6.699  13.853  0.5998 -0.4857  0.8334
14519TIP3   OH265047   3.127   3.279   1.421 -0.3505 -0.0486 -0.2864
14519TIP3    H165048   3.095   3.281   1.331  1.5897 -0.1712 -1.0411
14519TIP3    H265049   3.212   3.235   1.415 -0.5737 -0.8490  1.7507
14520TIP3   OH265050   0.280   2.008   3.293  0.2235 -0.2235  0.0096
14520TIP3    H165051   0.227   1.938   3.331 -0.3858  0.2943  0.1281
14520TIP3    H265052   0.353   2.019   3.354 -0.7545  0.6223  1.0811
14521TIP3   OH265053   6.560   0.941  16.129 -0.2549  0.2380 -0.1478
14521TIP3    H165054   6.533   1.010  16.189  0.7801  0.9309 -0.4702
14521TIP3    H265055   6.508   0.865  16.156  0.4889  0.4069  1.9020
14522TIP3   OH265056   1.458   6.644  16.375 -0.2990 -0.0420  0.1365
14522TIP3    H165057   1.421   6.559  16.398  1.4360  0.1284  4.7163
14522TIP3    H265058   1.552   6.634  16.391  0.1714  2.3045 -0.7546
14523TIP3   OH265059   4.882   4.589  15.503 -0.3433 -0.3654  0.3528
14523TIP3    H165060   4.915   4.520  15.446 -0.4195 -0.4740  0.4372
14523TIP3    H265061   4.905   4.559  15.592  0.1175 -0.0101  0.3517
14524TIP3   OH265062   4.360   3.977  14.200 -0.1854  0.1861 -0.1744
14524TIP3    H165063   4.285   4.002  14.254 -1.7993 -0.4169 -1.9855
14524TIP3    H265064   4.392   3.896  14.240 -0.8030  0.1970  0.3679
14525TIP3   OH265065   6.338   2.539   4.468  0.4517 -0.0279  0.0031
14525TIP3    H165066   6.369   2.545   4.558 -2.3823 -0.3815  1.1072
14525TIP3    H265067   6.352   2.627   4.432 -0.3448  0.7545  1.5189
14526TIP3   OH265068   5.788   5.440  14.914 -0.2876 -0.2042  0.2356
14526TIP3    H165069   5.749   5.439  15.002  0.9252 -0.3528  0.7815
14526TIP3    H265070   5.799   5.533  14.895  1.6064 -0.1757  1.2475
14527TIP3   OH265071   5.129   2.953   4.294  0.2793 -0.0454 -0.7787
14527TIP3    H165072   5.159   3.032   4.340  0.3958 -1.0691  0.9637
14527TIP3    H265073   5.035   2.953   4.308  0.1856  0.1445 -1.3889
14528TIP3   OH265074   0.215   0.024   5.834  1.0102  0.2249 -0.3921
14528TIP3    H165075   0.157   0.044   5.761  0.4799 -1.3851 -0.4556
14528TIP3    H265076   0.157   0.003   5.906  1.4515 -1.7084 -0.5407
14529TIP3   OH265077   1.451   6.610   2.032  0.3902 -0.3357  0.2696
14529TIP3    H165078   1.420   6.697   2.058  0.8048 -0.3346  0.7725
14529TIP3    H265079   1.521   6.628   1.968  1.2392 -0.2519  1.1894
14530TIP3   OH265080   6.187   2.438  16.291  0.0404  0.0867  0.0592
14530TIP3    H165081   6.114   2.423  16.351 -1.6395 -2.5542 -2.3958
14530TIP3    H265082   6.263   2.398  16.335 -0.3089  1.3476  1.8974
14531TIP3   OH265083   5.414   2.429   5.317 -0.1476  0.2424 -0.5079
14531TIP3    H165084   5.341   2.443   5.377  0.1054 -0.8678  0.0710
14531TIP3    H265085   5.454   2.516   5.308 -2.0129  1.0509 -1.5018
14532TIP3   OH265086   3.961   5.306   1.076 -0.2858 -0.0033  0.2677
14532TIP3    H165087   4.032   5.343   1.024 -2.0521  1.0730 -1.5052
14532TIP3    H265088   3.964   5.212   1.058  1.7652 -0.2771  1.6810
14533TIP3   OH265089   2.437   5.624   4.231 -0.2632  0.9471 -0.4247
14533TIP3    H165090   2.437   5.530   4.250 -0.0984  0.5834 -2.0910
14533TIP3    H265091   2.386   5.662   4.302 -1.6091 -0.5818 -0.5087
14534TIP3   OH265092   0.842   1.684  15.207  0.0391  0.4811 -0.2699
14534TIP3    H165093   0.821   1.652  15.294 -0.2845  1.1639 -0.0926
14534TIP3    H265094   0.790   1.630  15.147  1.7717 -1.3785 -0.2132
14535TIP3   OH265095   4.252   4.504  16.287  0.0909  0.1040 -0.8459
14535TIP3    H165096   4.216   4.526  16.201 -0.1724 -2.7482 -1.5468
14535TIP3    H265097   4.177   4.507  16.347 -0.2528 -0.4814 -1.2426
14536TIP3   OH265098   5.400   1.857  14.961 -0.1005  0.2367 -0.7534
14536TIP3    H165099   5.306   1.873  14.959 -0.1808 -0.2573 -0.9797
14536TIP3    H265100   5.436   1.930  15.013 -0.4953  0.9326 -1.4446
14537TIP3   OH265101   1.800   6.145  15.711  0.0006 -1.1910 -0.2322
14537TIP3    H165102   1.722   6.101  15.746  1.1244 -0.8276  3.0649
14537TIP3    H265103   1.783   6.238  15.724  0.8237 -1.0926  0.2211
14538TIP3   OH265104   1.060   2.821   1.328 -0.3023  0.0885  0.6464
14538TIP3    H165105   1.070   2.829   1.423  0.4587 -0.8963  0.6662
14538TIP3    H265106   1.068   2.727   1.310  0.7582  0.3650 -0.5026
14539TIP3   OH265107   0.742   1.901   3.157  0.1592  0.3474 -0.2358
14539TIP3    H165108   0.697   1.903   3.073  0.6301 -0.2489 -0.5087
14539TIP3    H265109   0.830   1.932   3.138  0.1867  0.4712  0.0903
14540TIP3   OH265110   1.094   4.705   3.085  0.4089 -0.3021  0.6146
14540TIP3    H165111   1.180   4.674   3.055  0.4317 -0.0934  0.4621
14540TIP3    H265112   1.112   4.789   3.127  0.1661  0.1592 -0.1855
14541TIP3   OH265113   4.705   3.964   0.599  0.2329 -0.1957 -0.5031
14541TIP3    H165114   4.726   4.057   0.611  0.6679 -0.4039  0.3972
14541TIP3    H265115   4.770   3.933   0.537  1.0574 -0.2512  0.3734
14542TIP3   OH265116   3.349   2.115   2.144  0.5096  0.7833 -0.1118
14542TIP3    H165117   3.316   2.183   2.085 -1.0735  0.4964  0.4109
14542TIP3    H265118   3.442   2.136   2.155  0.4602  1.7938 -1.3867
14543TIP3   OH265119   1.732   3.782  10.891 -0.3892  0.1443 -0.1263
14543TIP3    H165120   1.808   3.735  10.856  0.2335  1.3380 -0.4159
14543TIP3    H265121   1.689   3.818  10.813  1.9758  4.3171  0.2382
14544TIP3   OH265122   5.506   2.730   4.039  0.5424 -0.7469 -0.1764
14544TIP3    H165123   5.510   2.761   4.130  0.4293 -0.2777 -0.3274
14544TIP3    H265124   5.552   2.646   4.040 -1.4625 -1.9178  0.7939
14545TIP3   OH265125   0.178   1.442   3.773 -0.3432 -0.2564  0.2550
14545TIP3    H165126   0.117   1.390   3.825  0.5149 -0.0564  1.5082
14545TIP3    H265127   0.151   1.533   3.789 -0.8252 -0.2394 -0.6257
14546TIP3   OH265128   4.129   6.359   6.123 -0.1826  0.0785  0.0140
14546TIP3    H165129   4.103   6.358   6.030  0.8623 -0.7186 -0.2907
14546TIP3    H265130   4.215   6.401   6.123  0.7218 -1.6701  0.3430
14547TIP3   OH265131   1.426   5.915  14.875 -0.6159  0.5054 -0.1951
14547TIP3    H165132   1.418   5.838  14.930 -1.0613 -1.2206 -2.5339
14547TIP3    H265133   1.338   5.954  14.876 -1.0609 -0.4533 -0.9475
14548TIP3   OH265134   4.499   4.721   2.733  0.4039 -0.0689 -0.1529
14548TIP3    H165135   4.535   4.692   2.649 -0.1635 -1.3494  0.0276
14548TIP3    H265136   4.411   4.752   2.712  0.4593  0.1214 -0.1083
14549TIP3   OH265137   5.196   5.889  14.211  0.5883  0.2869 -0.2733
14549TIP3    H165138   5.282   5.928  14.198  0.4660  1.4277  1.8825
14549TIP3    H265139   5.211   5.814  14.267  0.4196 -0.9505 -1.8197
14550TIP3   OH265140   3.486   4.989   1.771  0.3967  0.3814 -0.3321
14550TIP3    H165141   3.418   4.928   1.801 -0.1144 -0.0189 -2.2060
14550TIP3    H265142   3.506   4.961   1.682  2.8878  0.6430  0.0867
14551TIP3   OH265143   6.609   6.487  11.803  0.0824  0.3344 -0.4877
14551TIP3    H165144   6.582   6.399  11.777  1.2527 -0.0066 -0.6367
14551TIP3    H265145   6.567   6.545  11.740  0.2547 -0.2247 -1.1383
14552TIP3   OH265146   2.068   5.068  11.287  0.3931 -0.6715 -0.4282
14552TIP3    H165147   2.075   4.991  11.231  0.4588  0.4257 -2.0194
14552TIP3    H265148   2.120   5.135  11.242  1.2405  0.0222  1.4605
14553TIP3   OH265149   2.082   5.077   5.854  0.3139  0.7044 -0.7103
14553TIP3    H165150   2.145   5.114   5.916 -0.2533  0.2225  0.1729
14553TIP3    H265151   2.089   4.982   5.867 -1.2108  0.6715  0.0333
14554TIP3   OH265152   0.164   1.479  13.687  0.1543 -0.2974 -0.2315
14554TIP3    H165153   0.092   1.440  13.638  1.3639 -0.6355 -1.8434
14554TIP3    H265154   0.161   1.572  13.665  0.5690 -0.4146 -0.8106
14555TIP3   OH265155   1.129   5.449  12.463  0.0166  0.0816 -0.1857
14555TIP3    H165156   1.055   5.413  12.414 -0.6292 -0.3017  1.0297
14555TIP3    H265157   1.120   5.544  12.453  0.4963 -0.0135 -1.6455
14556TIP3   OH265158   0.933   2.831  16.033 -0.3233 -0.0510 -0.7826
14556TIP3    H165159   0.890   2.904  15.987 -0.6359 -0.2858 -0.8694
14556TIP3    H265160   0.967   2.776  15.963  1.2495  0.7817 -0.7058
14557TIP3   OH265161   2.135   0.332  15.787 -0.6059 -0.0514 -0.5246
14557TIP3    H165162   2.076   0.365  15.720  0.7195  0.0083 -1.7174
14557TIP3    H265163   2.093   0.253  15.819 -1.9918  0.7399 -0.3351
14558TIP3   OH265164   3.639   3.890  16.399  0.0533  0.0640  0.5546
14558TIP3    H165165   3.654   3.945  16.477  0.8284 -0.7856  1.0278
14558TIP3    H265166   3.720   3.899  16.348 -1.3366  2.5566 -1.4486
14559TIP3   OH265167   1.134   2.231  15.966 -0.0089  0.2121 -0.2346
14559TIP3    H165168   1.213   2.268  15.925  0.1498  1.3389  1.0125
14559TIP3    H265169   1.069   2.230  15.896  0.4688  1.3929 -0.7273
14560TIP3   OH265170   0.046   4.874   2.786  0.2084  0.2507  0.1071
14560TIP3    H165171   0.082   4.910   2.867 -1.4550  1.9995  0.1447
14560TIP3    H265172   0.010   4.789   2.812  0.1452  0.5651  1.1077
14561TIP3   OH265173   0.779   2.224  13.841  0.0187  0.3291 -0.1271
14561TIP3    H165174   0.688   2.194  13.848  0.3546 -0.3952  1.6302
14561TIP3    H265175   0.776   2.315  13.869 -0.2896  0.6141 -1.0329
14562TIP3   OH265176   0.442   0.600   0.542  0.5848 -0.0824 -0.1349
14562TIP3    H165177   0.406   0.687   0.561  0.4254 -0.5223  1.8607
14562TIP3    H265178   0.375   0.556   0.491 -0.5514  0.0502  1.1944
14563TIP3   OH265179   2.827   6.669   4.329 -0.3085 -0.0835 -0.3728
14563TIP3    H165180   2.909   6.715   4.344 -1.2404  1.8688 -1.0188
14563TIP3    H265181   2.804   6.631   4.414  1.7065 -1.5245 -0.3971
14564TIP3   OH265182   2.333   2.921  16.416 -0.3667  0.0635 -0.4872
14564TIP3    H165183   2.253   2.887  16.376 -0.0671 -2.0755  0.5886
14564TIP3    H265184   2.365   2.849  16.470  2.1188  0.9868 -0.6136
14565TIP3   OH265185   0.872   0.219  14.025 -0.5654  0.2549 -0.3724
14565TIP3    H165186   0.952   0.167  14.034 -1.6318 -1.2519  1.0284
14565TIP3    H265187   0.830   0.186  13.946  1.2020  2.6629 -2.5295
14566TIP3   OH265188   4.963   3.699  14.452 -0.6812 -0.6531 -0.3491
14566TIP3    H165189   5.011   3.679  14.371  0.4444 -0.6360  0.2916
14566TIP3    H265190   4.929   3.614  14.480 -0.2107 -0.8293 -0.3057
14567TIP3   OH265191   2.595   2.030   4.977  0.0952  0.0335  0.7926
14567TIP3    H165192   2.569   2.059   5.065 -2.6100  1.4481 -0.3544
14567TIP3    H265193   2.531   1.962   4.955  2.4558 -2.3900  0.8981
14568TIP3   OH265194   5.173   3.406  14.074 -0.4587 -0.0704  0.3790
14568TIP3    H165195   5.173   3.437  13.983 -0.6548  0.5183  0.5782
14568TIP3    H265196   5.249   3.348  14.079  0.0775  0.5878  0.0710
14569TIP3   OH265197   5.218   6.049   1.800 -0.3342 -0.0502  0.0369
14569TIP3    H165198   5.193   5.957   1.798 -1.1037  0.0865  1.5033
14569TIP3    H265199   5.307   6.048   1.834  0.4522 -0.3394 -1.9128
14570TIP3   OH265200   3.448   2.950   6.299  0.4306 -0.6007  0.4032
14570TIP3    H165201   3.535   2.917   6.321  0.1926 -1.4465  0.1003
14570TIP3    H265202   3.453   3.044   6.316  1.0223 -0.8256  1.6136
14571TIP3   OH265203   2.888   4.139  12.038 -0.5315 -0.1535  0.4100
14571TIP3    H165204   2.964   4.181  11.998 -1.7932  0.8316 -1.0763
14571TIP3    H265205   2.892   4.162  12.130 -1.5418  4.0244 -0.4025
14572TIP3   OH265206   3.231   1.769   5.573 -0.4932 -0.3716 -0.4237
14572TIP3    H165207   3.200   1.854   5.541  0.3896  0.7920  1.6071
14572TIP3    H265208   3.176   1.751   5.650  1.5477  0.1300  1.2576
14573TIP3   OH265209   3.663   4.435  16.084 -0.2296  0.2891 -0.7207
14573TIP3    H165210   3.604   4.497  16.042  0.0105  0.1352 -1.2889
14573TIP3    H265211   3.719   4.403  16.013 -0.3095 -0.5292 -0.4209
14574TIP3   OH265212   2.180   5.499   6.392  0.3256 -0.0814 -0.2339
14574TIP3    H165213   2.208   5.543   6.472  0.2383  1.6208 -1.0866
14574TIP3    H265214   2.170   5.407   6.417  2.2012  0.0577  1.2097
14575TIP3   OH265215   4.563   1.401  13.288  0.5867  1.0350 -0.2592
14575TIP3    H165216   4.472   1.372  13.279  0.6293  0.5852  0.6430
14575TIP3    H265217   4.609   1.326  13.325  1.3244  1.2794 -0.6582
14576TIP3   OH265218   1.114   0.620  14.279  0.4256 -0.6780  0.5783
14576TIP3    H165219   1.115   0.616  14.183 -1.1745  1.6416  0.3841
14576TIP3    H265220   1.182   0.558  14.306 -0.2411 -2.7151 -1.9684
14577TIP3   OH265221   0.481   5.409  11.418 -0.6605  0.3142  0.1464
14577TIP3    H165222   0.572   5.439  11.426 -0.5728  0.1462 -0.1856
14577TIP3    H265223   0.485   5.336  11.356 -0.8946 -0.2849  0.8301
14578TIP3   OH265224   5.713   3.653  14.698 -0.5157 -0.8926  0.0658
14578TIP3    H165225   5.624   3.680  14.724 -0.0960  0.6587 -0.0095
14578TIP3    H265226   5.725   3.690  14.611  1.1914  1.4245  1.1734
14579TIP3   OH265227   3.867   4.481  14.431  0.0125  0.2792 -0.5515
14579TIP3    H165228   3.798   4.430  14.474  1.0336  0.1597  1.0590
14579TIP3    H265229   3.825   4.562  14.404 -0.9827 -0.2258 -0.5558
14580TIP3   OH265230   5.374   2.705   2.738 -0.3207  0.3782 -0.1471
14580TIP3    H165231   5.317   2.704   2.662 -0.6613  1.1135  0.0922
14580TIP3    H265232   5.356   2.789   2.782  1.8033  1.2401 -0.7430
14581TIP3   OH265233   2.783   0.712   1.560 -0.0922 -0.0248 -0.0558
14581TIP3    H165234   2.865   0.662   1.561 -1.2527 -2.0329  0.3223
14581TIP3    H265235   2.757   0.714   1.468  0.9550  1.6950 -0.3541
14582TIP3   OH265236   4.434   3.840   6.000  0.0691 -0.7774  0.4291
14582TIP3    H165237   4.364   3.802   6.052 -2.3553  2.0566 -0.4506
14582TIP3    H265238   4.467   3.912   6.055  0.4594 -0.4686 -0.2045
14583TIP3   OH265239   5.089   1.961  14.147 -0.4025 -0.3102 -0.2537
14583TIP3    H165240   5.065   1.904  14.220 -0.6981  0.0530 -0.0647
14583TIP3    H265241   5.179   1.936  14.125 -0.0233  0.1387  0.7641
14584TIP3   OH265242   1.509   0.011   2.737 -0.5806 -0.0854  1.2896
14584TIP3    H165243   1.573   0.058   2.789 -0.5721 -0.8570  2.0020
14584TIP3    H265244   1.458  -0.040   2.800 -2.4416  1.0972  0.8362
14585TIP3   OH265245   6.410   6.297   5.128  0.3011  0.5247  0.6436
14585TIP3    H165246   6.466   6.348   5.069  0.0675  0.0259 -0.0241
14585TIP3    H265247   6.471   6.253   5.187  0.6646 -0.2695 -0.2850
14586TIP3   OH265248   5.638   2.322   5.459  0.4248  0.1831 -0.2293
14586TIP3    H165249   5.720   2.372   5.459 -0.0311  0.9674  0.5233
14586TIP3    H265250   5.591   2.353   5.381  0.5711  0.1824 -0.3186
14587TIP3   OH265251   1.772   2.927   3.733 -0.1716  0.0106 -0.7214
14587TIP3    H165252   1.706   2.933   3.802  1.5749 -0.1544  1.0217
14587TIP3    H265253   1.786   2.833   3.722  0.3053  0.0611 -0.5539
14588TIP3   OH265254   6.816   6.229  15.618  0.1980 -0.1679 -0.1267
14588TIP3    H165255   6.797   6.320  15.594  0.1541  0.7521  2.9003
14588TIP3    H265256   6.779   6.177  15.547 -0.6708  2.1350 -1.4741
14589TIP3   OH265257   5.686   3.658   1.836 -0.2207 -0.2945  0.2885
14589TIP3    H165258   5.724   3.729   1.785 -2.1090 -0.1518 -1.0078
14589TIP3    H265259   5.663   3.698   1.920 -0.4343  0.3938 -0.0918
14590TIP3   OH265260   3.642   0.210  11.933  0.3419  0.3877 -0.2942
14590TIP3    H165261   3.609   0.190  12.021  0.3321  0.6030 -0.2473
14590TIP3    H265262   3.712   0.146  11.919  1.6352  1.5385  0.6455
14591TIP3   OH265263   0.286   5.815   4.768  0.3346  0.2369 -0.5707
14591TIP3    H165264   0.354   5.749   4.779 -0.1337 -0.1571 -0.0174
14591TIP3    H265265   0.227   5.778   4.703  1.1732  1.0178 -1.8241
14592TIP3   OH265266   3.893   3.652  11.601  0.2403  0.1917  0.0498
14592TIP3    H165267   3.843   3.720  11.557  0.3551  0.3299  0.1329
14592TIP3    H265268   3.833   3.577  11.606 -0.0206  0.4189  0.3204
14593TIP3   OH265269   3.939   1.754   2.903  0.2936  0.0956  0.0832
14593TIP3    H165270   3.914   1.702   2.979 -2.5087 -2.3319 -2.2473
14593TIP3    H265271   3.885   1.833   2.909  1.8581  1.1112  1.7364
14594TIP3   OH265272   6.548   3.849  12.730  0.3174 -0.3456 -0.4219
14594TIP3    H165273   6.539   3.760  12.695 -0.5482 -0.1568 -0.7028
14594TIP3    H265274   6.534   3.906  12.655  0.2655  0.0378 -0.1211
14595TIP3   OH265275   6.789   4.031  16.137  0.1954 -0.0074 -0.0370
14595TIP3    H165276   6.778   4.123  16.116 -1.5136 -0.1677  0.0106
14595TIP3    H265277   6.712   3.988  16.100 -0.0697 -1.1047  1.6354
14596TIP3   OH265278   0.471   1.575  15.506  0.6369 -0.3503  0.4362
14596TIP3    H165279   0.446   1.616  15.589  0.9117  2.2199 -0.6530
14596TIP3    H265280   0.555   1.614  15.484  0.3118 -0.5617 -1.3130
14597TIP3   OH265281   3.436   3.577  11.678  0.5693  0.0980 -0.8550
14597TIP3    H165282   3.463   3.668  11.690  0.5801 -0.0162  0.0174
14597TIP3    H265283   3.362   3.582  11.618 -0.8005  0.9047  0.8085
14598TIP3   OH265284   5.867   1.778   1.398  0.0157  0.0063 -0.1633
14598TIP3    H165285   5.817   1.856   1.376  0.7591  1.1641  1.9927
14598TIP3    H265286   5.807   1.724   1.450  0.0887 -0.0083 -0.0943
14599TIP3   OH265287   5.827   2.301   3.923 -0.3154  0.8235  0.0005
14599TIP3    H165288   5.842   2.270   3.834  0.5950 -0.7774  0.6608
14599TIP3    H265289   5.828   2.221   3.977  1.0314  1.9077  1.6844
14600TIP3   OH265290   1.548   3.887   5.061 -0.1073 -0.4701  0.1059
14600TIP3    H165291   1.497   3.828   5.117 -1.3579  1.5980  1.2546
14600TIP3    H265292   1.637   3.853   5.065 -0.1469 -0.4708  3.3473
14601TIP3   OH265293   3.322   0.878   5.609 -0.0214  0.2045 -0.0954
14601TIP3    H165294   3.308   0.869   5.515 -1.8349  1.1410  0.0486
14601TIP3    H265295   3.256   0.821   5.649 -0.4980  1.2349  0.6165
14602TIP3   OH265296   0.717   4.003  14.860  0.3244  0.4903  0.8702
14602TIP3    H165297   0.755   4.091  14.861 -2.7728  1.9873  0.1347
14602TIP3    H265298   0.760   3.959  14.786 -0.4485  2.6212 -0.9349
14603TIP3   OH265299   0.507   4.396  16.187 -0.1894 -0.3947 -0.0703
14603TIP3    H165300   0.479   4.322  16.134  2.0530 -0.7299 -0.8832
14603TIP3    H265301   0.461   4.472  16.149 -0.8550 -1.0420 -0.5880
14604TIP3   OH265302   0.192   4.196  12.577 -0.0190  0.0472  0.4161
14604TIP3    H165303   0.274   4.147  12.577 -0.4554 -0.6949  0.5292
14604TIP3    H265304   0.213   4.278  12.621  1.1832  0.7812 -1.3931
14605TIP3   OH265305   6.139   2.421  11.857 -0.0220 -0.8307 -0.5306
14605TIP3    H165306   6.105   2.387  11.940 -0.5463 -1.3811 -0.9640
14605TIP3    H265307   6.072   2.482  11.827 -0.3963 -1.5292 -1.1337
14606TIP3   OH265308   6.596   2.796   0.326 -0.5787 -0.1999  0.6192
14606TIP3    H165309   6.533   2.748   0.271  0.2341 -1.3282  0.6510
14606TIP3    H265310   6.541   2.840   0.390 -1.3405 -1.5643  0.9625
14607TIP3   OH265311   4.171   2.232  16.668  0.3937  0.2508  0.0904
14607TIP3    H165312   4.131   2.201  16.750  0.5982  2.1327  0.9631
14607TIP3    H265313   4.101   2.223  16.603 -0.1020 -0.3463  0.6862
14608TIP3   OH265314   5.814   5.854  15.770 -0.0140  0.1492 -0.2170
14608TIP3    H165315   5.892   5.909  15.779  1.4674 -1.6430 -1.3524
14608TIP3    H265316   5.844   5.778  15.720 -2.2140 -1.2143  0.4084
14609TIP3   OH265317   0.768   2.996  13.950  0.7397  0.0090  0.3470
14609TIP3    H165318   0.775   3.089  13.927 -0.0230  0.1303  0.5594
14609TIP3    H265319   0.827   2.951  13.889 -1.2523  0.2914 -1.9488
14610TIP3   OH265320   3.063   4.652   4.808  0.0594  0.1428  0.2119
14610TIP3    H165321   3.020   4.684   4.887  1.4726 -0.8383  1.4385
14610TIP3    H265322   3.007   4.581   4.777  0.3171 -0.5381  1.2743
14611TIP3   OH265323   2.882   3.764  13.955  0.2272 -0.0541 -0.1918
14611TIP3    H165324   2.793   3.731  13.971 -0.1337  0.8053 -0.3822
14611TIP3    H265325   2.869   3.846  13.907  1.0674  0.9596  1.2558
14612TIP3   OH265326   4.649   0.430  11.510 -0.0559  0.0445 -0.1931
14612TIP3    H165327   4.728   0.483  11.524  1.4176 -1.8343 -0.9593
14612TIP3    H265328   4.593   0.484  11.454  0.8207  1.2778  0.0855
14613TIP3   OH265329   2.662   6.253  15.489  0.6811 -0.1830  0.2933
14613TIP3    H165330   2.691   6.277  15.576  0.0357  0.9917  0.2028
14613TIP3    H265331   2.677   6.158  15.484  2.8134  0.0713  0.8556
14614TIP3   OH265332   0.696   6.735  15.248 -0.1708  0.1844  0.3542
14614TIP3    H165333   0.783   6.752  15.213 -0.6141  0.3908 -0.6799
14614TIP3    H265334   0.711   6.678  15.324  0.9116  0.8187  0.6389
14615TIP3   OH265335   5.587   2.482  15.275 -0.0850  0.3303  0.3179
14615TIP3    H165336   5.577   2.457  15.183 -1.8854 -1.4304  0.9196
14615TIP3    H265337   5.525   2.426  15.322 -0.3038  2.2429  2.4585
14616TIP3   OH265338   1.854   4.707  14.014  0.3659 -0.0868  0.1273
14616TIP3    H165339   1.770   4.673  13.984  0.0271  1.4845 -0.8647
14616TIP3    H265340   1.841   4.723  14.108  0.2316 -1.6917  0.4044
14617TIP3   OH265341   5.419   0.629  17.140 -0.2633  0.1494  0.3789
14617TIP3    H165342   5.355   0.694  17.110 -2.3583 -2.3892 -1.0485
14617TIP3    H265343   5.433   0.572  17.065  2.2091 -0.5505  1.2961
14618TIP3   OH265344   2.618   4.058   2.768  0.0630 -0.0682 -0.3617
14618TIP3    H165345   2.604   4.005   2.847 -0.7726 -1.3683 -1.3456
14618TIP3    H265346   2.531   4.065   2.728  0.3410  1.2260 -0.7962
14619TIP3   OH265347   1.690   6.634  11.387  0.0392  0.5667 -0.3544
14619TIP3    H165348   1.654   6.558  11.431  2.5558  0.4156  1.6409
14619TIP3    H265349   1.616   6.670  11.337 -2.0246 -1.3137  1.1651
14620TIP3   OH265350   2.427   3.636  12.813 -0.4346 -0.4478  0.6134
14620TIP3    H165351   2.466   3.613  12.897 -2.0359  0.7818  1.7612
14620TIP3    H265352   2.343   3.677  12.836 -0.1124  1.5895 -1.4909
14621TIP3   OH265353   4.631   2.273  16.062  0.6006  0.4761 -0.6365
14621TIP3    H165354   4.574   2.320  16.002  0.9747  0.5891 -0.9079
14621TIP3    H265355   4.642   2.186  16.022  2.3458  1.1404 -1.7245
14622TIP3   OH265356   1.022   2.716  11.857 -0.5780 -0.6883  0.6968
14622TIP3    H165357   1.007   2.809  11.841 -0.5548 -0.8140 -0.1016
14622TIP3    H265358   1.070   2.686  11.780  0.2712 -1.1548  1.3934
14623TIP3   OH265359   3.746   0.789  14.150  0.5243  0.4678 -0.3357
14623TIP3    H165360   3.729   0.830  14.235 -3.4636 -0.3285 -0.5274
14623TIP3    H265361   3.807   0.849  14.106  0.4570  2.4081  1.9929
14624TIP3   OH265362   2.742   0.929  12.306  0.0619  0.9057  0.2912
14624TIP3    H165363   2.783   0.954  12.223  1.3757  2.5587  1.3676
14624TIP3    H265364   2.714   1.012  12.345 -1.4692  0.0667  1.0504
14625TIP3   OH265365   6.114   3.451   4.448  0.3169  0.6363  0.0028
14625TIP3    H165366   6.074   3.537   4.434 -2.9717 -0.7614  0.1827
14625TIP3    H265367   6.207   3.466   4.429 -0.2474  3.9919 -0.8787
14626TIP3   OH265368   3.614   2.759   1.995  0.1050 -0.3336 -0.3891
14626TIP3    H165369   3.620   2.852   2.018 -0.5018  0.0283 -1.6028
14626TIP3    H265370   3.537   2.728   2.044  0.9543 -0.4981  0.8931
14627TIP3   OH265371   3.478   5.847   3.393  0.3109  0.2216 -0.8963
14627TIP3    H165372   3.535   5.921   3.371  0.5671  1.3062  2.7579
14627TIP3    H265373   3.451   5.864   3.483 -0.4979 -3.6586 -0.2551
14628TIP3   OH265374   6.564   4.115   2.664 -0.2351 -0.1149  0.4879
14628TIP3    H165375   6.564   4.200   2.621  0.7123 -0.0117  0.6625
14628TIP3    H265376   6.645   4.074   2.636 -0.4023 -0.7225  0.8689
14629TIP3   OH265377   5.284   3.300  13.304 -0.0992 -0.0596 -0.6792
14629TIP3    H165378   5.287   3.321  13.397 -1.9105 -2.8841  0.1439
14629TIP3    H265379   5.216   3.359  13.269 -2.0200 -1.3522  0.6369
14630TIP3   OH265380   0.280   0.774   1.588 -0.0150  0.0024  0.8743
14630TIP3    H165381   0.260   0.722   1.667 -1.7380 -0.6491  0.0622
14630TIP3    H265382   0.238   0.858   1.605 -3.0176 -1.0998 -0.4927
14631TIP3   OH265383   0.351   1.464  11.300 -0.1558 -0.3749  0.1910
14631TIP3    H165384   0.280   1.470  11.364 -2.0214 -1.8004 -1.6246
14631TIP3    H265385   0.428   1.440  11.353 -1.3380 -0.3045  2.0363
14632TIP3   OH265386   1.279   3.758   3.523 -0.1808 -0.2950  0.7578
14632TIP3    H165387   1.305   3.720   3.606  1.9527  0.5281  0.5389
14632TIP3    H265388   1.336   3.716   3.458 -0.9489 -0.0346 -0.1087
14633TIP3   OH265389   1.820   6.497   5.663  0.3021 -0.1271 -0.3455
14633TIP3    H165390   1.915   6.492   5.676  0.2299  0.1090  0.3377
14633TIP3    H265391   1.806   6.584   5.626  0.5081 -0.7967 -2.0950
14634TIP3   OH265392   4.367   6.616   0.586 -0.3865  0.5231 -0.2775
14634TIP3    H165393   4.445   6.650   0.543 -2.4310  0.9613 -4.0534
14634TIP3    H265394   4.298   6.678   0.562 -1.8549  0.7526  3.7682
14635TIP3   OH265395   0.249   5.443  15.968  0.4687  0.2634  0.2292
14635TIP3    H165396   0.330   5.394  15.971 -0.3388 -1.0664  1.2371
14635TIP3    H265397   0.247   5.481  15.880  1.5360 -0.7698 -0.2557
14636TIP3   OH265398   6.522   5.763   2.278 -0.3359 -0.0827  0.2476
14636TIP3    H165399   6.553   5.816   2.205  0.1069  0.6842  0.9725
14636TIP3    H265400   6.526   5.821   2.354  0.7399 -1.3278  1.1903
14637TIP3   OH265401   3.562   6.193  16.237  0.0272  0.4163 -0.1613
14637TIP3    H165402   3.580   6.167  16.327  0.2066  0.5540 -0.1552
14637TIP3    H265403   3.635   6.250  16.214  0.5793 -0.5112 -0.7751
14638TIP3   OH265404   0.509   4.804   0.920  0.2238 -0.1389  0.7955
14638TIP3    H165405   0.537   4.751   0.994 -1.7470  0.7167  2.2463
14638TIP3    H265406   0.535   4.894   0.944  1.4962 -0.0905 -0.5877
14639TIP3   OH265407   6.674   1.803   3.612  0.1062  0.1374 -0.1149
14639TIP3    H165408   6.681   1.757   3.528 -0.5661 -1.5994  0.7299
14639TIP3    H265409   6.751   1.775   3.661 -0.2307  0.0322  0.3587
14640TIP3   OH265410   4.826   0.628  15.258 -0.3558 -0.0597 -0.3198
14640TIP3    H165411   4.898   0.691  15.255 -1.7733  1.8750  2.2347
14640TIP3    H265412   4.765   0.657  15.190 -0.5803  0.8204  0.2415
14641TIP3   OH265413   6.188   4.502  11.843 -0.0413  0.1216  0.4941
14641TIP3    H165414   6.150   4.589  11.859  1.4153  0.2512  4.1058
14641TIP3    H265415   6.202   4.466  11.930  3.1226 -2.1111 -0.7750
14642TIP3   OH265416   5.425   1.460  14.827  0.7704 -0.6845 -0.0376
14642TIP3    H165417   5.336   1.494  14.815  0.1519 -2.7812 -2.5095
14642TIP3    H265418   5.412   1.371  14.860  2.0015 -0.7156  0.4044
14643TIP3   OH265419   3.885   0.471  12.300 -0.4146  0.1784 -0.2554
14643TIP3    H165420   3.978   0.483  12.279 -0.5674  0.8531 -0.5674
14643TIP3    H265421   3.839   0.513  12.228 -0.9664 -0.1135 -0.0769
14644TIP3   OH265422   6.021   3.718   4.461  0.2825 -0.5231 -0.0729
14644TIP3    H165423   5.958   3.717   4.389  1.0654  0.8189 -0.8047
14644TIP3    H265424   6.063   3.804   4.456  0.1080 -0.2327  2.2132
14645TIP3   OH265425   3.604   1.311   4.710  0.0007  0.4588  0.7290
14645TIP3    H165426   3.547   1.253   4.759  0.8866 -1.0850  0.0005
14645TIP3    H265427   3.683   1.320   4.763 -0.3450  1.4824  1.0986
14646TIP3   OH265428   3.456   5.238  11.227 -0.1328  0.0910  0.1060
14646TIP3    H165429   3.401   5.195  11.292  0.4547 -2.2735 -0.8595
14646TIP3    H265430   3.451   5.182  11.150 -0.6546  2.6911 -1.8884
14647TIP3   OH265431   2.760   3.072  12.131  0.1047 -0.0022 -0.1105
14647TIP3    H165432   2.694   3.005  12.149 -0.4357  0.6447  0.3648
14647TIP3    H265433   2.807   3.083  12.213  2.5194 -2.2312 -1.0573
14648TIP3   OH265434   6.654   5.482  12.711 -0.5113  0.3412  0.9667
14648TIP3    H165435   6.641   5.576  12.727  0.5941  0.9427 -1.1882
14648TIP3    H265436   6.722   5.456  12.774  0.4044  1.4383  0.4802
14649TIP3   OH265437   0.731   1.719  16.331  0.0979  0.8241 -0.4078
14649TIP3    H165438   0.818   1.679  16.327 -0.9592 -1.6939  0.1455
14649TIP3    H265439   0.670   1.646  16.323 -1.9971  2.4800 -0.4725
14650TIP3   OH265440   6.148   5.486  13.590 -0.1349  0.0269  0.5046
14650TIP3    H165441   6.194   5.530  13.518  1.2209  1.8319  2.3413
14650TIP3    H265442   6.060   5.522  13.588  0.0988  0.5943  0.1720
14651TIP3   OH265443   2.965   4.259   2.527 -0.8966  0.2856 -0.2208
14651TIP3    H165444   2.936   4.253   2.618 -0.7374  3.8265  0.1715
14651TIP3    H265445   2.976   4.352   2.511  0.2341 -0.2938 -3.5537
14652TIP3   OH265446   0.102   1.449  12.307 -0.0808 -0.2614 -0.3298
14652TIP3    H165447   0.089   1.380  12.372 -0.1570  0.2661  0.2259
14652TIP3    H265448   0.020   1.498  12.308 -0.4932 -0.8735 -1.5994
14653TIP3   OH265449   5.030   5.159   0.770 -0.0203  0.6191 -0.0611
14653TIP3    H165450   4.938   5.133   0.762 -0.0362  0.3463  0.8377
14653TIP3    H265451   5.032   5.250   0.743 -0.2828  0.2203 -1.5487
14654TIP3   OH265452   2.270   5.702   1.330  0.0870 -0.4133  0.1962
14654TIP3    H165453   2.310   5.631   1.280  0.7159  0.3014 -0.3401
14654TIP3    H265454   2.258   5.773   1.266  0.0073  0.1716  0.8475
14655TIP3   OH265455   6.109   0.286   5.175 -0.1103 -0.4877 -0.1190
14655TIP3    H165456   6.174   0.218   5.189  1.8140  1.1658 -0.5395
14655TIP3    H265457   6.034   0.240   5.137  0.9430 -2.4090  0.0002
14656TIP3   OH265458   6.211   2.600  14.772  0.4093  0.5408  0.5779
14656TIP3    H165459   6.121   2.615  14.799  0.2582 -1.9706  1.7336
14656TIP3    H265460   6.263   2.653  14.832 -0.2341  0.5753  1.1200
14657TIP3   OH265461   1.462   3.199   0.046 -0.7057 -0.1850  0.3527
14657TIP3    H165462   1.444   3.209   0.140 -2.2815 -0.1674  0.0704
14657TIP3    H265463   1.380   3.168   0.009 -0.2976  0.4336 -1.1318
14658TIP3   OH265464   1.321   3.982  14.134 -0.0068  0.5211  0.0781
14658TIP3    H165465   1.352   3.916  14.196  2.2817  1.5105  0.0845
14658TIP3    H265466   1.376   3.970  14.057 -2.3640 -0.2495 -1.5943
14659TIP3   OH265467   3.841   4.807   5.172  0.3551  0.0515 -0.0865
14659TIP3    H165468   3.769   4.866   5.195  0.7787  0.3282  0.5555
14659TIP3    H265469   3.849   4.815   5.076 -0.2998  0.2024 -0.1337
14660TIP3   OH265470   2.199   0.324  11.223 -0.1619 -0.2240  0.4403
14660TIP3    H165471   2.289   0.322  11.254  0.6682 -0.5540 -1.8318
14660TIP3    H265472   2.147   0.338  11.303  1.9784  2.1433  1.5726
14661TIP3   OH265473   6.690   1.417  11.963 -0.3296  0.3236  0.2408
14661TIP3    H165474   6.686   1.379  11.876 -0.6711 -0.7782  0.7202
14661TIP3    H265475   6.756   1.365  12.009 -0.6340  0.4585  0.8378
14662TIP3   OH265476   1.428   3.235  16.333  1.1419  0.2442  0.7084
14662TIP3    H165477   1.361   3.169  16.352 -0.4039  1.5551  0.0494
14662TIP3    H265478   1.485   3.232  16.409 -0.7198  0.3197  2.1951
14663TIP3   OH265479   1.663   4.235  12.692 -0.1587 -0.4665 -0.1155
14663TIP3    H165480   1.738   4.216  12.749 -0.3611 -0.6610  0.0856
14663TIP3    H265481   1.650   4.154  12.642 -0.5724 -0.6231  0.2355
14664TIP3   OH265482   2.216   5.845   1.097  0.2996 -0.2345  0.1636
14664TIP3    H165483   2.196   5.753   1.083 -1.0301  0.0959 -0.2659
14664TIP3    H265484   2.131   5.889   1.098  0.8087  0.8171  1.7392
14665TIP3   OH265485   2.439   3.153  13.603  0.3414 -0.2559  0.3244
14665TIP3    H165486   2.444   3.058  13.610  0.2861 -0.2890 -0.0617
14665TIP3    H265487   2.355   3.169  13.560  0.7238 -0.0762 -0.3776
14666TIP3   OH265488   3.958   2.831   5.382  0.5263 -0.1145  0.0626
14666TIP3    H165489   3.972   2.844   5.288 -0.3971  2.6163  0.2128
14666TIP3    H265490   3.864   2.845   5.394  0.5672 -0.7752  1.3701
14667TIP3   OH265491   5.763   4.163   1.729  0.2559 -0.7553 -0.1817
14667TIP3    H165492   5.697   4.124   1.786  0.3372  0.0236  0.4759
14667TIP3    H265493   5.716   4.231   1.680  0.4557 -0.5387 -0.0797
14668TIP3   OH265494   6.324   2.492   0.582 -0.4019 -0.4578  0.0905
14668TIP3    H165495   6.284   2.566   0.627  1.4452  1.5303 -1.3544
14668TIP3    H265496   6.338   2.427   0.651 -0.8795  1.0287  1.6549
14669TIP3   OH265497   4.325   4.792   0.924  0.2696  0.3104 -0.3831
14669TIP3    H165498   4.397   4.735   0.895 -0.0562  0.3263 -1.2392
14669TIP3    H265499   4.249   4.761   0.875  0.0908  1.5066 -0.8976
14670TIP3   OH265500   6.724   0.268  12.173  0.0780  0.6061  0.2165
14670TIP3    H165501   6.744   0.175  12.174 -1.8524  0.1190 -1.2953
14670TIP3    H265502   6.800   0.309  12.215  0.6344 -1.6732  1.5917
14671TIP3   OH265503   4.191   0.364   1.719  0.9253 -0.6944  0.0526
14671TIP3    H165504   4.149   0.448   1.737  0.3860 -1.0041  0.2824
14671TIP3    H265505   4.283   0.385   1.704  0.8305 -0.0914  0.3073
14672TIP3   OH265506   3.263   4.295   1.637 -0.1312 -0.2960 -0.4153
14672TIP3    H165507   3.254   4.251   1.721  0.0601 -0.2159 -0.3521
14672TIP3    H265508   3.329   4.243   1.590  0.0718 -0.0973 -0.3531
14673TIP3   OH265509   3.677   3.963   5.194  0.7039  0.0350 -0.5075
14673TIP3    H165510   3.633   3.912   5.126  1.3733 -2.1107  0.5727
14673TIP3    H265511   3.621   4.039   5.208 -1.3467 -1.3502 -0.8922
14674TIP3   OH265512   6.320   3.451   1.156  0.1464  0.3150 -0.3928
14674TIP3    H165513   6.400   3.459   1.209  0.3173  0.9519 -0.7328
14674TIP3    H265514   6.249   3.466   1.219  0.3318  0.6133 -0.2489
14675TIP3   OH265515   4.870   5.663   4.557  0.0626  0.1575 -0.0815
14675TIP3    H165516   4.953   5.710   4.553  0.3378 -0.2885  0.2120
14675TIP3    H265517   4.869   5.624   4.644 -0.2819 -0.1472 -0.2185
14676TIP3   OH265518   1.220   4.361   5.523  0.0578  0.3257 -0.1703
14676TIP3    H165519   1.260   4.365   5.436 -0.4759  0.8585 -0.3960
14676TIP3    H265520   1.288   4.323   5.579  0.8829  1.2044 -0.5457
14677TIP3   OH265521   2.018   1.777   4.995  0.6438  0.1300 -0.1004
14677TIP3    H165522   2.032   1.694   4.949  0.4507  0.0950 -0.0989
14677TIP3    H265523   1.984   1.752   5.081  2.9301  0.1006  0.8567
14678TIP3   OH265524   3.802   2.446   4.785 -0.0078  0.1942 -0.3787
14678TIP3    H165525   3.849   2.365   4.764 -3.1434 -2.1807  1.0064
14678TIP3    H265526   3.747   2.462   4.709 -1.1456 -0.4038  0.2981
14679TIP3   OH265527   0.490   1.431   4.357  0.1826 -0.1081 -0.1201
14679TIP3    H165528   0.436   1.373   4.411 -0.5243  0.3451 -0.3354
14679TIP3    H265529   0.479   1.517   4.397  1.5047 -0.1547  0.4114
14680TIP3   OH265530   4.835   4.865   2.629 -0.0930  0.1210 -0.3584
14680TIP3    H165531   4.912   4.922   2.633 -0.1047  0.1663 -0.7342
14680TIP3    H265532   4.792   4.888   2.546  0.1067 -0.6960 -0.6981
14681TIP3   OH265533   3.344   0.086   2.642  0.1886  0.0401  0.6931
14681TIP3    H165534   3.376   0.059   2.728 -0.6382 -0.4596  0.8607
14681TIP3    H265535   3.249   0.080   2.650  0.1200 -0.5178 -0.4201
14682TIP3   OH265536   3.346   0.336  13.088  0.4516  0.1061 -0.0924
14682TIP3    H165537   3.422   0.366  13.138  1.4438 -2.0873 -0.1687
14682TIP3    H265538   3.271   0.370  13.137  1.4120  2.7201 -0.2698
14683TIP3   OH265539   5.044   0.747   0.617  0.4789  0.2728  0.0358
14683TIP3    H165540   5.043   0.814   0.548  0.3801  0.4967  0.2555
14683TIP3    H265541   5.077   0.793   0.694  0.2308  0.1120  0.2364
14684TIP3   OH265542   0.897   0.021   5.327  0.4230 -0.7848  0.8170
14684TIP3    H165543   0.862   0.071   5.253  1.2988 -0.3814  0.6553
14684TIP3    H265544   0.820  -0.011   5.373 -0.2881  2.2706  2.0013
14685TIP3   OH265545   6.537   3.137  13.541 -0.1277 -0.4008 -0.2720
14685TIP3    H165546   6.482   3.208  13.510 -0.8562  0.4975  2.8079
14685TIP3    H265547   6.477   3.064  13.558  0.0092 -0.3629  0.4213
14686TIP3   OH265548   0.987   6.179  10.353  0.1014 -0.7806  0.2301
14686TIP3    H165549   0.962   6.254  10.299 -0.0553 -0.4443  0.7571
14686TIP3    H265550   0.966   6.102  10.300 -0.4249 -0.4654 -0.0249
14687TIP3   OH265551   4.862   3.611   4.338  0.3650 -0.7471 -0.5798
14687TIP3    H165552   4.880   3.647   4.251  0.6571 -0.4489 -0.3970
14687TIP3    H265553   4.769   3.589   4.335  0.5756 -1.5768 -1.2618
14688TIP3   OH265554   3.490   6.534  16.436  0.0125 -0.0187  0.4760
14688TIP3    H165555   3.499   6.449  16.478  0.0915 -0.8969 -1.2361
14688TIP3    H265556   3.427   6.581  16.491  0.0123 -1.1396  1.4884
14689TIP3   OH265557   0.790   4.164  15.315 -0.0071 -0.2424  0.3517
14689TIP3    H165558   0.832   4.115  15.245 -0.5019  0.9279 -0.7963
14689TIP3    H265559   0.791   4.255  15.285 -2.3998 -0.0277  0.7420
14690TIP3   OH265560   6.662   0.036  11.907 -0.3499  0.5143 -0.9902
14690TIP3    H165561   6.586  -0.017  11.931 -1.2549  1.7581 -1.0572
14690TIP3    H265562   6.636   0.126  11.925  1.0145  0.9950 -1.2772
14691TIP3   OH265563   5.608   0.259  16.269  0.2257  0.3833  0.0718
14691TIP3    H165564   5.616   0.313  16.348  1.1776 -0.0020  0.2627
14691TIP3    H265565   5.599   0.321  16.197 -0.8367  0.7354  0.5026
14692TIP3   OH265566   3.836   2.547  14.578  0.3362  0.0065  1.0854
14692TIP3    H165567   3.870   2.619  14.630  0.8593 -0.2105  1.0521
14692TIP3    H265568   3.895   2.474  14.596  2.0958  0.5853 -1.7062
14693TIP3   OH265569   3.135   4.608  16.249 -0.1844  0.1132 -0.3154
14693TIP3    H165570   3.130   4.652  16.165 -0.6367  0.3670 -0.1580
14693TIP3    H265571   3.195   4.661  16.302  0.8144 -0.5329 -0.7602
14694TIP3   OH265572   3.688   6.077  16.456  0.7338  0.3095  0.1016
14694TIP3    H165573   3.769   6.088  16.507  0.4849 -0.7419  0.7650
14694TIP3    H265574   3.669   5.984  16.462 -0.2975  0.4724 -0.4215
14695TIP3   OH265575   1.201   5.846  12.895 -0.0517 -0.1356 -0.1236
14695TIP3    H165576   1.249   5.763  12.896  2.0489  0.9313 -1.8643
14695TIP3    H265577   1.135   5.835  12.826 -0.6484 -0.7505  0.5272
14696TIP3   OH265578   3.039   1.277   0.115 -0.1274  0.3240 -0.0152
14696TIP3    H165579   2.960   1.236   0.149  0.1772 -0.0744  0.2235
14696TIP3    H265580   3.072   1.215   0.050 -0.0461  0.5159 -0.1574
14697TIP3   OH265581   2.407   2.030   2.120 -0.6239  0.1985 -0.2649
14697TIP3    H165582   2.355   2.023   2.040  2.2433  0.3416 -2.2451
14697TIP3    H265583   2.368   1.964   2.178 -3.1432  0.4849 -1.4678
14698TIP3   OH265584   5.680   4.305   0.113 -0.1232 -0.2059 -0.1563
14698TIP3    H165585   5.695   4.400   0.110  0.2165 -0.2618 -0.2833
14698TIP3    H265586   5.586   4.296   0.128  0.0607  0.1643  1.3785
14699TIP3   OH265587   1.629   6.709  16.096 -0.1631 -0.1356  0.0359
14699TIP3    H165588   1.697   6.702  16.164  0.0035  0.8450 -0.0106
14699TIP3    H265589   1.575   6.632  16.109  0.2210 -0.2778  0.9073
14700TIP3   OH265590   0.857   6.558  12.930  0.2036 -0.0061  0.0910
14700TIP3    H165591   0.844   6.632  12.989  3.0760  1.5025 -0.9352
14700TIP3    H265592   0.794   6.572  12.859  0.5720  1.4405  0.0054
14701TIP3   OH265593   3.933   6.043   0.656  0.0746  0.0651  0.1610
14701TIP3    H165594   4.016   6.086   0.635  0.3920 -0.4503  0.3576
14701TIP3    H265595   3.870   6.115   0.661  0.8043  0.6354  1.5672
14702TIP3   OH265596   0.952   3.544  15.740 -0.2391  0.3105 -0.1992
14702TIP3    H165597   0.974   3.485  15.668  0.2224 -3.3292  2.6551
14702TIP3    H265598   1.037   3.571  15.775 -0.4202  0.0525  0.4474
14703TIP3   OH265599   5.524   1.621   5.721  0.1454 -0.3325 -0.2632
14703TIP3    H165600   5.430   1.636   5.733 -0.3410 -1.9884 -1.7496
14703TIP3    H265601   5.555   1.700   5.676 -0.4206  0.4142  0.6121
14704TIP3   OH265602   6.341   6.289   0.010 -0.4247 -0.0818  0.0500
14704TIP3    H165603   6.277   6.351  -0.027  0.8287 -0.2744 -2.7128
14704TIP3    H265604   6.400   6.344   0.062 -0.2491  0.8340 -1.0684
14705TIP3   OH265605   3.683   1.592  14.065  0.1030 -1.0018 -0.0844
14705TIP3    H165606   3.641   1.558  13.986  0.2731  1.1033 -1.1490
14705TIP3    H265607   3.756   1.645  14.032  1.3993 -1.6432  1.5913
14706TIP3   OH265608   2.812   6.816  12.599 -0.0112 -0.1037 -0.0223
14706TIP3    H165609   2.805   6.833  12.693  0.4860 -0.6266  0.1158
14706TIP3    H265610   2.903   6.838  12.577  0.8842 -2.9465  0.2878
14707TIP3   OH265611   1.910   4.823  14.742 -0.1287  0.4021  0.0234
14707TIP3    H165612   1.984   4.882  14.754 -0.5510  1.0772 -0.5861
14707TIP3    H265613   1.849   4.846  14.812 -0.2475  0.6204 -0.1505
14708TIP3   OH265614   5.081   1.873  10.588 -0.1223 -0.1524  0.3186
14708TIP3    H165615   5.008   1.850  10.530 -0.3289 -0.0814  0.5468
14708TIP3    H265616   5.158   1.872  10.531 -0.3209 -0.0853  0.0415
14709TIP3   OH265617   1.684   5.602  11.425 -0.1229  0.3196 -0.1701
14709TIP3    H165618   1.738   5.678  11.449 -1.0551  1.2310 -0.8802
14709TIP3    H265619   1.684   5.547  11.504  1.6858  0.3705 -0.0952
14710TIP3   OH265620   0.288   3.957   4.428  0.0393 -0.2267 -0.4333
14710TIP3    H165621   0.219   3.953   4.495 -1.9751  0.5093 -2.3571
14710TIP3    H265622   0.354   4.014   4.466 -1.0014  0.0979  0.9758
14711TIP3   OH265623   2.515   6.549  10.622 -0.1808  0.0106 -0.0020
14711TIP3    H165624   2.425   6.537  10.592 -0.2942 -0.5012  0.5234
14711TIP3    H265625   2.506   6.582  10.712  0.1553  0.1769 -0.0272
14712TIP3   OH265626   0.565   6.012   4.912 -0.2132 -0.3617  0.5143
14712TIP3    H165627   0.598   6.080   4.970 -0.2234  0.1916 -0.1130
14712TIP3    H265628   0.474   6.038   4.894  0.5043  0.8894 -1.7339
14713TIP3   OH265629   0.164   0.081   3.740  0.0546  0.3881 -0.7626
14713TIP3    H165630   0.103   0.061   3.810  0.7187  3.7585  0.9822
14713TIP3    H265631   0.250   0.059   3.777  0.2475 -0.3368 -1.5994
14714TIP3   OH265632   2.820   0.706  11.794  0.1613 -0.1515 -0.2860
14714TIP3    H165633   2.760   0.670  11.859  0.7276  2.3536  1.8223
14714TIP3    H265634   2.892   0.742  11.846 -0.1870  3.5731 -2.0395
14715TIP3   OH265635   6.618   2.701   6.044  0.4178 -0.2196 -0.3774
14715TIP3    H165636   6.673   2.656   5.979  0.7673  0.6052 -0.6681
14715TIP3    H265637   6.531   2.701   6.005  0.4298 -0.5780 -0.4079
14716TIP3   OH265638   6.627   0.229   2.645  0.2567  0.3536 -0.1696
14716TIP3    H165639   6.532   0.214   2.639  0.0786  1.0414  0.7175
14716TIP3    H265640   6.653   0.249   2.555 -0.4625  0.2917 -0.4049
14717TIP3   OH265641   4.971   3.686  16.664  0.4274  0.1196 -0.0594
14717TIP3    H165642   4.945   3.653  16.750  0.6913 -0.6575 -0.2681
14717TIP3    H265643   5.053   3.733  16.680  1.4132 -1.4959 -0.1321
14718TIP3   OH265644   1.901   2.266  16.807  0.3576  0.2743  0.0285
14718TIP3    H165645   1.912   2.304  16.895  1.7503  2.1221 -0.8781
14718TIP3    H265646   1.867   2.339  16.754  2.1423  0.0332 -1.5591
14719TIP3   OH265647   2.403   2.969  16.854 -0.1296  0.1594  0.5347
14719TIP3    H165648   2.472   2.925  16.903  1.6514  1.2645 -0.8341
14719TIP3    H265649   2.443   2.989  16.769 -2.7928 -0.9465 -1.1101
14720TIP3   OH265650   3.019   6.269   3.104  0.2170 -0.4373 -0.0522
14720TIP3    H165651   2.941   6.249   3.053 -0.0256 -0.4533  0.3195
14720TIP3    H265652   3.092   6.241   3.049 -0.0872 -1.8090  0.2117
14721TIP3   OH265653   6.112   1.216  13.029  0.2166 -0.4516  0.1343
14721TIP3    H165654   6.193   1.230  13.079  0.2111 -0.6736  0.2067
14721TIP3    H265655   6.137   1.157  12.958  0.4268  0.5726 -0.6684
14722TIP3   OH265656   0.727   4.705  13.133  0.1835 -0.4974  0.3197
14722TIP3    H165657   0.635   4.680  13.132 -0.4383  1.4822  1.3745
14722TIP3    H265658   0.755   4.691  13.224  0.5421  0.1042  0.3082
14723TIP3   OH265659   3.724   4.919   5.739  0.0157 -0.4084 -0.0017
14723TIP3    H165660   3.685   4.866   5.669 -0.6646 -1.0432  0.8441
14723TIP3    H265661   3.652   4.934   5.800  0.4044  0.8319  0.1751
14724TIP3   OH265662   6.453   3.174   2.451  0.0804 -0.3292 -0.3587
14724TIP3    H165663   6.398   3.125   2.391 -1.4333  1.0759 -0.1894
14724TIP3    H265664   6.494   3.242   2.397  0.5936 -0.5229 -0.2237
14725TIP3   OH265665   5.886   3.178  16.746 -0.0220  0.2080  0.4623
14725TIP3    H165666   5.932   3.251  16.705 -1.0510  0.6788  0.1096
14725TIP3    H265667   5.939   3.101  16.725  0.0484  0.5970 -0.8304
14726TIP3   OH265668   1.586   1.025  13.207  0.3495 -0.4291 -0.2151
14726TIP3    H165669   1.508   1.078  13.226  1.5330  0.8123  1.5353
14726TIP3    H265670   1.576   0.948  13.264  0.3669 -0.2928 -0.0253
14727TIP3   OH265671   6.760   6.088   2.696  0.0410 -0.8356  0.2089
14727TIP3    H165672   6.709   6.055   2.769  1.2665 -0.2876  1.3463
14727TIP3    H265673   6.759   6.183   2.705 -0.9536 -0.6514 -1.3243
14728TIP3   OH265674   0.132   0.923   5.188  0.3214 -0.2484 -0.1576
14728TIP3    H165675   0.225   0.936   5.204  0.1480 -0.6124  1.3492
14728TIP3    H265676   0.101   0.875   5.266 -1.3048  0.7151 -0.1638
14729TIP3   OH265677   0.679   5.158   0.484  0.0030 -0.2514  1.0202
14729TIP3    H165678   0.653   5.142   0.393 -0.2485  1.0944  0.8452
14729TIP3    H265679   0.610   5.117   0.536 -1.1547  1.0534  0.5744
14730TIP3   OH265680   2.006   5.177   2.229  0.0854  0.4064  0.1087
14730TIP3    H165681   1.991   5.090   2.192 -0.7299  0.8358 -0.6070
14730TIP3    H265682   2.008   5.163   2.323 -0.5397 -0.3242  0.0217
14731TIP3   OH265683   0.083   1.760  16.582  0.0004  0.0918  0.1483
14731TIP3    H165684   0.001   1.796  16.548  0.1595  0.9853  0.6577
14731TIP3    H265685   0.106   1.819  16.653  0.5646 -0.7458  0.6676
14732TIP3   OH265686   2.985   0.328  13.813  0.8549 -0.2621  0.4923
14732TIP3    H165687   3.053   0.375  13.862  1.4987 -2.6857  2.0724
14732TIP3    H265688   2.991   0.238  13.844 -1.6511 -1.0094 -0.9545
14733TIP3   OH265689   0.085   4.936   3.066 -0.1584 -0.1663  0.1160
14733TIP3    H165690   0.117   4.849   3.088  0.2934 -0.0510 -0.0615
14733TIP3    H265691  -0.001   4.942   3.107 -0.4404 -0.9080 -0.3734
14734TIP3   OH265692   4.389   5.546  14.119  0.0368 -0.2599  0.1892
14734TIP3    H165693   4.344   5.629  14.106  0.8275  0.0862 -0.4567
14734TIP3    H265694   4.432   5.529  14.035  0.9677 -0.6471  0.7299
14735TIP3   OH265695   5.044   2.890   1.000 -0.3782 -0.3575 -0.7572
14735TIP3    H165696   5.017   2.799   0.997 -1.3058 -0.2186  1.2385
14735TIP3    H265697   4.968   2.936   1.035  0.8797  0.7754  0.6398
14736TIP3   OH265698   0.370   4.887   4.174  0.1918 -0.2467 -0.6175
14736TIP3    H165699   0.328   4.893   4.260 -0.1467 -1.7200 -0.6584
14736TIP3    H265700   0.461   4.914   4.190 -0.4224  1.8285 -0.3032
14737TIP3   OH265701   5.407   1.825   0.495 -0.1587 -0.1727 -0.3181
14737TIP3    H165702   5.401   1.751   0.434 -2.0945  0.1153 -0.5553
14737TIP3    H265703   5.317   1.855   0.505  0.1523  0.1542  2.2834
14738TIP3   OH265704   3.375   5.077  13.672  0.1250  0.5465 -0.0647
14738TIP3    H165705   3.295   5.064  13.723 -1.4550  0.7967 -2.3273
14738TIP3    H265706   3.406   4.989  13.653 -0.2222  0.4293 -0.0930
14739TIP3   OH265707   2.473   1.891  15.776  0.0511 -0.4016 -0.2947
14739TIP3    H165708   2.540   1.923  15.717  0.3864 -0.6352 -0.0456
14739TIP3    H265709   2.511   1.900  15.863 -0.4986  0.0961 -0.0941
14740TIP3   OH265710   5.781   1.710  16.330  0.1625  0.1277  0.4694
14740TIP3    H165711   5.706   1.653  16.346  1.6905 -1.5282  2.3412
14740TIP3    H265712   5.757   1.793  16.372 -0.8117 -0.2267  0.6463
14741TIP3   OH265713   1.510   3.503  12.911 -0.1697 -0.0860 -0.1502
14741TIP3    H165714   1.429   3.554  12.910 -0.1724 -0.0106  1.4782
14741TIP3    H265715   1.486   3.420  12.952  0.8259  0.4302  1.5654
14742TIP3   OH265716   6.514   1.383  11.709  0.1414  1.0143  0.0195
14742TIP3    H165717   6.519   1.320  11.637 -1.9956 -0.5987  1.1608
14742TIP3    H265718   6.483   1.464  11.668 -0.1254  0.4092 -1.0106
14743TIP3   OH265719   3.062   6.493   2.902  0.4801 -0.4983 -0.5992
14743TIP3    H165720   3.054   6.398   2.909  0.1284 -0.6405 -2.4445
14743TIP3    H265721   2.985   6.526   2.949 -0.3908 -1.2179 -1.4533
14744TIP3   OH265722   3.482   6.227  11.519  0.5176 -0.1511 -0.1218
14744TIP3    H165723   3.494   6.149  11.465  0.1246  1.0856 -2.0943
14744TIP3    H265724   3.387   6.233  11.531  0.6599 -1.3233  2.2290
14745TIP3   OH265725   1.085   3.428   2.131 -0.8371  0.3024  0.0796
14745TIP3    H165726   1.110   3.457   2.218 -2.9255  1.7519  0.2879
14745TIP3    H265727   1.106   3.335   2.129  2.4445  0.9225  0.8385
14746TIP3   OH265728   4.247   1.856   4.604 -0.1642 -0.0868  0.2081
14746TIP3    H165729   4.287   1.872   4.689 -1.5194  4.0517  0.2909
14746TIP3    H265730   4.318   1.871   4.541  0.0590  0.2000  0.5227
14747TIP3   OH265731   0.633   1.614   1.558 -0.6311  0.2535 -0.7555
14747TIP3    H165732   0.623   1.667   1.637  0.1076 -0.5522 -0.0982
14747TIP3    H265733   0.626   1.676   1.486 -3.0116  0.7927 -0.1454
14748TIP3   OH265734   0.230   5.364  10.855 -0.3944  0.1358 -0.0432
14748TIP3    H165735   0.269   5.373  10.768  0.5429 -0.3459  0.3170
14748TIP3    H265736   0.164   5.295  10.845  0.6492 -0.8921 -0.0797
14749TIP3   OH265737   5.748   1.134  15.703 -0.4555 -0.0600  0.4784
14749TIP3    H165738   5.687   1.184  15.648  0.2523 -0.0650 -0.3281
14749TIP3    H265739   5.784   1.067  15.644 -1.0322 -1.2391  1.4149
14750TIP3   OH265740   3.086   3.763  16.422  0.2828  0.1737 -0.3004
14750TIP3    H165741   2.994   3.782  16.440 -0.0905 -0.4152 -1.4471
14750TIP3    H265742   3.099   3.791  16.331  1.4458  0.9281  0.0709
14751TIP3   OH265743   2.559   1.856   3.942  0.5181 -0.0304  0.1338
14751TIP3    H165744   2.650   1.878   3.958  0.9090  0.1589 -2.0059
14751TIP3    H265745   2.513   1.940   3.942  0.9738  0.2802 -2.0917
14752TIP3   OH265746   1.697   5.434  13.713 -0.4522  0.2802  0.3692
14752TIP3    H165747   1.724   5.513  13.667 -2.1811  0.2994 -0.7158
14752TIP3    H265748   1.733   5.362  13.661 -0.4296  0.3272  0.3194
14753TIP3   OH265749   2.441   0.991   2.551 -0.1864  0.0977 -0.0666
14753TIP3    H165750   2.464   1.068   2.500 -0.9916  1.0153  0.9141
14753TIP3    H265751   2.408   1.026   2.634 -0.8954 -1.2864  0.2621
14754TIP3   OH265752   6.280   2.991  14.343  0.4178 -0.3149  0.3242
14754TIP3    H165753   6.249   3.081  14.349 -2.3139 -1.0558 -1.0264
14754TIP3    H265754   6.259   2.952  14.427 -1.7402 -0.5615 -0.2680
14755TIP3   OH265755   5.183   4.326   4.846 -0.0535  0.0080 -0.7675
14755TIP3    H165756   5.092   4.304   4.867  0.6737 -2.0872  0.5880
14755TIP3    H265757   5.197   4.412   4.884 -2.0250  1.3879 -2.9223
14756TIP3   OH265758   2.368   2.176   1.849 -0.4919  0.0513 -0.5162
14756TIP3    H165759   2.280   2.145   1.869 -0.0449 -0.1318  1.3024
14756TIP3    H265760   2.360   2.217   1.762 -1.9689 -1.4886 -1.1502
14757TIP3   OH265761   4.968   2.313   3.603 -0.3101 -0.6507  1.0610
14757TIP3    H165762   4.901   2.343   3.665 -0.3111 -0.8925  1.1768
14757TIP3    H265763   5.050   2.348   3.639 -0.3658 -0.3997  0.9482
14758TIP3   OH265764   1.093   0.716  11.685  0.2938 -0.2674  0.2224
14758TIP3    H165765   1.120   0.767  11.762  0.3050  0.1103 -0.0266
14758TIP3    H265766   1.094   0.625  11.715  1.8689 -0.2808  0.2330
14759TIP3   OH265767   2.629   6.783   0.359 -0.3010 -0.3189 -0.6071
14759TIP3    H165768   2.539   6.764   0.334 -0.2875 -0.5723 -0.4685
14759TIP3    H265769   2.624   6.864   0.410 -0.4542 -0.3517 -0.5708
14760TIP3   OH265770   3.298   6.694  12.034  0.2125 -0.6917  0.1486
14760TIP3    H165771   3.331   6.633  11.968  2.1254  0.3157  0.1100
14760TIP3    H265772   3.252   6.762  11.985  1.2253 -0.1954 -0.1393
14761TIP3   OH265773   2.987   5.278   4.479  0.2185 -0.0840 -1.0750
14761TIP3    H165774   2.917   5.236   4.429 -1.0569  2.5027 -1.5914
14761TIP3    H265775   3.000   5.363   4.437  0.7070  1.2591  1.5803
14762TIP3   OH265776   0.186   4.499   1.125 -0.4368 -0.1332 -0.0362
14762TIP3    H165777   0.194   4.432   1.193 -0.7515  1.1396  1.3046
14762TIP3    H265778   0.171   4.450   1.044 -1.5089 -1.6426  1.0393
14763TIP3   OH265779   0.260   3.833   5.083  0.1679  0.0132  0.0484
14763TIP3    H165780   0.257   3.833   5.179 -0.2202 -0.9151  0.0426
14763TIP3    H265781   0.226   3.748   5.058 -1.7037  1.0085 -0.9869
14764TIP3   OH265782   4.029   4.928   4.265  0.0883  0.6285  0.1738
14764TIP3    H165783   3.939   4.914   4.294 -0.3897  0.5946 -1.2404
14764TIP3    H265784   4.082   4.872   4.321 -0.9374 -0.5498  0.0022
14765TIP3   OH265785   5.470   1.318   1.833  0.3972 -0.5536  0.1438
14765TIP3    H165786   5.544   1.364   1.872  0.7495 -0.1957 -0.9149
14765TIP3    H265787   5.404   1.387   1.818  0.5834 -0.5286 -0.6238
14766TIP3   OH265788   0.025   2.653  12.661  1.0204 -0.0159 -0.4124
14766TIP3    H165789   0.081   2.731  12.658 -1.3978  1.9339  0.8433
14766TIP3    H265790   0.031   2.624  12.752  0.4235 -0.1168 -0.4048
14767TIP3   OH265791   0.407   1.408   0.030  0.7993  0.2545  0.2185
14767TIP3    H165792   0.439   1.493   0.062  1.0988  0.2624 -0.0963
14767TIP3    H265793   0.474   1.345   0.056  2.0707  0.5382 -2.0843
14768TIP3   OH265794   5.554   1.088  12.379  0.3029 -0.1243 -0.1546
14768TIP3    H165795   5.533   1.176  12.413  1.1107  0.5692 -1.3752
14768TIP3    H265796   5.604   1.047  12.449  0.0603  0.4527  0.3716
14769TIP3   OH265797   2.951   1.204  13.753 -0.0742  0.7940  0.1371
14769TIP3    H165798   3.029   1.184  13.806 -0.0802  0.1335 -0.0943
14769TIP3    H265799   2.981   1.197  13.663 -0.7875 -1.2511 -0.0027
14770TIP3   OH265800   6.359   1.133   1.821  0.1241 -0.3902  0.2408
14770TIP3    H165801   6.355   1.046   1.780 -0.5137  0.2037 -0.9940
14770TIP3    H265802   6.398   1.189   1.754  1.4350  0.1068  1.3680
14771TIP3   OH265803   4.873   4.703  16.864  0.4831  0.3607  0.3810
14771TIP3    H165804   4.828   4.621  16.839  2.1379 -0.3888 -0.2766
14771TIP3    H265805   4.809   4.749  16.918 -1.5476 -0.1009 -1.4452
14772TIP3   OH265806   3.872   3.384   5.786 -0.0642 -0.1862  0.0623
14772TIP3    H165807   3.943   3.321   5.794 -0.5611 -1.0291 -1.6454
14772TIP3    H265808   3.915   3.469   5.784  0.9651 -0.7001 -1.3562
14773TIP3   OH265809   5.850   0.127  15.138  0.1787  0.2295  0.1286
14773TIP3    H165810   5.891   0.177  15.209  0.6401 -0.8813  0.6534
14773TIP3    H265811   5.818   0.047  15.179 -0.7495  0.1733 -0.6681
14774TIP3   OH265812   3.642   0.704   0.221 -0.2367 -0.1964 -0.5748
14774TIP3    H165813   3.582   0.737   0.155 -1.7999  0.7622  1.2096
14774TIP3    H265814   3.591   0.639   0.269 -0.2017  1.1821  1.4687
14775TIP3   OH265815   6.457   3.043   4.358 -0.3035  0.3834 -0.0522
14775TIP3    H165816   6.505   3.042   4.275 -0.0676  1.8494  0.0288
14775TIP3    H265817   6.369   3.072   4.334 -0.8934 -1.3053 -0.0578
14776TIP3   OH265818   5.989   1.940   1.632  0.0723 -0.1628  0.3874
14776TIP3    H165819   5.950   1.879   1.569 -1.7375  0.7361  0.5496
14776TIP3    H265820   5.995   1.890   1.713 -0.5486 -0.4219  0.2852
14777TIP3   OH265821   5.058   5.624   1.001 -0.0458 -0.4416 -0.1702
14777TIP3    H165822   4.974   5.645   1.042  0.2484 -0.2531  0.3503
14777TIP3    H265823   5.035   5.591   0.915 -0.5974  1.0759 -0.6467
14778TIP3   OH265824   6.484   6.033  13.520  0.4285 -0.2085 -0.3262
14778TIP3    H165825   6.416   6.066  13.461  0.8714  0.9007 -0.2350
14778TIP3    H265826   6.519   5.956  13.474 -0.3347 -0.3172 -0.7435
14779TIP3   OH265827   0.946   4.457   5.396  0.7337  0.1837  0.0842
14779TIP3    H165828   0.862   4.424   5.428  0.4116 -0.1954 -1.0809
14779TIP3    H265829   1.009   4.432   5.463  0.1441 -0.8830  0.2711
14780TIP3   OH265830   0.789   4.199   5.787 -0.1663 -0.0395  0.1355
14780TIP3    H165831   0.828   4.135   5.846  0.2639  0.3341  0.2582
14780TIP3    H265832   0.858   4.263   5.771 -0.7089  0.6076  0.3247
14781TIP3   OH265833   2.690   5.012   0.973  0.4849  0.2555  0.0290
14781TIP3    H165834   2.721   5.036   0.885  3.1008 -0.3889  0.6996
14781TIP3    H265835   2.672   4.918   0.968 -1.4377  0.6013 -0.3230
14782TIP3   OH265836   5.368   6.246   5.308  0.4753  0.0501  0.2181
14782TIP3    H165837   5.288   6.281   5.346 -0.0148  0.5787 -1.2455
14782TIP3    H265838   5.375   6.157   5.344  0.2173  0.6229  1.7498
14783TIP3   OH265839   5.205   4.087  11.815  0.1668  0.9829  0.1566
14783TIP3    H165840   5.214   4.018  11.748 -1.8697  1.0396 -0.2316
14783TIP3    H265841   5.250   4.051  11.892 -0.9125 -0.8504 -0.0065
14784TIP3   OH265842   1.231   1.581  17.101  0.2418  0.1158  0.5941
14784TIP3    H165843   1.244   1.600  17.193  0.5430 -0.8614  0.7703
14784TIP3    H265844   1.317   1.554  17.069 -0.6027 -4.1129  1.2020
14785TIP3   OH265845   6.021   1.387  12.598 -0.2628  0.1329  0.0365
14785TIP3    H165846   5.977   1.370  12.681  1.4254  0.6483  1.0823
14785TIP3    H265847   6.000   1.312  12.543 -0.1465 -0.9736  1.4670
14786TIP3   OH265848   1.245   5.026  13.599  0.3968 -0.1696 -0.1953
14786TIP3    H165849   1.237   5.095  13.534 -0.6271  0.6622  0.7581
14786TIP3    H265850   1.312   5.058  13.660 -0.8968  0.5887  0.8962
14787TIP3   OH265851   5.454   3.453   4.669 -0.1764  0.3380  0.4712
14787TIP3    H165852   5.406   3.455   4.752  0.5865  0.7569  0.9240
14787TIP3    H265853   5.544   3.475   4.694 -0.3394  2.7063 -0.7631
14788TIP3   OH265854   3.235   1.402  15.702  0.4766 -0.3293  0.0626
14788TIP3    H165855   3.298   1.331  15.686  1.2432  0.2553  0.4640
14788TIP3    H265856   3.160   1.379  15.647  0.9909 -1.0933 -0.3427
14789TIP3   OH265857   6.327   4.011  13.408 -0.2513 -0.3355 -0.3161
14789TIP3    H165858   6.412   4.056  13.404 -0.2550 -0.1063  1.3104
14789TIP3    H265859   6.324   3.974  13.497 -1.7610 -0.5090 -0.4192
14790TIP3   OH265860   1.660   0.930  10.168  0.4750 -0.1043 -0.0576
14790TIP3    H165861   1.627   0.910  10.255 -1.1052 -1.5827 -0.9552
14790TIP3    H265862   1.754   0.912  10.173  0.5159  0.4235  1.4808
14791TIP3   OH265863   0.786   4.879   5.320 -0.1896 -0.4940 -0.1899
14791TIP3    H165864   0.881   4.862   5.325  0.2898  1.6023 -1.1908
14791TIP3    H265865   0.766   4.927   5.400 -0.7583 -2.1565  0.7261
14792TIP3   OH265866   1.773   0.080  13.931 -0.5128  0.2564 -0.6969
14792TIP3    H165867   1.715   0.029  13.986  0.5676  0.6579  0.8668
14792TIP3    H265868   1.793   0.022  13.857 -0.7028 -0.8983  0.1371
14793TIP3   OH265869   2.751   4.474  14.815 -0.1032 -0.4117 -0.0407
14793TIP3    H165870   2.659   4.471  14.788 -0.5378  0.1659  1.2981
14793TIP3    H265871   2.780   4.562  14.791 -0.0683 -0.4033  0.0299
14794TIP3   OH265872   3.735   1.493   2.313  0.3918 -0.2534  0.4300
14794TIP3    H165873   3.793   1.560   2.276 -0.4783  1.4330  1.9718
14794TIP3    H265874   3.662   1.542   2.350 -1.8716 -2.2964 -1.0658
14795TIP3   OH265875   6.060   2.997   3.453  0.1431 -0.5277  0.7693
14795TIP3    H165876   5.999   3.066   3.481  0.8363 -0.4551  2.1920
14795TIP3    H265877   6.080   2.949   3.533  3.5809  0.7517  0.8084
14796TIP3   OH265878   3.768   6.379   5.969  0.6937 -0.3330  0.5273
14796TIP3    H165879   3.800   6.424   6.048  2.0442 -1.0637  0.4199
14796TIP3    H265880   3.814   6.421   5.897  0.1597 -0.2990  0.1986
14797TIP3   OH265881   5.136   1.545  14.913  0.1378 -0.3515 -0.1252
14797TIP3    H165882   5.085   1.467  14.931  0.7015 -0.8505 -0.6484
14797TIP3    H265883   5.080   1.598  14.856  0.2987 -1.0298 -0.9397
14798TIP3   OH265884   0.337   1.200  14.244 -0.4868 -0.4837  0.2412
14798TIP3    H165885   0.416   1.194  14.191 -1.4387  0.7142 -1.4074
14798TIP3    H265886   0.283   1.266  14.200 -1.8852 -0.3597  2.0071
14799TIP3   OH265887   6.757   4.612  12.385  0.0103 -0.2145 -0.2473
14799TIP3    H165888   6.809   4.680  12.426  0.2220 -0.5996  0.1336
14799TIP3    H265889   6.721   4.561  12.458 -2.3425  1.0660 -0.4151
14800TIP3   OH265890   0.949   6.187   2.860  0.5379 -0.3814 -0.1653
14800TIP3    H165891   0.989   6.261   2.906 -0.3050  0.3662 -0.5922
14800TIP3    H265892   0.921   6.225   2.776 -0.2927 -1.0880 -0.2133
14801TIP3   OH265893   4.060   4.742  13.223  0.2882  0.0300  0.5213
14801TIP3    H165894   4.005   4.784  13.289  0.5847  0.8103  0.2761
14801TIP3    H265895   4.144   4.788  13.229  0.6421 -0.5801  0.3004
14802TIP3   OH265896   4.378   6.644   1.263  0.3583  0.2431 -0.1249
14802TIP3    H165897   4.413   6.719   1.214 -0.1813  0.2203 -0.5682
14802TIP3    H265898   4.393   6.666   1.355 -1.7812  1.9881 -0.0804
14803TIP3   OH265899   6.783   1.862  11.243 -0.5767 -0.3102  0.0588
14803TIP3    H165900   6.797   1.954  11.266  1.2941 -0.4060 -0.5664
14803TIP3    H265901   6.726   1.865  11.166 -0.3622  0.3199 -0.0812
14804TIP3   OH265902   4.379   6.205  12.178 -0.0203  0.1036 -0.2929
14804TIP3    H165903   4.394   6.267  12.249  0.0540  0.6505 -0.7731
14804TIP3    H265904   4.401   6.120  12.214  0.5778  0.4496  0.1604
14805TIP3   OH265905   1.022   1.874   0.107  0.1286 -0.5804 -0.3474
14805TIP3    H165906   0.970   1.896   0.030 -0.9636 -2.7315 -0.3044
14805TIP3    H265907   1.014   1.951   0.164 -0.9154  0.1403 -1.4159
14806TIP3   OH265908   2.729   3.648   3.273  0.2413 -0.5060  0.0285
14806TIP3    H165909   2.793   3.719   3.270  0.5461 -0.5706  2.4000
14806TIP3    H265910   2.648   3.690   3.301  0.7290 -1.1579  2.7130
14807TIP3   OH265911   2.227   4.261  14.446  0.3623  0.5685  0.1510
14807TIP3    H165912   2.242   4.239  14.538 -1.9825 -1.4507  0.1767
14807TIP3    H265913   2.141   4.304  14.445  1.1287  2.1673 -0.9423
14808TIP3   OH265914   5.892   0.477  10.994 -0.3788 -0.1494 -0.0290
14808TIP3    H165915   5.932   0.557  11.027 -0.8839  0.5087 -0.9716
14808TIP3    H265916   5.798   0.495  10.994 -0.5664 -1.0242  0.4444
14809TIP3   OH265917   6.478   1.688  16.977 -0.1905  0.1903 -0.0064
14809TIP3    H165918   6.391   1.657  17.001 -0.1281 -0.4492 -0.5753
14809TIP3    H265919   6.486   1.773  17.020 -1.5051  0.7441 -0.7967
14810TIP3   OH265920   3.450   6.676  13.751  0.1672 -0.0546 -0.6294
14810TIP3    H165921   3.458   6.770  13.739 -0.9718  0.3463  1.3117
14810TIP3    H265922   3.401   6.666  13.832  1.8204 -2.3421  0.2106
14811TIP3   OH265923   1.913   0.537   1.966  0.0675  0.2002  0.1772
14811TIP3    H165924   1.835   0.585   1.938  1.9458  2.7752 -1.0964
14811TIP3    H265925   1.933   0.480   1.891 -0.5448 -0.4788  0.5127
14812TIP3   OH265926   0.619   6.557   5.073 -0.1898 -0.1741  1.0857
14812TIP3    H165927   0.594   6.530   5.162  0.1170 -0.6898  1.0236
14812TIP3    H265928   0.613   6.652   5.074 -1.0555 -0.2144  1.3981
14813TIP3   OH265929   6.771   0.965  15.522  0.2234 -0.6338  0.5470
14813TIP3    H165930   6.774   1.027  15.450 -0.6606 -1.0230  0.1584
14813TIP3    H265931   6.807   1.013  15.597 -0.7967  0.4888  0.3581
14814TIP3   OH265932   3.753   4.833   0.386  0.3762 -0.2372  0.4414
14814TIP3    H165933   3.709   4.755   0.420 -2.5193 -0.3719 -2.9745
14814TIP3    H265934   3.743   4.899   0.455 -0.6262 -1.7817  1.8484
14815TIP3   OH265935   4.168   6.717  13.924 -0.3411 -0.0560  0.2033
14815TIP3    H165936   4.217   6.731  14.006  0.2834 -1.8138  0.1567
14815TIP3    H265937   4.222   6.657  13.873 -3.2526 -3.5967  0.8887
14816TIP3   OH265938   0.285   2.712  11.592 -0.3587 -0.4770  0.1515
14816TIP3    H165939   0.212   2.678  11.540 -0.2676  0.9421 -0.9594
14816TIP3    H265940   0.295   2.802  11.563 -0.9456  0.7487  3.3660
14817TIP3   OH265941   4.558   3.997   4.315 -0.2962 -0.0671 -0.3083
14817TIP3    H165942   4.497   3.975   4.386 -2.4679  5.2212 -0.0977
14817TIP3    H265943   4.510   3.974   4.235  0.6896 -2.7147 -0.2360
14818TIP3   OH265944   3.005   6.205  14.960  0.1619  0.3983  0.1073
14818TIP3    H165945   2.934   6.144  14.981 -0.0827  1.0515  1.2522
14818TIP3    H265946   3.085   6.158  14.985  0.2058 -0.5346 -1.6461
14819TIP3   OH265947   6.589   5.486   3.932  0.3325  0.1297 -0.0503
14819TIP3    H165948   6.586   5.398   3.971  0.7307  0.6627  1.2577
14819TIP3    H265949   6.524   5.536   3.982  2.2349  1.3444  1.3341
14820TIP3   OH265950   4.666   5.858  15.869  0.8626 -0.2188  0.2014
14820TIP3    H165951   4.734   5.791  15.860  1.0273 -0.1973  1.2442
14820TIP3    H265952   4.607   5.825  15.936  0.8094  0.5587  0.5506
14821TIP3   OH265953   1.749   1.704  15.572 -0.0871  0.5302  0.5829
14821TIP3    H165954   1.723   1.612  15.582 -0.7149  0.7622  1.2162
14821TIP3    H265955   1.709   1.748  15.647 -1.4048  1.6568 -0.7189
14822TIP3   OH265956   5.653   1.503  12.589 -0.6323  0.4876  0.0315
14822TIP3    H165957   5.662   1.529  12.498 -1.6751  0.5130 -0.0829
14822TIP3    H265958   5.571   1.454  12.592  0.5051 -1.4825  0.5409
14823TIP3   OH265959   6.518   1.349  15.976  0.1050  0.3411 -0.2362
14823TIP3    H165960   6.596   1.312  16.017 -0.3834 -1.0414 -0.5027
14823TIP3    H265961   6.521   1.442  15.999  1.3498  0.1495  0.5009
14824TIP3   OH265962   5.475   1.051  16.961 -0.4105 -0.1572  0.1839
14824TIP3    H165963   5.453   1.142  16.983 -4.1035 -0.5486 -1.0799
14824TIP3    H265964   5.517   1.056  16.875  1.7025  0.4423  1.1990
14825TIP3   OH265965   4.108   1.124  15.737 -0.1615 -0.0556  0.3549
14825TIP3    H165966   4.201   1.147  15.739 -0.1045 -0.1251  3.3823
14825TIP3    H265967   4.106   1.030  15.721  0.2626 -0.0081  0.0030
14826TIP3   OH265968   3.081   5.814  11.323 -0.8050  0.2797  0.6616
14826TIP3    H165969   3.134   5.738  11.297  1.2312  1.8136  0.0935
14826TIP3    H265970   2.997   5.801  11.279 -0.8031 -2.0138  1.2135
14827TIP3   OH265971   3.634   1.411   2.610 -0.5183  0.1676 -0.2344
14827TIP3    H165972   3.656   1.337   2.667  2.4469  0.3478 -0.9574
14827TIP3    H265973   3.571   1.375   2.547 -0.7067 -1.1516  0.6574
14828TIP3   OH265974   5.738   4.769  14.746  0.6697 -0.0217 -0.4157
14828TIP3    H165975   5.683   4.816  14.809  1.0384 -0.3662  0.1670
14828TIP3    H265976   5.822   4.761  14.790  0.2405 -2.4799  0.1072
14829TIP3   OH265977   4.184   6.749  16.269 -0.0129  0.0433  0.4254
14829TIP3    H165978   4.162   6.808  16.197  3.6103  1.1661  0.0738
14829TIP3    H265979   4.171   6.801  16.348 -3.8234 -1.1388  0.8341
14830TIP3   OH265980   3.802   1.467   4.085  0.3411  0.4315 -0.1738
14830TIP3    H165981   3.738   1.405   4.120  2.3995 -1.8514 -0.1617
14830TIP3    H265982   3.765   1.496   4.002 -1.2003  0.0822  0.3564
14831TIP3   OH265983   1.844   5.050  15.677 -0.3036 -0.3280  0.0473
14831TIP3    H165984   1.879   5.080  15.593  0.4937 -3.0381 -0.7059
14831TIP3    H265985   1.912   5.074  15.740  0.1117 -0.1973 -0.4361
14832TIP3   OH265986   4.044   2.124   6.222 -0.0028 -0.6459  0.1556
14832TIP3    H165987   4.021   2.087   6.307  2.5628 -0.7923  0.8694
14832TIP3    H265988   4.038   2.051   6.161 -0.6871 -0.8103  0.4032
14833TIP3   OH265989   3.783   1.741   6.059  0.4831 -0.5895 -0.2622
14833TIP3    H165990   3.711   1.789   6.018  1.5214  0.0754 -1.3521
14833TIP3    H265991   3.740   1.683   6.122 -0.9208  0.5066 -0.1746
14834TIP3   OH265992   2.100   3.146   6.384 -0.4796 -0.0384 -0.1096
14834TIP3    H165993   2.009   3.150   6.353 -0.9068  0.5064  1.1206
14834TIP3    H265994   2.106   3.218   6.447  0.8735  0.0439 -0.3153
14835TIP3   OH265995   5.461   2.742   3.709 -0.0793 -0.5698 -0.1509
14835TIP3    H165996   5.413   2.668   3.674  0.6442 -1.3519  0.4731
14835TIP3    H265997   5.550   2.709   3.723 -0.4293 -0.4999  2.9097
14836TIP3   OH265998   6.499   6.773  15.150  0.0539  0.1436  0.6500
14836TIP3    H165999   6.499   6.693  15.098 -1.3099  1.0331 -0.8029
14836TIP3    H266000   6.407   6.785  15.175  0.1814  1.4384  0.5525
14837TIP3   OH266001   6.532   0.601   1.256  0.3820 -0.0519  0.3756
14837TIP3    H166002   6.577   0.683   1.277 -0.1382  0.3337  0.0013
14837TIP3    H266003   6.586   0.534   1.297  0.9416  0.4555  0.4966
14838TIP3   OH266004   1.761   0.467   4.383 -0.4341 -0.0202  0.2753
14838TIP3    H166005   1.838   0.440   4.333 -1.3796 -1.9494 -0.2260
14838TIP3    H266006   1.796   0.513   4.459  1.1716 -0.4757 -0.1596
14839TIP3   OH266007   2.208   6.138   0.165  0.4171  0.7255  0.4082
14839TIP3    H166008   2.226   6.231   0.174  0.2164  0.6340  2.2788
14839TIP3    H266009   2.263   6.097   0.232  0.1602 -0.4465 -0.0785
14840TIP3   OH266010   4.833   6.779   3.309  0.1674  0.3046  0.4671
14840TIP3    H166011   4.781   6.767   3.389 -0.9346  0.9672 -0.1355
14840TIP3    H266012   4.790   6.724   3.244  1.4636 -0.7646  0.4767
14841TIP3   OH266013   5.774   5.407  15.182  0.1795  0.3467  0.1318
14841TIP3    H166014   5.776   5.490  15.229 -0.0786  1.3081 -1.4631
14841TIP3    H266015   5.824   5.347  15.237 -0.7780  1.1607  1.9978
14842TIP3   OH266016   2.844   2.679   2.363  0.0040  0.2486 -0.7448
14842TIP3    H166017   2.850   2.670   2.458  1.5355 -0.2375 -0.8642
14842TIP3    H266018   2.762   2.726   2.349  0.4028  1.5479  0.8909
14843TIP3   OH266019   6.460   6.701  11.955 -0.3168  0.0695 -0.0138
14843TIP3    H166020   6.369   6.714  11.928 -0.4203  2.0273  1.0390
14843TIP3    H266021   6.480   6.611  11.932 -1.5017  0.4990 -3.2184
14844TIP3   OH266022   6.165   2.756   1.538  0.2063  0.2792  0.4074
14844TIP3    H166023   6.155   2.763   1.633  1.9082 -3.4076  1.0513
14844TIP3    H266024   6.260   2.766   1.523  0.5192 -2.7027 -0.2951
14845TIP3   OH266025   4.848   4.329   0.146  0.0354  0.3762 -0.1187
14845TIP3    H166026   4.938   4.357   0.164  0.4383 -0.5767 -0.5266
14845TIP3    H266027   4.858   4.260   0.080 -0.9668 -0.0409  0.1430
14846TIP3   OH266028   3.967   6.607   3.468  0.5128 -0.1687 -0.0438
14846TIP3    H166029   3.987   6.542   3.535  0.7126  0.9944  1.0519
14846TIP3    H266030   3.997   6.690   3.505 -2.7874  1.1130  0.0859
14847TIP3   OH266031   4.991   2.401  12.070  0.1786 -0.1113  0.0597
14847TIP3    H166032   5.033   2.397  12.155 -1.8780 -1.7100  1.0914
14847TIP3    H266033   4.962   2.492  12.061  1.0259  0.2329  0.7178
14848TIP3   OH266034   3.864   6.270   3.830  0.1352 -0.2442 -0.0185
14848TIP3    H166035   3.833   6.181   3.811  2.5389 -0.7841 -1.8056
14848TIP3    H266036   3.873   6.272   3.926  0.1935 -1.9854  0.0513
14849TIP3   OH266037   5.192   2.369   2.598  0.1700 -0.0327  0.5611
14849TIP3    H166038   5.211   2.285   2.641 -0.4904 -1.2169 -1.3413
14849TIP3    H266039   5.271   2.388   2.548 -0.3730 -0.5579 -0.5417
14850TIP3   OH266040   3.673   1.264   5.582 -0.1370 -0.6030  0.2676
14850TIP3    H166041   3.753   1.269   5.530 -0.9960  0.4367 -1.0122
14850TIP3    H266042   3.668   1.348   5.627  1.1302 -1.8551  2.9595
14851TIP3   OH266043   5.947   3.103  12.331 -0.8758 -0.4933  0.3381
14851TIP3    H166044   5.986   3.166  12.392 -0.8152  0.4742 -0.6764
14851TIP3    H266045   5.859   3.086  12.367 -0.2421 -1.2611  1.6067
14852TIP3   OH266046   3.488   4.476  15.533  0.0627  0.1153 -0.5895
14852TIP3    H166047   3.400   4.513  15.522  0.5595  1.6748  0.3612
14852TIP3    H266048   3.506   4.483  15.627  0.9188 -0.8966 -0.6524
14853TIP3   OH266049   0.139   0.950   0.393 -0.2145  0.2222 -0.0708
14853TIP3    H166050   0.124   0.909   0.307  0.6504  1.4025 -0.8192
14853TIP3    H266051   0.136   1.044   0.375  2.4520  0.5464  0.6847
14854TIP3   OH266052   5.857   4.304  12.913  0.2802 -0.1266 -0.7931
14854TIP3    H166053   5.951   4.319  12.927 -0.0277  0.3026  1.0322
14854TIP3    H266054   5.828   4.260  12.992 -1.4628  1.6765 -0.3549
14855TIP3   OH266055   6.069   6.510   3.525  0.3100 -0.3152  0.2642
14855TIP3    H166056   5.994   6.455   3.548 -0.0293 -0.0031 -0.0924
14855TIP3    H266057   6.059   6.588   3.579  0.5733 -0.4233  0.4742
14856TIP3   OH266058   5.867   3.830  11.658  0.0471 -0.1362  0.1901
14856TIP3    H166059   5.913   3.891  11.716  2.5653 -1.0958 -0.6342
14856TIP3    H266060   5.774   3.844  11.677  0.5821  2.6793  1.2466
14857TIP3   OH266061   1.187   5.751  13.180  0.2539 -0.8861 -0.2540
14857TIP3    H166062   1.135   5.679  13.217  1.1482 -1.7366 -0.6016
14857TIP3    H266063   1.194   5.731  13.087  0.2497 -0.1741 -0.4121
14858TIP3   OH266064   0.953   5.697   0.769  0.3530  0.3231  0.0206
14858TIP3    H166065   0.948   5.788   0.800 -0.5583  0.2931 -0.0165
14858TIP3    H266066   0.969   5.704   0.675  0.2041  0.4555  0.0038
14859TIP3   OH266067   1.999   0.627  16.996 -0.1319 -0.1612  0.0335
14859TIP3    H166068   1.956   0.626  17.082  1.0215  0.5618  0.6471
14859TIP3    H266069   2.020   0.719  16.982  0.5403 -0.4090 -0.5969
14860TIP3   OH266070   4.362   4.937   3.346  0.3953  0.9750  0.1682
14860TIP3    H166071   4.365   4.888   3.264  3.4880  0.3511  0.5151
14860TIP3    H266072   4.278   4.915   3.385  0.1850 -1.2386 -1.3755
14861TIP3   OH266073   6.584   0.308   4.691 -0.3839 -0.2100 -0.5917
14861TIP3    H166074   6.666   0.309   4.740 -1.8925  0.4721  2.0826
14861TIP3    H266075   6.580   0.220   4.654  1.8818 -0.0204 -1.4949
14862TIP3   OH266076   0.530   6.194  15.735 -0.0113 -0.3600 -0.4752
14862TIP3    H166077   0.435   6.201  15.742  0.1558  0.5570  1.5673
14862TIP3    H266078   0.561   6.283  15.748  1.2616 -1.1684  3.3077
14863TIP3   OH266079   5.891   2.004   2.165 -0.2417  0.1418  0.3092
14863TIP3    H166080   5.916   1.914   2.186 -0.4317  0.1182  0.4424
14863TIP3    H266081   5.803   1.996   2.127  0.8486 -0.0312 -2.3838
14864TIP3   OH266082   2.195   3.752  11.431  0.2657  0.4466 -0.8696
14864TIP3    H166083   2.146   3.729  11.353 -0.5924  0.9217 -0.4847
14864TIP3    H266084   2.251   3.825  11.404  0.3738  0.2541 -1.1705
14865TIP3   OH266085   0.856   2.908  16.624 -0.6452 -0.5631 -0.1759
14865TIP3    H166086   0.875   2.900  16.718 -2.2010  0.0613  0.2147
14865TIP3    H266087   0.774   2.859  16.612 -0.8041 -0.0920 -1.0896
14866TIP3   OH266088   0.721   2.118   3.429 -0.1626 -0.7617  0.1026
14866TIP3    H166089   0.661   2.048   3.454 -1.1787  0.4966  1.3608
14866TIP3    H266090   0.732   2.170   3.509  2.4278 -0.7802 -0.1589
14867TIP3   OH266091   1.573   3.635   0.659 -0.0964 -0.1812  0.0647
14867TIP3    H166092   1.581   3.727   0.633 -0.6167 -0.6159 -1.8193
14867TIP3    H266093   1.663   3.603   0.663  0.0592  0.2456  0.0565
14868TIP3   OH266094   0.472   4.478   3.793 -0.1896 -0.2962  0.3038
14868TIP3    H166095   0.433   4.516   3.714  0.4815  0.0127  0.1177
14868TIP3    H266096   0.404   4.488   3.860 -1.4731 -2.1453 -0.6309
14869TIP3   OH266097   4.498   5.516   2.208  0.8462 -0.5335  0.4900
14869TIP3    H166098   4.438   5.560   2.148  1.7349 -0.2319 -0.2032
14869TIP3    H266099   4.447   5.500   2.287 -0.0193  0.0799  0.0594
14870TIP3   OH266100   5.081   0.147  14.875 -0.6208 -0.3913  0.4774
14870TIP3    H166101   5.102   0.118  14.786  0.3710  1.4850  0.0611
14870TIP3    H266102   5.074   0.065  14.925  0.9244 -1.4046 -0.8574
14871TIP3   OH266103   3.504   0.233  11.665  0.1057  0.0993 -0.1967
14871TIP3    H166104   3.566   0.164  11.638  1.3240  0.4205  1.5566
14871TIP3    H266105   3.527   0.251  11.756 -2.5729  0.2920  0.5357
14872TIP3   OH266106   6.305   4.538   4.250 -0.3964 -0.5223 -0.0989
14872TIP3    H166107   6.321   4.603   4.181 -0.3071  0.0227  0.4308
14872TIP3    H266108   6.228   4.489   4.219 -1.7566  1.1791  0.4333
14873TIP3   OH266109   4.339   1.905  10.966  0.3204  0.7349 -0.5361
14873TIP3    H166110   4.423   1.865  10.985 -0.0372 -1.3269 -2.7836
14873TIP3    H266111   4.312   1.866  10.883 -2.9728  1.1280  0.2111
14874TIP3   OH266112   1.793   5.475   1.832  0.4974  0.6242  0.5330
14874TIP3    H166113   1.857   5.544   1.813  0.5150  0.7345  0.9944
14874TIP3    H266114   1.708   5.518   1.817  0.5311  0.3942 -0.3630
14875TIP3   OH266115   4.170   0.241  16.928  0.1517  0.0754  0.3250
14875TIP3    H166116   4.189   0.274  16.840 -2.4825 -0.0100 -0.3785
14875TIP3    H266117   4.142   0.151  16.914 -1.5001  0.4328  1.0459
14876TIP3   OH266118   1.705   2.962  12.963 -0.0539 -0.2708  0.5748
14876TIP3    H166119   1.738   3.027  13.025 -0.1105 -0.2507  0.5841
14876TIP3    H266120   1.614   2.948  12.989 -1.1083  2.0914 -1.4766
14877TIP3   OH266121   3.978   5.612  14.306  0.0375  0.6738  0.1869
14877TIP3    H166122   4.044   5.618  14.375 -0.9131 -0.7540  1.2909
14877TIP3    H266123   3.897   5.589  14.352 -0.2747 -2.1865 -1.4974
14878TIP3   OH266124   5.512   1.230  16.032  0.1773 -0.3244  0.2040
14878TIP3    H166125   5.539   1.145  15.998 -2.7870 -0.7561 -1.4581
14878TIP3    H266126   5.494   1.214  16.125  0.4892 -1.2989  0.1100
14879TIP3   OH266127   1.954   5.657  16.724 -0.3241 -0.6032  0.1491
14879TIP3    H166128   2.016   5.725  16.696  1.7999 -2.3610  0.3074
14879TIP3    H266129   1.938   5.676  16.817  0.3548 -0.3799  0.2285
14880TIP3   OH266130   1.208   4.675   0.309  0.6704  0.0299  0.5286
14880TIP3    H166131   1.282   4.631   0.267 -0.7744 -0.7948 -1.3286
14880TIP3    H266132   1.244   4.713   0.389  3.2396  0.2559 -0.6315
14881TIP3   OH266133   0.950   4.565  12.585 -0.5354 -0.2264  0.6572
14881TIP3    H166134   1.018   4.503  12.556 -1.2947 -1.2796  1.0666
14881TIP3    H266135   0.945   4.552  12.680 -2.5359 -1.4799  0.4338
14882TIP3   OH266136   0.213   5.749   3.710 -0.3511  0.1393 -0.5185
14882TIP3    H166137   0.133   5.749   3.658 -0.2916 -1.5016 -0.6751
14882TIP3    H266138   0.280   5.781   3.651 -1.0894  3.0296  0.0623
14883TIP3   OH266139   4.844   1.771   5.479  0.1561  0.3770  0.4008
14883TIP3    H166140   4.806   1.695   5.435  1.8250 -0.2117 -0.0932
14883TIP3    H266141   4.885   1.821   5.409  0.9824  0.5559  1.0018
14884TIP3   OH266142   1.808   2.314  13.979 -1.1418  0.7807 -0.1941
14884TIP3    H166143   1.812   2.409  13.990 -1.4620  0.7781 -0.0570
14884TIP3    H266144   1.796   2.301  13.885  1.8755  0.7944 -0.6988
14885TIP3   OH266145   5.224   1.461   4.728  0.2701  0.2562 -0.6017
14885TIP3    H166146   5.293   1.414   4.774 -0.3086 -0.0599 -0.0423
14885TIP3    H266147   5.265   1.543   4.701  1.6059 -0.9318 -2.4604
14886TIP3   OH266148   0.006   0.505   6.045  0.3553 -0.2271 -0.0812
14886TIP3    H166149   0.014   0.543   6.133  0.4517  1.1156 -0.6540
14886TIP3    H266150   0.019   0.579   5.986 -1.4457 -0.7897 -1.2278
14887TIP3   OH266151   2.474   5.144  13.016 -0.3741 -0.3720 -0.0976
14887TIP3    H166152   2.523   5.106  13.088  0.1229  0.0684 -0.1902
14887TIP3    H266153   2.429   5.070  12.975  1.1099 -0.9785 -0.7037
14888TIP3   OH266154   6.705   4.348   0.960  0.9050  0.4225  0.2500
14888TIP3    H166155   6.662   4.423   1.000 -0.9296 -0.2463 -0.3950
14888TIP3    H266156   6.765   4.387   0.896 -1.2006  1.3823 -1.2611
14889TIP3   OH266157   6.354   4.396   3.642 -0.3054  0.2466  0.0996
14889TIP3    H166158   6.390   4.442   3.566 -0.2682  2.4405  1.3676
14889TIP3    H266159   6.362   4.303   3.620  2.3557  0.7340 -1.3996
14890TIP3   OH266160   5.088   1.483   0.779  0.4794  0.2691 -0.1246
14890TIP3    H166161   5.064   1.574   0.764  0.8590  0.2937 -0.5820
14890TIP3    H266162   5.114   1.450   0.693  0.9905 -0.0803  0.1576
14891TIP3   OH266163   1.593   4.441   5.075  0.3012 -0.2114  0.0905
14891TIP3    H166164   1.613   4.353   5.043  3.2039  0.0761  0.7795
14891TIP3    H266165   1.502   4.457   5.049  0.7787 -2.0209 -3.2036
14892TIP3   OH266166   0.057   2.494   2.418  0.0974  0.1535 -0.4227
14892TIP3    H166167   0.125   2.560   2.416  0.7959 -0.5518 -0.3358
14892TIP3    H266168  -0.021   2.538   2.383  0.5290  1.0310 -0.2853
14893TIP3   OH266169   3.422   4.086  13.464 -0.1663 -0.0422 -0.3890
14893TIP3    H166170   3.447   4.123  13.380  0.0331 -0.8843 -0.7123
14893TIP3    H266171   3.480   4.128  13.527 -0.9652  1.3127 -0.5210
14894TIP3   OH266172   5.607   1.790   1.688 -0.6985  0.9021 -0.3038
14894TIP3    H166173   5.512   1.798   1.678 -0.7805  0.1778 -0.1887
14894TIP3    H266174   5.629   1.709   1.641 -0.3910  0.1267  1.1275
14895TIP3   OH266175   5.888   3.877   1.432  0.4780  0.3795 -0.8610
14895TIP3    H166176   5.837   3.906   1.356 -1.0339  0.1362  0.0103
14895TIP3    H266177   5.893   3.782   1.423  2.2815  0.5161 -1.8073
14896TIP3   OH266178   1.214   0.003  14.971  0.1483  0.0112  0.0549
14896TIP3    H166179   1.235  -0.001  14.878  1.3199  2.1424  0.1810
14896TIP3    H266180   1.287  -0.042  15.014  0.2718  0.1839  0.0247
14897TIP3   OH266181   2.978   2.151  13.660 -0.3501  0.3145  0.2493
14897TIP3    H166182   3.023   2.086  13.714  1.1485 -0.0623 -1.3422
14897TIP3    H266183   2.929   2.099  13.596  0.1383  0.7416 -0.4808
14898TIP3   OH266184   4.264   3.097  16.076  0.1410 -0.4588 -0.1433
14898TIP3    H166185   4.184   3.045  16.070 -0.5608  0.3395  1.7168
14898TIP3    H266186   4.244   3.178  16.030 -1.2067  0.9217  2.6307
14899TIP3   OH266187   3.249   3.897   0.828  0.4911  0.7270 -0.3459
14899TIP3    H166188   3.241   3.968   0.891  0.3550  1.0363 -0.7097
14899TIP3    H266189   3.343   3.893   0.808  0.5429  0.5913 -0.0884
14900TIP3   OH266190   5.846   2.343  11.867 -0.5471  0.2608 -0.8751
14900TIP3    H166191   5.771   2.399  11.847 -0.1312  0.3034 -2.4627
14900TIP3    H266192   5.818   2.292  11.943 -1.4445  1.6356 -0.2487
14901TIP3   OH266193   5.141   2.687  13.984 -0.2041  0.2268 -0.1651
14901TIP3    H166194   5.056   2.650  14.009  0.2422 -0.2630  0.6673
14901TIP3    H266195   5.142   2.774  14.025 -0.2926  0.2318 -0.1713
14902TIP3   OH266196   2.813   5.200  16.527 -0.1633  0.2991  0.4426
14902TIP3    H166197   2.865   5.224  16.451 -0.4157  0.7491  0.4059
14902TIP3    H266198   2.734   5.159  16.491 -0.7961  1.5145  0.4070
14903TIP3   OH266199   2.366   1.113   4.963 -0.1402  0.2615  0.1853
14903TIP3    H166200   2.390   1.059   4.887 -3.4188 -0.9098 -0.1767
14903TIP3    H266201   2.280   1.148   4.941 -0.0993  1.9436  2.3800
14904TIP3   OH266202   3.404   2.925  15.287  0.8789 -0.6110  0.1184
14904TIP3    H166203   3.478   2.892  15.337 -0.1838 -2.2525  0.7016
14904TIP3    H266204   3.359   2.847  15.255 -0.0427  0.3577 -1.0625
14905TIP3   OH266205   0.718   0.364   4.360 -0.3842  0.0068 -0.0077
14905TIP3    H166206   0.702   0.458   4.348 -1.4177 -0.3049 -1.2725
14905TIP3    H266207   0.655   0.322   4.303 -0.1090 -1.4855  0.7521
14906TIP3   OH266208   4.759   4.229   1.179 -0.3558  0.1035  0.3095
14906TIP3    H166209   4.743   4.185   1.096 -0.2947  0.6708 -0.0057
14906TIP3    H266210   4.844   4.196   1.208  0.7768  1.6914 -1.0443
14907TIP3   OH266211   1.378   3.998  15.136 -0.2999 -0.6323  0.5884
14907TIP3    H166212   1.312   4.003  15.206 -2.1580  0.1605 -1.1143
14907TIP3    H266213   1.354   3.920  15.087  0.3372 -0.6070  0.2326
14908TIP3   OH266214   2.766   3.645  17.084  0.2367 -0.0651  0.1401
14908TIP3    H166215   2.760   3.656  16.989 -1.6489  0.8274  0.3171
14908TIP3    H266216   2.682   3.607  17.109  0.2368  0.8075  1.5872
14909TIP3   OH266217   5.426   4.174   3.744  0.0273  0.5849  0.2403
14909TIP3    H166218   5.425   4.144   3.654 -0.9126  2.0986 -0.2873
14909TIP3    H266219   5.359   4.121   3.788  0.5719 -0.2380  0.1011
14910TIP3   OH266220   4.851   3.624   5.300 -0.1988 -0.0039 -0.1109
14910TIP3    H166221   4.887   3.712   5.292  0.3562 -0.3133 -1.3389
14910TIP3    H266222   4.868   3.599   5.391  0.0818  0.9622  0.1128
14911TIP3   OH266223   1.899   0.772  13.300  0.3083 -0.3927 -0.1604
14911TIP3    H166224   1.931   0.799  13.214 -0.7555 -0.5498 -0.6203
14911TIP3    H266225   1.836   0.702  13.281 -0.7279  0.2889  0.6609
14912TIP3   OH266226   3.341   1.441   1.226  0.2363  0.1288  0.2412
14912TIP3    H166227   3.261   1.462   1.179 -0.1471  1.7077  1.4926
14912TIP3    H266228   3.331   1.485   1.311  0.6151 -3.0550  2.0731
14913TIP3   OH266229   6.266   2.209  14.998 -0.4732 -0.2037  0.2824
14913TIP3    H166230   6.299   2.218  14.909 -1.1848  0.2554  0.0575
14913TIP3    H266231   6.173   2.231  14.992 -0.3864  0.5207  1.2528
14914TIP3   OH266232   4.904   6.092  11.959  1.1216  0.3765  0.0601
14914TIP3    H166233   4.859   6.146  11.895  0.4797 -0.0399  0.1580
14914TIP3    H266234   4.835   6.042  12.002  1.8136 -1.7495 -1.1416
14915TIP3   OH266235   2.535   1.114   1.364 -0.3940 -0.0249 -0.5317
14915TIP3    H166236   2.528   1.130   1.270 -0.8623  0.6988 -0.3823
14915TIP3    H266237   2.465   1.167   1.403 -0.4547 -0.6180  0.1958
14916TIP3   OH266238   3.280   4.541  15.969  0.3863 -0.1470  0.6281
14916TIP3    H166239   3.240   4.626  15.990 -2.9353 -1.8677  1.9577
14916TIP3    H266240   3.248   4.482  16.037  0.7557 -2.9502 -1.4568
14917TIP3   OH266241   1.830   5.062  14.427 -0.5685 -0.7666  0.2419
14917TIP3    H166242   1.890   5.001  14.385  0.7333  0.0960  0.7939
14917TIP3    H266243   1.798   5.118  14.356  0.1649 -0.5067  0.1137
14918TIP3   OH266244   6.676   1.071  12.600  0.1511 -0.1703 -0.1039
14918TIP3    H166245   6.591   1.029  12.589  0.5524 -0.4609 -2.5478
14918TIP3    H266246   6.734   1.001  12.627 -0.2683 -0.0411  1.2182
14919TIP3   OH266247   5.799   3.024  12.980 -0.3823 -0.2697  0.2798
14919TIP3    H166248   5.714   2.988  12.956 -0.3258  0.0402 -0.4202
14919TIP3    H266249   5.825   3.076  12.904  0.6521 -0.7625  0.2804
14920TIP3   OH266250   1.703   0.047   4.219  0.7586  0.0919  0.2317
14920TIP3    H166251   1.672   0.102   4.148 -2.1803 -2.3435 -0.5834
14920TIP3    H266252   1.762  -0.015   4.176  1.3260  0.4338  0.5064
14921TIP3   OH266253   4.589   3.442  13.886  0.1831 -0.6792  0.4204
14921TIP3    H166254   4.599   3.538  13.886 -0.3108 -0.6201 -0.0542
14921TIP3    H266255   4.663   3.410  13.937  1.4055 -0.1389 -0.9497
14922TIP3   OH266256   2.498   5.814  16.353  0.0981  0.4790  0.0656
14922TIP3    H166257   2.425   5.872  16.330 -1.0432 -0.8903  0.0514
14922TIP3    H266258   2.456   5.730  16.371  1.7230 -0.4631 -0.3362
14923TIP3   OH266259   3.506   5.997   3.074  0.2069 -0.6143 -0.7902
14923TIP3    H166260   3.571   5.999   3.144  0.2910 -2.0794 -0.7992
14923TIP3    H266261   3.440   5.936   3.104 -1.1663  0.7989 -0.8143
14924TIP3   OH266262   4.017   5.469   1.823  0.3418  0.1515 -1.2493
14924TIP3    H166263   4.087   5.427   1.873  0.9538  0.2048 -2.0440
14924TIP3    H266264   3.942   5.411   1.834  1.3390 -1.4958 -2.8204
14925TIP3   OH266265   1.564   4.445  10.558  0.3248 -0.1831 -0.1754
14925TIP3    H166266   1.639   4.426  10.616 -0.4605 -1.3623  0.4951
14925TIP3    H266267   1.592   4.521  10.507  0.7577  1.4248  2.2975
14926TIP3   OH266268   0.274   3.850   5.380  0.3221  0.3682  0.2559
14926TIP3    H166269   0.235   3.937   5.369 -0.4496 -0.0174 -0.1586
14926TIP3    H266270   0.201   3.795   5.410  0.5303 -0.3771 -0.5679
14927TIP3   OH266271   1.321   1.991  15.778 -0.4126 -0.4093  0.2797
14927TIP3    H166272   1.230   2.011  15.755 -0.0037 -0.1001 -1.2038
14927TIP3    H266273   1.317   1.907  15.824 -1.6095  0.4364  1.8044
14928TIP3   OH266274   1.513   1.781  15.389  0.0224 -0.5273 -0.1015
14928TIP3    H166275   1.603   1.762  15.417  0.8178  1.5086 -1.0426
14928TIP3    H266276   1.487   1.856  15.442 -1.5421 -1.7151  0.8739
14929TIP3   OH266277   3.441   5.153   1.165  0.0599 -0.1387 -0.0556
14929TIP3    H166278   3.349   5.139   1.190  0.1489  0.5704  0.7091
14929TIP3    H266279   3.462   5.077   1.111 -0.6932 -0.8199  0.5634
14930TIP3   OH266280   5.400   3.471  13.566  0.2790 -0.2610  0.9093
14930TIP3    H166281   5.453   3.410  13.616  0.2257  0.3117  1.6790
14930TIP3    H266282   5.430   3.558  13.594  0.7680  0.0884 -0.5865
14931TIP3   OH266283   0.721   0.233  16.569 -0.1609  0.3360  0.2709
14931TIP3    H166284   0.747   0.313  16.524  0.2691 -0.9058 -1.8234
14931TIP3    H266285   0.638   0.255  16.611 -1.3293  1.2515 -2.3190
14932TIP3   OH266286   5.292   1.392  11.741 -0.5237  0.5595  0.3411
14932TIP3    H166287   5.211   1.347  11.717  0.3697 -0.7186 -0.4217
14932TIP3    H266288   5.329   1.419  11.657  0.3319  0.2355  0.6074
14933TIP3   OH266289   4.348   3.767   0.153  0.5645 -0.7844 -0.3101
14933TIP3    H166290   4.290   3.702   0.192 -1.6237  1.2462  0.0316
14933TIP3    H266291   4.383   3.725   0.075 -1.6084 -2.0204 -0.6889
14934TIP3   OH266292   6.383   0.347   4.927  0.8056 -0.2056 -0.0118
14934TIP3    H166293   6.431   0.371   5.007  2.5168 -0.6413 -0.8686
14934TIP3    H266294   6.449   0.349   4.858 -0.7059  0.4844 -1.5023
14935TIP3   OH266295   3.515   0.250   0.767  0.2823 -0.0468  0.1212
14935TIP3    H166296   3.443   0.247   0.703 -1.4547 -0.7875  1.9814
14935TIP3    H266297   3.594   0.259   0.714 -1.1912  1.3465 -2.0120
14936TIP3   OH266298   4.915   3.111   4.785  0.1756 -0.1565 -0.1871
14936TIP3    H166299   4.983   3.145   4.727 -0.5374  1.4750 -0.1414
14936TIP3    H266300   4.913   3.017   4.768  2.0396 -0.1636 -0.5892
14937TIP3   OH266301   4.902   0.616  14.384 -0.1894  0.1269  0.2418
14937TIP3    H166302   4.971   0.626  14.318  0.5131 -0.1830  0.9175
14937TIP3    H266303   4.857   0.701  14.383 -0.0479  0.2053 -0.4727
14938TIP3   OH266304   1.286   3.859  13.872 -0.4788 -0.0827  0.1045
14938TIP3    H166305   1.284   3.775  13.919 -0.7212  0.0747  0.3766
14938TIP3    H266306   1.194   3.878  13.853 -0.4366  0.1896  0.1702
14939TIP3   OH266307   6.106   5.728  11.368  0.0510 -0.2553  0.2864
14939TIP3    H166308   6.040   5.756  11.304  0.3547  0.2405  0.1865
14939TIP3    H266309   6.114   5.633  11.353 -0.1113 -0.1983 -0.1965
14940TIP3   OH266310   6.384   1.789   2.264 -0.0435 -0.1752  0.2781
14940TIP3    H166311   6.397   1.732   2.340 -1.8615 -0.8975  0.0863
14940TIP3    H266312   6.392   1.878   2.300  1.9094 -0.5048  0.7481
14941TIP3   OH266313   4.952   5.377  11.415  0.2270  0.2262  0.1951
14941TIP3    H166314   4.873   5.376  11.361  1.0804  0.8483 -1.1272
14941TIP3    H266315   4.948   5.296  11.465 -1.1641  0.1679  0.0370
14942TIP3   OH266316   5.145   5.341   3.615  0.4201 -0.4271 -0.1666
14942TIP3    H166317   5.156   5.431   3.646  0.7904 -0.3154 -0.6072
14942TIP3    H266318   5.161   5.287   3.692 -2.0555 -0.0799  0.7079
14943TIP3   OH266319   1.959   2.480  13.580  0.3240 -0.1338 -0.3326
14943TIP3    H166320   2.046   2.504  13.548  0.8677 -0.7401  0.6247
14943TIP3    H266321   1.973   2.460  13.673 -0.8131 -0.3769 -0.2041
14944TIP3   OH266322   0.100   1.809   5.616  0.0013  0.0390 -0.0876
14944TIP3    H166323   0.029   1.766   5.664  0.2942  0.1517  0.4529
14944TIP3    H266324   0.174   1.808   5.677 -0.4499  2.8687  0.6319
14945TIP3   OH266325   2.966   1.000  13.533  0.2313 -0.7141  0.1759
14945TIP3    H166326   2.966   0.944  13.610 -2.0013  1.1219  1.6298
14945TIP3    H266327   3.058   1.023  13.519  0.7755 -1.8708  1.6668
14946TIP3   OH266328   4.179   2.860  12.577  0.0852  0.0498  0.1409
14946TIP3    H166329   4.163   2.812  12.496 -0.5731  0.7642 -0.1536
14946TIP3    H266330   4.228   2.938  12.551  2.5812 -1.1773  0.8043
14947TIP3   OH266331   2.600   4.969   0.031  0.4733  0.1166  0.2831
14947TIP3    H166332   2.532   5.012   0.083 -0.0782 -0.6301  0.1954
14947TIP3    H266333   2.581   4.876   0.039  1.3439 -0.0892  0.0481
14948TIP3   OH266334   2.331   5.882  11.899  0.1764  0.3885 -0.5311
14948TIP3    H166335   2.336   5.947  11.969  0.5543  1.4869 -1.5386
14948TIP3    H266336   2.338   5.798  11.944  0.0239  1.0468  0.7785
14949TIP3   OH266337   2.131   3.443   3.762 -0.0794  0.0944  0.0996
14949TIP3    H166338   2.051   3.396   3.786  0.0361  0.2796  0.8986
14949TIP3    H266339   2.185   3.438   3.841  0.8941 -0.4332 -0.5752
14950TIP3   OH266340   4.654   5.249   0.285  0.0774 -0.5154 -0.6630
14950TIP3    H166341   4.620   5.319   0.228  0.0089 -0.9836 -1.2094
14950TIP3    H266342   4.578   5.194   0.303 -0.5513  1.0702  2.1248
14951TIP3   OH266343   5.473   4.529   3.387 -0.2925 -0.6162 -0.0379
14951TIP3    H166344   5.475   4.610   3.437 -1.7491 -1.5023  1.5734
14951TIP3    H266345   5.540   4.474   3.427 -0.8961 -1.0286  0.4261
14952TIP3   OH266346   3.026   3.720  12.023  0.0745 -0.0525  0.0790
14952TIP3    H166347   3.097   3.769  11.980 -0.6650  0.0278 -1.0937
14952TIP3    H266348   2.946   3.758  11.987 -0.6485  0.7384  2.3267
14953TIP3   OH266349   3.463   5.565  14.429  0.0321  0.4258  0.3400
14953TIP3    H166350   3.430   5.478  14.453  1.0090  0.0030  0.1677
14953TIP3    H266351   3.455   5.568  14.334 -0.7548  0.8479  0.4070
14954TIP3   OH266352   0.738   5.895  16.693 -0.8856 -0.3403 -0.0534
14954TIP3    H166353   0.709   5.804  16.685 -2.4003  0.0204  0.9064
14954TIP3    H266354   0.668   5.946  16.651 -0.0535  0.4026 -0.5827
14955TIP3   OH266355   3.966   5.619   3.916  0.5841  0.5595 -0.0919
14955TIP3    H166356   3.886   5.669   3.932 -0.8406 -0.9592 -1.9921
14955TIP3    H266357   4.035   5.673   3.953 -1.1596  2.5763  0.4502
14956TIP3   OH266358   6.532   1.552   2.806 -0.0098  0.2662 -0.5104
14956TIP3    H166359   6.585   1.531   2.883  1.0673 -0.4946 -1.4246
14956TIP3    H266360   6.596   1.565   2.736 -0.9964  0.3995 -1.4078
14957TIP3   OH266361   0.264   1.679  14.869  0.2344  0.0327  0.8045
14957TIP3    H166362   0.358   1.666  14.853  0.2859  1.6878 -0.4701
14957TIP3    H266363   0.223   1.658  14.786 -0.6019 -1.0726  1.4717
14958TIP3   OH266364   4.339   0.764   5.189  0.6930 -0.6290 -0.2578
14958TIP3    H166365   4.259   0.754   5.240  1.1809  0.8646  0.8679
14958TIP3    H266366   4.410   0.749   5.252  1.3094 -0.7188 -0.9520
14959TIP3   OH266367   3.266   4.934   0.444  0.2267  0.0662  0.3265
14959TIP3    H166368   3.207   4.956   0.371 -1.8368  0.6903  2.0844
14959TIP3    H266369   3.351   4.967   0.416 -0.4398  0.1135 -1.8725
14960TIP3   OH266370   1.351   1.556  15.201 -0.1376 -0.4998  0.2347
14960TIP3    H166371   1.421   1.606  15.242  1.0063 -1.0807 -0.9383
14960TIP3    H266372   1.297   1.525  15.273 -0.2125  1.4114  1.0656
14961TIP3   OH266373   2.700   0.507  16.563  0.3217 -0.3150  0.7040
14961TIP3    H166374   2.679   0.560  16.640 -1.4404 -0.3804  0.3307
14961TIP3    H266375   2.615   0.472  16.535  0.7776  0.3429 -1.7236
14962TIP3   OH266376   4.527   0.725   6.373 -0.7435  0.2859 -0.4229
14962TIP3    H166377   4.493   0.807   6.409  1.2464  1.1377 -0.3591
14962TIP3    H266378   4.582   0.690   6.443  0.6859  0.3740 -1.4650
14963TIP3   OH266379   0.694   2.603   2.908 -0.7173 -0.5684  0.1157
14963TIP3    H166380   0.680   2.692   2.879  0.0810  0.2388  2.0219
14963TIP3    H266381   0.740   2.560   2.836 -1.5784  0.3818 -1.0323
14964TIP3   OH266382   0.432   1.808  12.853  0.0699 -0.2661 -0.3375
14964TIP3    H166383   0.347   1.765  12.862 -0.2383 -0.0358 -1.8291
14964TIP3    H266384   0.413   1.889  12.806  1.0259  0.1269 -0.0655
14965TIP3   OH266385   4.953   1.436   5.118  0.1522  0.2143  0.2448
14965TIP3    H166386   4.946   1.485   5.036 -1.2702  2.3913  1.5820
14965TIP3    H266387   4.864   1.408   5.137  0.2728  0.6295  1.5360
14966TIP3   OH266388   3.028   2.987  11.141 -0.2807 -0.1160 -0.1023
14966TIP3    H166389   2.976   2.937  11.203 -1.4042  1.3467  0.2019
14966TIP3    H266390   3.116   2.950  11.149 -0.6656 -0.8000  1.4482
14967TIP3   OH266391   3.670   1.598  16.537 -0.1230  0.0093 -0.4607
14967TIP3    H166392   3.683   1.691  16.555 -1.1210  0.8672 -3.6707
14967TIP3    H266393   3.588   1.576  16.581  0.5830  0.3322  1.0955
14968TIP3   OH266394   1.210   0.849  14.961 -0.0110 -0.2004 -0.1621
14968TIP3    H166395   1.138   0.789  14.980 -0.1712 -1.3322 -3.6868
14968TIP3    H266396   1.180   0.900  14.886  1.5531  1.8239  0.4853
14969TIP3   OH266397   3.124   5.216   5.514 -0.0916  0.1772  0.1317
14969TIP3    H166398   3.122   5.278   5.442 -1.4477 -0.1279 -0.1113
14969TIP3    H266399   3.043   5.166   5.506 -1.9510  2.2209  3.6723
14970TIP3   OH266400   6.025   1.371   2.656 -0.1278 -0.0670  0.2156
14970TIP3    H166401   5.936   1.380   2.688 -0.5568 -2.1564 -0.2456
14970TIP3    H266402   6.074   1.440   2.701 -1.9532  1.1227  0.4636
14971TIP3   OH266403   3.443   6.616  13.069  0.1526 -0.0788  0.3384
14971TIP3    H166404   3.437   6.712  13.069 -0.5969 -0.1134  0.8194
14971TIP3    H266405   3.357   6.587  13.100  0.4356 -0.9034  0.3759
14972TIP3   OH266406   5.660   2.285  14.691 -0.5152 -0.6559  0.1179
14972TIP3    H166407   5.603   2.293  14.768  0.0345 -0.0457  0.4749
14972TIP3    H266408   5.611   2.230  14.630 -0.6123 -1.8547  1.2316
14973TIP3   OH266409   3.629   3.221  11.208 -0.3717  0.1879 -0.0853
14973TIP3    H166410   3.704   3.183  11.164 -0.7712  1.1959 -1.7022
14973TIP3    H266411   3.660   3.306  11.241 -0.4196 -0.0149  0.4966
14974TIP3   OH266412   5.754   6.111   5.490  0.4848 -0.8975  0.0096
14974TIP3    H166413   5.726   6.182   5.431  2.2801  1.0682  1.4057
14974TIP3    H266414   5.730   6.031   5.443 -2.1377  0.5666 -1.4012
14975TIP3   OH266415   4.647   2.135   6.298  0.5454 -0.3691  0.1690
14975TIP3    H166416   4.588   2.130   6.373  0.3930 -0.3747  0.0476
14975TIP3    H266417   4.705   2.208   6.319  1.0071 -0.8687  0.6582
14976TIP3   OH266418   0.480   5.025   0.663  0.2493  0.1595  0.0197
14976TIP3    H166419   0.401   5.078   0.676 -0.0617 -0.3037  0.0526
14976TIP3    H266420   0.504   4.996   0.751  0.0731 -0.2401 -0.0615
14977TIP3   OH266421   5.489   2.779  13.928  0.3874  0.1997 -0.3956
14977TIP3    H166422   5.512   2.739  14.012  0.6265 -0.5385 -0.8012
14977TIP3    H266423   5.506   2.710  13.864  2.0615  1.3754 -1.2762
14978TIP3   OH266424   2.646   2.506  16.685  0.2199  0.4366  0.1498
14978TIP3    H166425   2.651   2.411  16.691 -0.3990  0.4643  1.4625
14978TIP3    H266426   2.729   2.532  16.645  0.1465 -0.6786 -0.8033
14979TIP3   OH266427   2.438   0.425   0.692 -0.4008  0.0175 -0.2804
14979TIP3    H166428   2.498   0.379   0.750 -0.5510 -1.5466 -1.2881
14979TIP3    H266429   2.356   0.377   0.699 -1.4821  1.9319  0.8257
14980TIP3   OH266430   3.944   5.462   5.128 -0.3496 -0.6543 -0.4964
14980TIP3    H166431   3.951   5.380   5.176 -1.0492 -0.7399 -0.5255
14980TIP3    H266432   3.966   5.439   5.038 -0.8898 -0.8907 -0.5730
14981TIP3   OH266433   5.455   2.201   3.160 -0.4364 -0.4189 -0.3118
14981TIP3    H166434   5.396   2.128   3.178 -0.0403 -0.5032  0.6634
14981TIP3    H266435   5.514   2.204   3.235  1.4229 -0.9472 -1.6939
14982TIP3   OH266436   0.019   3.180   0.125 -0.5594  0.2409 -0.3128
14982TIP3    H166437   0.022   3.214   0.214  1.5933 -0.2293 -0.1521
14982TIP3    H266438  -0.046   3.234   0.080  0.5306  2.5381  0.7286
14983TIP3   OH266439   2.365   4.083  12.389  0.4563  0.1659 -0.2175
14983TIP3    H166440   2.432   4.043  12.333  0.6066  0.2557 -0.1016
14983TIP3    H266441   2.366   4.031  12.469  1.0625  0.7456  0.1724
14984TIP3   OH266442   2.976   3.840  16.175  1.0632  0.2407 -0.2445
14984TIP3    H166443   2.926   3.760  16.160  1.4104  0.1307 -0.8431
14984TIP3    H266444   2.911   3.905  16.201  0.7603 -0.1951  0.0926
14985TIP3   OH266445   6.459   6.440   4.279  0.2348 -0.2125 -0.8708
14985TIP3    H166446   6.480   6.354   4.243 -0.8363 -0.4231 -1.0336
14985TIP3    H266447   6.544   6.482   4.293  0.7643  0.2508 -4.5229
14986TIP3   OH266448   1.272   3.336  10.326 -0.8376 -0.1668  0.0011
14986TIP3    H166449   1.214   3.267  10.359 -1.5845  0.3593 -0.1957
14986TIP3    H266450   1.343   3.288  10.283 -1.0129 -0.8215  0.4151
14987TIP3   OH266451   5.550   1.214  16.307  0.5485  0.1768  0.1877
14987TIP3    H166452   5.641   1.237  16.288 -0.3502  1.8174 -2.7472
14987TIP3    H266453   5.527   1.267  16.383  1.9835 -0.2602  0.9654
14988TIP3   OH266454   1.848   6.576   3.876 -0.4335  0.0584 -0.1044
14988TIP3    H166455   1.908   6.549   3.807  0.6264 -1.1196  1.1986
14988TIP3    H266456   1.774   6.514   3.868 -0.0253 -0.4770  0.1827
14989TIP3   OH266457   6.149   5.489  12.522 -0.1098 -0.0182 -0.2091
14989TIP3    H166458   6.081   5.551  12.547  0.5501  1.2724 -1.4472
14989TIP3    H266459   6.194   5.468  12.604 -0.6660  0.7662  0.3133
14990TIP3   OH266460   4.794   0.387  12.311  0.1627 -0.2634  0.7895
14990TIP3    H166461   4.760   0.404  12.223  0.6269 -1.6093  0.3336
14990TIP3    H266462   4.889   0.383  12.300  0.1933 -0.9989  1.2324
14991TIP3   OH266463   1.039   6.621   3.329 -0.1347  0.2449 -0.3383
14991TIP3    H166464   0.998   6.697   3.370  0.5123  0.7434 -0.5931
14991TIP3    H266465   1.078   6.572   3.402 -2.1039 -0.8559  0.0523
14992TIP3   OH266466   6.130   4.269  11.127  0.5487 -0.2685  0.2918
14992TIP3    H166467   6.038   4.287  11.146  1.1494  2.0197  1.4816
14992TIP3    H266468   6.146   4.313  11.043  1.2458  2.3861  1.6727
14993TIP3   OH266469   0.144   0.541  16.066 -0.2870 -0.0176  0.0175
14993TIP3    H166470   0.056   0.576  16.074  0.5771  2.0108  1.7161
14993TIP3    H266471   0.176   0.575  15.982 -0.2710  1.4310  0.5860
14994TIP3   OH266472   0.198   4.705  12.032 -0.2173  0.0586 -0.6834
14994TIP3    H166473   0.153   4.647  11.971  0.7152  1.1028 -2.4270
14994TIP3    H266474   0.224   4.648  12.104 -1.0476 -1.2775 -1.3946
14995TIP3   OH266475   1.934   2.933   6.031 -0.1374 -0.5743  0.2584
14995TIP3    H166476   1.982   2.915   6.111 -0.1686  0.0118  0.4185
14995TIP3    H266477   1.983   2.888   5.962  0.1213 -0.7389  0.5482
14996TIP3   OH266478   2.412   4.734  12.225 -0.4305  0.0649  0.4844
14996TIP3    H166479   2.486   4.735  12.164 -0.5349  1.2339  0.3543
14996TIP3    H266480   2.411   4.645  12.260  2.5379  0.6161  2.3126
14997TIP3   OH266481   0.530   4.290  15.001 -1.3544  0.2174 -0.1254
14997TIP3    H166482   0.459   4.237  14.964 -1.9325  0.7485  0.2029
14997TIP3    H266483   0.555   4.349  14.930 -1.7798  0.5636  0.0147
14998TIP3   OH266484   5.250   2.680  14.230  0.0745  0.0574  0.2941
14998TIP3    H166485   5.274   2.740  14.160 -0.7470  0.7353  0.5627
14998TIP3    H266486   5.157   2.698  14.246 -0.0419 -0.8897  0.7764
14999TIP3   OH266487   6.473   6.392   1.271 -0.3072 -0.8821 -0.6085
14999TIP3    H166488   6.564   6.405   1.298 -0.3522 -1.0785 -0.3632
14999TIP3    H266489   6.423   6.449   1.330 -0.2005  0.7182 -1.9654
15000TIP3   OH266490   2.158   4.417  16.465 -0.4833  0.1602  0.4029
15000TIP3    H166491   2.100   4.433  16.390 -0.3771  2.0402  0.6628
15000TIP3    H266492   2.233   4.476  16.450  1.2901 -1.9959  0.2131
15001TIP3   OH266493   4.340   2.303   4.722  0.3199 -0.1276  0.4069
15001TIP3    H166494   4.269   2.346   4.770  0.2482 -0.0908  0.2671
15001TIP3    H266495   4.342   2.346   4.637  0.9166  0.2935  0.6311
15002TIP3   OH266496   5.053   4.605  10.923 -0.7025 -0.1269 -0.4741
15002TIP3    H166497   4.970   4.565  10.896 -1.0126  0.5360 -0.5436
15002TIP3    H266498   5.030   4.696  10.940  0.0594  0.1125 -0.6922
15003TIP3   OH266499   2.997   3.452  15.844 -0.3600  0.3374 -0.1407
15003TIP3    H166500   2.967   3.387  15.781 -1.3008  0.6851 -0.0604
15003TIP3    H266501   2.941   3.440  15.920  1.8676 -1.2656  1.3840
15004TIP3   OH266502   4.095   4.620  11.890 -0.4501  0.0489 -0.2296
15004TIP3    H166503   4.028   4.676  11.929 -0.6202 -0.4039  0.1296
15004TIP3    H266504   4.046   4.553  11.842 -0.3403 -1.5690  1.7791
15005TIP3   OH266505   1.347   2.355   4.295 -0.5473  0.5653  0.5017
15005TIP3    H166506   1.326   2.380   4.205  0.4640 -1.8760 -0.5002
15005TIP3    H266507   1.413   2.419   4.323 -0.3878  0.9739 -0.7494
15006TIP3   OH266508   0.308   1.691   6.496  0.1628 -0.1963  0.4515
15006TIP3    H166509   0.352   1.655   6.419  0.0054  2.7267 -1.1644
15006TIP3    H266510   0.379   1.719   6.553  0.5640  2.6188 -1.2203
15007TIP3   OH266511   4.474   1.501  17.035 -0.2833  0.4684  0.0716
15007TIP3    H166512   4.501   1.447  16.962  1.3988  1.5060 -0.1306
15007TIP3    H266513   4.552   1.551  17.058 -1.6106  2.4418  0.5581
15008TIP3   OH266514   2.209   6.444   3.883  0.8918 -0.7821 -0.6453
15008TIP3    H166515   2.147   6.387   3.839  1.1840 -1.0762 -0.6768
15008TIP3    H266516   2.218   6.520   3.824  2.4561 -1.8549 -1.8923
15009TIP3   OH266517   2.665   1.644  15.039 -0.6074  0.6655 -0.1206
15009TIP3    H166518   2.579   1.682  15.021 -0.2465  1.8203  0.4581
15009TIP3    H266519   2.653   1.593  15.119 -1.0147 -0.1544 -0.6970
15010TIP3   OH266520   3.228   6.461   1.669  0.1739 -0.1896 -0.2826
15010TIP3    H166521   3.267   6.525   1.610  0.1968  0.2916  0.2483
15010TIP3    H266522   3.291   6.452   1.741 -0.0789 -0.4006 -0.0839
15011TIP3   OH266523   4.404   5.478  16.237  0.1081 -0.0763 -0.1640
15011TIP3    H166524   4.326   5.523  16.271 -1.7399 -2.7025 -0.6099
15011TIP3    H266525   4.407   5.395  16.286  3.2722  0.3309  0.5316
15012TIP3   OH266526   0.235   1.695   4.651  0.2056  0.4706 -0.0280
15012TIP3    H166527   0.211   1.612   4.692  0.9336  0.7650  1.0489
15012TIP3    H266528   0.310   1.726   4.703 -0.5317  2.1649  0.0845
15013TIP3   OH266529   6.453   5.907   3.868  0.3105  0.4288  0.2937
15013TIP3    H166530   6.430   5.884   3.958 -0.0553  0.2787  0.1661
15013TIP3    H266531   6.417   5.835   3.816 -1.1315  1.4173 -0.1515
15014TIP3   OH266532   0.772   4.742  13.401  0.0696 -0.3714  0.6375
15014TIP3    H166533   0.747   4.830  13.428 -0.6285 -0.7667  1.3387
15014TIP3    H266534   0.865   4.748  13.381  0.2732  0.2999  1.6926
15015TIP3   OH266535   0.564   5.738  11.313 -0.3862  0.6089  0.0182
15015TIP3    H166536   0.498   5.744  11.244  1.1064 -0.1911 -1.5534
15015TIP3    H266537   0.613   5.658  11.293 -0.2427  0.0451  2.3588
15016TIP3   OH266538   4.416   3.678   2.265 -0.0322  0.3199  0.2882
15016TIP3    H166539   4.355   3.651   2.197  0.8258 -0.3630 -0.2351
15016TIP3    H266540   4.392   3.625   2.341  1.8635 -2.3655 -0.8259
15017TIP3   OH266541   2.726   4.470   2.150  0.2743  0.0891  0.0193
15017TIP3    H166542   2.735   4.544   2.209  0.1550 -0.3915  0.6470
15017TIP3    H266543   2.771   4.398   2.193 -1.7048 -0.8679  0.6236
15018TIP3   OH266544   4.684   4.677   6.510  0.6615  0.7673  0.5795
15018TIP3    H166545   4.751   4.660   6.576 -0.0131 -0.8935  0.8829
15018TIP3    H266546   4.714   4.630   6.433  0.9566  1.9022 -0.0225
15019TIP3   OH266547   1.841   4.286   3.003 -0.4886  0.0564 -0.3652
15019TIP3    H166548   1.773   4.224   3.032 -0.1189 -0.6499 -0.9911
15019TIP3    H266549   1.811   4.371   3.037 -0.8504 -0.4944  0.7739
15020TIP3   OH266550   3.447   1.649   2.797 -0.2667  0.2408 -0.2493
15020TIP3    H166551   3.536   1.620   2.777  0.0011 -0.1011  1.3341
15020TIP3    H266552   3.392   1.572   2.778  0.0949 -0.3912  1.1448
15021TIP3   OH266553   0.336   0.856   0.543 -0.4078 -0.5770  0.7131
15021TIP3    H166554   0.264   0.849   0.481  0.2567 -1.3806  0.0139
15021TIP3    H266555   0.361   0.949   0.541 -0.6381 -0.5298  0.0644
15022TIP3   OH266556   0.816   1.180  16.724 -0.1784 -0.2529  0.1049
15022TIP3    H166557   0.779   1.182  16.636  1.3576 -1.7626 -0.6566
15022TIP3    H266558   0.829   1.087  16.742  0.9647  0.0964  1.2797
15023TIP3   OH266559   5.805   5.860  12.834 -0.0548  0.2921  0.3410
15023TIP3    H166560   5.749   5.851  12.757 -2.2758  1.0508  1.7788
15023TIP3    H266561   5.818   5.770  12.864 -0.1896  0.0810 -0.2125
15024TIP3   OH266562   1.838   3.432  13.874  0.1395 -0.0144  0.2728
15024TIP3    H166563   1.809   3.469  13.957  0.4465 -0.3352  0.5240
15024TIP3    H266564   1.786   3.478  13.808 -0.3500  0.0026  0.6643
15025TIP3   OH266565   3.069   4.400   0.110  0.6267  0.3355  0.1765
15025TIP3    H166566   3.152   4.391   0.156  1.9120 -0.7608 -2.1354
15025TIP3    H266567   3.029   4.313   0.114  0.7270  0.2384 -0.6760
15026TIP3   OH266568   0.333   3.274  12.215  0.4660  0.2596 -0.0477
15026TIP3    H166569   0.263   3.220  12.179  0.7960 -0.6607  0.6556
15026TIP3    H266570   0.409   3.216  12.218  0.8403  0.7727  0.6692
15027TIP3   OH266571   2.807   3.559   4.815  0.5328  0.0146 -0.2935
15027TIP3    H166572   2.766   3.475   4.794  1.0264 -0.4991  0.7107
15027TIP3    H266573   2.867   3.575   4.743 -0.2909  0.0041 -0.9945
15028TIP3   OH266574   0.671   3.313   2.453 -0.0952  0.0701  0.3822
15028TIP3    H166575   0.680   3.330   2.359 -1.0723 -2.9423 -0.3692
15028TIP3    H266576   0.588   3.353   2.477  0.3648  1.2290  0.0715
15029TIP3   OH266577   3.322   4.792   6.429 -0.3940 -0.4410 -0.3614
15029TIP3    H166578   3.370   4.766   6.507  0.6995  0.9098 -0.5513
15029TIP3    H266579   3.230   4.779   6.452 -0.0487 -0.8080  0.8646
15030TIP3   OH266580   2.433   4.309   4.724  0.1782  0.7456 -0.0946
15030TIP3    H166581   2.402   4.327   4.813 -2.1040 -0.7401 -0.5180
15030TIP3    H266582   2.526   4.291   4.734 -0.4716 -1.8790  2.4315
15031TIP3   OH266583   4.354   6.115   3.009 -0.5203 -0.7969 -0.0126
15031TIP3    H166584   4.333   6.077   3.094 -0.6965  0.1678  0.3871
15031TIP3    H266585   4.330   6.047   2.946  0.0149 -1.6902  0.7218
15032TIP3   OH266586   4.533   2.989  15.137  0.4641  0.0144  0.1432
15032TIP3    H166587   4.611   2.989  15.194 -0.1338  0.3383  0.9838
15032TIP3    H266588   4.485   3.067  15.164 -0.2837 -0.3287 -0.1870
15033TIP3   OH266589   0.894   2.857   2.032  0.0691  0.4659 -0.3098
15033TIP3    H166590   0.815   2.846   1.979 -0.8788  0.7617  1.0112
15033TIP3    H266591   0.939   2.773   2.024 -0.4492  0.2309 -0.9380
15034TIP3   OH266592   0.961   4.829  12.432 -0.4730 -0.0830 -0.2187
15034TIP3    H166593   0.919   4.767  12.491 -0.6258 -0.1774 -0.4293
15034TIP3    H266594   1.023   4.877  12.488 -0.1147 -0.6489 -0.1280
15035TIP3   OH266595   5.487   5.093  15.872 -0.5133  0.3875  0.4442
15035TIP3    H166596   5.402   5.096  15.828  0.4185  3.9837 -1.4453
15035TIP3    H266597   5.527   5.011  15.842 -1.2248  1.1624 -2.9407
15036TIP3   OH266598   4.718   5.342  11.272 -0.4655 -0.2994  0.5300
15036TIP3    H166599   4.696   5.263  11.321 -0.2940  0.1396  1.3212
15036TIP3    H266600   4.722   5.313  11.181  1.8651 -1.7301  0.9942
15037TIP3   OH266601   1.648   6.389  15.426 -0.1275  0.4220  0.2538
15037TIP3    H166602   1.684   6.476  15.443 -2.1053  1.3700 -0.1135
15037TIP3    H266603   1.683   6.365  15.340  0.4485  0.8195  0.3696
15038TIP3   OH266604   4.694   1.218   5.363 -0.1551  0.4756  0.1776
15038TIP3    H166605   4.734   1.133   5.350 -2.5306 -0.7687  0.5176
15038TIP3    H266606   4.650   1.211   5.448 -1.5964  1.5263 -0.4430
15039TIP3   OH266607   5.805   5.616   5.361 -0.1361  0.3008 -0.9313
15039TIP3    H166608   5.748   5.569   5.300 -0.9627  2.2313 -1.7384
15039TIP3    H266609   5.774   5.591   5.448 -0.8671 -0.2597 -1.3508
15040TIP3   OH266610   6.317   0.897  15.172 -0.0026  0.7389 -0.8201
15040TIP3    H166611   6.310   0.802  15.181  1.6067  0.5902 -0.8545
15040TIP3    H266612   6.356   0.926  15.254 -2.3170  1.6504  0.0235
15041TIP3   OH266613   1.555   3.755  13.438  0.5913  0.3434  0.1615
15041TIP3    H166614   1.469   3.750  13.396  1.0245  0.9175 -0.8435
15041TIP3    H266615   1.536   3.758  13.531 -0.4077 -0.9675  0.0293
15042TIP3   OH266616   1.166   6.073   5.969 -0.3459  0.0160  0.5544
15042TIP3    H166617   1.188   5.985   5.939  0.3592  0.3756 -0.0051
15042TIP3    H266618   1.089   6.097   5.918  1.0116  0.7436 -1.2771
15043TIP3   OH266619   4.608   0.773   2.211 -0.2144  0.3705  0.2232
15043TIP3    H166620   4.695   0.805   2.190 -0.1796 -0.4144 -0.8853
15043TIP3    H266621   4.610   0.759   2.306  1.2824 -0.8315  0.0460
15044TIP3   OH266622   0.682   5.186  11.386 -0.4358  0.0937 -0.2383
15044TIP3    H166623   0.640   5.214  11.304 -0.7338 -0.3537 -0.2417
15044TIP3    H266624   0.638   5.104  11.408 -0.0328 -0.0236  0.1259
15045TIP3   OH266625   1.189   2.698  14.020  0.1175  0.0199  0.4103
15045TIP3    H166626   1.208   2.654  13.937 -0.3633  0.0952  0.2608
15045TIP3    H266627   1.261   2.672  14.078 -0.2015 -1.0200  0.3452
15046TIP3   OH266628   6.733   4.799  16.398  0.2776 -0.1022 -0.1063
15046TIP3    H166629   6.655   4.843  16.365  0.4727 -0.2270 -0.7306
15046TIP3    H266630   6.799   4.868  16.402  0.8212 -0.4785 -1.8635
15047TIP3   OH266631   4.319   6.061  11.623  0.1125  0.3885  0.5803
15047TIP3    H166632   4.333   6.149  11.588  0.9358  0.6316  1.4693
15047TIP3    H266633   4.224   6.050  11.624  0.0309  0.5630 -1.2052
15048TIP3   OH266634   2.804   2.408  14.984 -0.1019  0.2671 -0.2657
15048TIP3    H166635   2.834   2.375  15.069 -0.1387  1.4893  0.2434
15048TIP3    H266636   2.732   2.468  15.006  1.5461  2.6143 -0.9149
15049TIP3   OH266637   1.078   0.297   4.388  0.0778 -0.1854 -0.7038
15049TIP3    H166638   1.163   0.326   4.355  1.8094 -2.6324  1.2544
15049TIP3    H266639   1.064   0.211   4.347 -3.3490  1.5644 -3.8407
15050TIP3   OH266640   6.500   6.047   4.386 -0.2879  0.1853  0.4343
15050TIP3    H166641   6.442   6.103   4.334 -0.1621 -1.9326 -2.1911
15050TIP3    H266642   6.441   5.998   4.444 -0.5377  1.8052  1.6112
15051TIP3   OH266643   2.279   5.019   1.590  0.2570  0.6751  0.3862
15051TIP3    H166644   2.348   5.009   1.524 -0.7384  1.1323 -0.7615
15051TIP3    H266645   2.310   5.091   1.645  0.8276  0.6924  0.0547
15052TIP3   OH266646   1.721   3.995   5.474  0.3449 -0.3565 -0.1076
15052TIP3    H166647   1.740   4.034   5.559 -0.6630 -1.0307  0.4407
15052TIP3    H266648   1.667   4.060   5.429 -0.6279 -0.7310  0.4802
15053TIP3   OH266649   6.428   2.063   2.218  0.2474 -0.0916  0.8885
15053TIP3    H166650   6.459   2.143   2.261 -1.5950  0.0395  2.0851
15053TIP3    H266651   6.456   2.072   2.127  0.3079  1.7887  1.0622
15054TIP3   OH266652   5.077   5.375  13.966  0.0721  0.1492 -0.1148
15054TIP3    H166653   4.989   5.412  13.972  0.4991  1.1118  0.3926
15054TIP3    H266654   5.124   5.434  13.907  0.1742 -0.8051 -1.0341
15055TIP3   OH266655   6.624   2.440   2.131  0.1814 -0.0674  0.9818
15055TIP3    H166656   6.661   2.506   2.191  0.5853  1.6187 -1.0087
15055TIP3    H266657   6.531   2.460   2.128  0.2868  0.3546  0.4608
15056TIP3   OH266658   2.466   4.865   4.246 -0.5135  0.4440  0.4130
15056TIP3    H166659   2.446   4.837   4.336 -1.0193  0.2833  0.2531
15056TIP3    H266660   2.415   4.806   4.191 -1.4817  1.5811  0.0593
15057TIP3   OH266661   4.815   4.934  13.897 -0.4398  0.3438 -0.2077
15057TIP3    H166662   4.835   4.964  13.809 -0.5394  0.6786 -0.1163
15057TIP3    H266663   4.725   4.963  13.913 -0.8296 -0.6830 -0.4148
15058TIP3   OH266664   4.130   2.640   0.558 -0.3589  0.3661  0.1094
15058TIP3    H166665   4.224   2.649   0.543 -0.1111 -1.8261 -0.0008
15058TIP3    H266666   4.124   2.595   0.642 -1.1477 -2.1892 -1.2163
15059TIP3   OH266667   5.519   4.233   6.295  0.2127 -0.1908  0.2990
15059TIP3    H166668   5.583   4.162   6.301  1.1523  0.6627  0.7245
15059TIP3    H266669   5.434   4.189   6.302  0.4691 -1.8221 -3.8641
15060TIP3   OH266670   0.408   6.055  15.143  0.4328  0.2302  0.2802
15060TIP3    H166671   0.497   6.079  15.115  0.9561 -0.0488  1.6375
15060TIP3    H266672   0.351   6.111  15.090  1.2972 -0.9874 -2.0482
15061TIP3   OH266673   5.385   6.329  14.386  0.2732  0.1377  0.2535
15061TIP3    H166674   5.329   6.286  14.450 -0.0820 -0.6364 -0.5576
15061TIP3    H266675   5.412   6.259  14.327  1.3745  0.6668  0.1051
15062TIP3   OH266676   2.797   5.194  17.211  0.0591  0.7180 -0.1319
15062TIP3    H166677   2.815   5.134  17.138 -0.3131 -0.0326  0.3824
15062TIP3    H266678   2.726   5.153  17.259  0.6302  0.9505  0.9477
15063TIP3   OH266679   5.661   6.275   3.902 -0.6189  0.0492  0.0657
15063TIP3    H166680   5.666   6.360   3.944  1.4513  1.4012 -2.5800
15063TIP3    H266681   5.608   6.289   3.824 -1.2959 -1.4303  0.2140
15064TIP3   OH266682   1.988   1.600  11.682 -0.2745  0.4024  0.1597
15064TIP3    H166683   2.070   1.605  11.731  0.1270 -0.6916 -0.3701
15064TIP3    H266684   1.983   1.509  11.652 -2.1964  0.1763  1.0266
15065TIP3   OH266685   2.927   6.318   4.158 -0.2577  0.2749  0.0386
15065TIP3    H166686   2.941   6.253   4.089  0.1275  0.7590 -0.3387
15065TIP3    H266687   3.007   6.371   4.158 -0.8970  1.2389 -0.1726
15066TIP3   OH266688   4.094   2.734  10.808  0.0880  0.0725  0.6357
15066TIP3    H166689   4.011   2.759  10.767  0.0861  1.7447  1.5767
15066TIP3    H266690   4.115   2.807  10.866  2.4626 -0.0836  0.0736
15067TIP3   OH266691   3.562   4.529  11.194 -0.1591 -0.5894  0.1710
15067TIP3    H166692   3.508   4.562  11.123 -2.3669  2.9507  3.1374
15067TIP3    H266693   3.651   4.556  11.171 -0.4869 -1.1423 -1.9634
15068TIP3   OH266694   0.212   6.422  13.957 -0.2297 -0.2859 -0.1856
15068TIP3    H166695   0.155   6.361  14.004  0.1394 -0.0463  0.5748
15068TIP3    H266696   0.159   6.450  13.882 -1.1132 -0.0930  0.4861
15069TIP3   OH266697   3.351   6.439   6.707 -0.1116  0.2819 -0.4245
15069TIP3    H166698   3.418   6.501   6.679  0.3624 -0.3513 -0.6953
15069TIP3    H266699   3.384   6.404   6.790 -0.6629  0.8285  0.0341
15070TIP3   OH266700   1.929   4.129  17.179  0.0302  0.5285 -0.1650
15070TIP3    H166701   1.996   4.131  17.111  0.6457  0.1818  0.4115
15070TIP3    H266702   1.867   4.197  17.153 -1.2630 -1.4151 -2.5319
15071TIP3   OH266703   1.394   6.371  11.141 -0.5437  0.4076 -0.3868
15071TIP3    H166704   1.458   6.367  11.212 -0.2350  1.0614 -0.6295
15071TIP3    H266705   1.359   6.282  11.136 -2.4977  0.8792  2.3513
15072TIP3   OH266706   6.641   5.229  13.728  0.0229  0.2825  0.4237
15072TIP3    H166707   6.690   5.161  13.774 -2.1244 -1.4178  0.3549
15072TIP3    H266708   6.614   5.188  13.646 -2.3505  0.7513  0.9026
15073TIP3   OH266709   1.726   2.837   5.199 -0.4215  0.1140  0.3198
15073TIP3    H166710   1.753   2.875   5.116 -3.2932  3.1272  0.5623
15073TIP3    H266711   1.799   2.855   5.258  0.5909  0.2356 -0.9306
15074TIP3   OH266712   1.463   4.724   4.903  0.6626 -0.0313  0.1879
15074TIP3    H166713   1.397   4.736   4.835  0.7239 -1.4221 -0.1609
15074TIP3    H266714   1.418   4.740   4.985  0.1117 -0.1377 -0.0921
15075TIP3   OH266715   5.666   2.950   4.178  0.7501 -0.3993 -0.5877
15075TIP3    H166716   5.627   2.987   4.099  1.8707  0.1111 -0.9067
15075TIP3    H266717   5.592   2.909   4.224 -0.2166  0.7967 -1.0402
15076TIP3   OH266718   3.504   5.633  13.470 -0.0767  0.3599  0.5301
15076TIP3    H166719   3.544   5.556  13.510  0.8447  0.8869  0.6366
15076TIP3    H266720   3.521   5.704  13.531 -2.2549  0.3945  1.1939
15077TIP3   OH266721   4.407   4.504  11.796 -0.1269  0.4375 -0.6294
15077TIP3    H166722   4.406   4.455  11.878  0.6401  0.1819 -0.7601
15077TIP3    H266723   4.315   4.518  11.774 -0.4027 -1.8718 -1.1490
15078TIP3   OH266724   0.354   5.090   2.597  0.3104  0.0157 -0.2460
15078TIP3    H166725   0.260   5.103   2.583  0.2339 -0.7008 -0.4498
15078TIP3    H266726   0.363   4.995   2.609  0.9213  0.1506  0.4377
15079TIP3   OH266727   2.220   5.137   3.862  0.4239  0.0265 -0.2648
15079TIP3    H166728   2.135   5.180   3.850  0.1904 -0.0163  1.0968
15079TIP3    H266729   2.279   5.206   3.892  0.4524 -0.2553  0.3546
15080TIP3   OH266730   2.028   3.180  16.113 -0.3418 -0.2139 -0.3567
15080TIP3    H166731   1.993   3.117  16.176 -0.5817 -0.0434 -0.3173
15080TIP3    H266732   2.035   3.261  16.162  1.0027 -0.4617 -0.1018
15081TIP3   OH266733   0.474   1.626   3.465  0.2615 -0.1902 -0.3967
15081TIP3    H166734   0.457   1.629   3.371  2.9839 -1.5279 -1.0333
15081TIP3    H266735   0.540   1.557   3.476 -0.2126 -0.3264  2.5564
15082TIP3   OH266736   2.622   4.970   1.432  0.1119  0.4519  0.1086
15082TIP3    H166737   2.609   4.884   1.472  0.1743  0.4017  0.0221
15082TIP3    H266738   2.718   4.978   1.424  0.1534  0.8924  0.9171
15083TIP3   OH266739   2.437   6.460  11.122  0.1964 -0.5431 -0.0115
15083TIP3    H166740   2.505   6.395  11.140  0.4300  0.2583  2.3035
15083TIP3    H266741   2.355   6.411  11.131  0.4008 -0.9654 -0.3719
15084TIP3   OH266742   0.286   3.360   0.036  0.1709  0.8166 -0.1299
15084TIP3    H166743   0.297   3.429   0.101  1.8057 -0.2736  0.8170
15084TIP3    H266744   0.193   3.336   0.041  0.3365  0.4645  2.1429
15085TIP3   OH266745   3.002   6.182   2.337 -0.1150 -0.1196  0.3379
15085TIP3    H166746   3.020   6.259   2.391 -0.8929  1.1649 -1.1482
15085TIP3    H266747   3.065   6.188   2.265 -1.7514  0.5530 -1.1233
15086TIP3   OH266748   0.774   6.458   4.040 -0.6462  0.0709  0.3226
15086TIP3    H166749   0.725   6.540   4.050  0.9743  1.3960 -1.6428
15086TIP3    H266750   0.773   6.441   3.946 -0.0790 -1.6346  0.5881
15087TIP3   OH266751   6.635   3.924  11.694 -0.3484  0.1772 -0.0872
15087TIP3    H166752   6.558   3.980  11.683 -0.9299  0.4472  3.7872
15087TIP3    H266753   6.709   3.985  11.698 -0.5240  0.3550  0.5566
15088TIP3   OH266754   2.016   5.924  14.168  0.3979 -0.2454 -0.1027
15088TIP3    H166755   2.084   5.865  14.199  0.2358  1.1896  3.3979
15088TIP3    H266756   2.016   5.912  14.073  4.3465 -1.4943 -0.1211
15089TIP3   OH266757   1.464   1.401  11.615 -0.2747  0.0565 -0.0707
15089TIP3    H166758   1.557   1.388  11.601 -0.1894 -0.6030  1.0704
15089TIP3    H266759   1.443   1.480  11.564  1.4542  1.8286  1.7806
15090TIP3   OH266760   0.967   2.406   3.503 -0.2494 -0.2233 -0.2646
15090TIP3    H166761   0.957   2.350   3.580 -0.0525  1.9016  1.3752
15090TIP3    H266762   1.040   2.367   3.455 -0.0074 -1.2819  0.9007
15091TIP3   OH266763   3.896   5.738  11.722 -0.3303  0.0130 -0.2646
15091TIP3    H166764   3.963   5.691  11.771  0.3728  0.8986 -0.3468
15091TIP3    H266765   3.933   5.750  11.635 -0.1672  1.3658 -0.0315
15092TIP3   OH266766   2.764   6.500   0.421  0.6093 -0.0782  0.6000
15092TIP3    H166767   2.784   6.592   0.403 -0.6042  0.2622  0.8780
15092TIP3    H266768   2.771   6.457   0.336 -2.9393  1.1043 -0.4682
15093TIP3   OH266769   1.973   6.542  12.182 -0.4236  0.2761  0.4015
15093TIP3    H166770   1.984   6.596  12.104 -0.6090 -0.7218 -0.3236
15093TIP3    H266771   1.892   6.573  12.221  0.3363  1.6773  0.9439
15094TIP3   OH266772   3.604   4.407   6.769  0.0846 -0.7706 -0.2984
15094TIP3    H166773   3.692   4.409   6.731 -0.5029 -0.5386 -1.7141
15094TIP3    H266774   3.614   4.361   6.852  1.4959 -0.9812 -0.5713
15095TIP3   OH266775   2.740   4.873  16.428  0.2327  0.0818  0.6000
15095TIP3    H166776   2.686   4.912  16.359 -0.8087 -1.2719  0.5861
15095TIP3    H266777   2.726   4.930  16.504 -2.3764 -0.9213  0.9886
15096TIP3   OH266778   2.142   4.993  14.774 -0.3495  0.3871 -0.0285
15096TIP3    H166779   2.213   5.006  14.837 -1.8708  0.9431  1.6678
15096TIP3    H266780   2.175   5.030  14.692  0.5091  2.6990  1.2656
15097TIP3   OH266781   5.210   1.513   0.502 -1.8022  0.3959 -0.4098
15097TIP3    H166782   5.226   1.562   0.422 -3.5122 -0.4341 -1.3090
15097TIP3    H266783   5.297   1.482   0.529 -1.3196 -0.3765 -2.6605
15098TIP3   OH266784   3.934   1.140  14.888  0.0756  0.3405  0.0193
15098TIP3    H166785   3.896   1.052  14.887 -0.6255  0.6092 -1.7312
15098TIP3    H266786   3.890   1.184  14.961 -0.8150 -0.2718 -0.1231
15099TIP3   OH266787   4.103   6.215   0.032 -0.6485 -0.2021  0.9223
15099TIP3    H166788   4.183   6.250   0.073 -0.9788  0.1800  1.2438
15099TIP3    H266789   4.073   6.148   0.093  0.1175 -1.2549  0.1925
15100TIP3   OH266790   1.302   5.918  16.616  0.2876  0.2095 -0.2773
15100TIP3    H166791   1.329   5.851  16.553 -1.3897  0.0607 -0.9081
15100TIP3    H266792   1.337   5.890  16.699 -0.1150 -1.3092 -0.5970
15101TIP3   OH266793   2.755   4.272   3.341 -0.4768  0.4316 -0.0953
15101TIP3    H166794   2.706   4.269   3.259  0.4872 -0.4765 -0.6696
15101TIP3    H266795   2.696   4.314   3.403 -0.7571  2.3321 -1.5637
15102TIP3   OH266796   5.269   1.122   4.680 -0.5546 -0.5321 -0.1885
15102TIP3    H166797   5.235   1.151   4.765  0.6273  1.4379 -0.3289
15102TIP3    H266798   5.202   1.147   4.617 -0.0959  0.8637 -0.1561
15103TIP3   OH266799   3.947   2.132   0.502 -0.2915  0.1351  0.5185
15103TIP3    H166800   3.999   2.184   0.440 -0.3281 -1.3942 -0.8810
15103TIP3    H266801   4.001   2.129   0.581  0.2663  1.2539  0.2108
15104TIP3   OH266802   3.178   5.281  13.000  0.5700  0.2114  0.1242
15104TIP3    H166803   3.151   5.217  13.065  0.3046 -0.8708 -1.0227
15104TIP3    H266804   3.180   5.364  13.048 -2.7361  0.0266  0.7877
15105TIP3   OH266805   5.169   4.868   2.356  0.1357 -0.8600  0.6423
15105TIP3    H166806   5.264   4.867   2.343  0.1310  0.5844  0.3448
15105TIP3    H266807   5.133   4.860   2.267 -0.0640 -2.3570  0.8229
15106TIP3   OH266808   6.666   1.628   3.374 -0.1665  0.1108  0.2560
15106TIP3    H166809   6.572   1.645   3.380 -0.8787 -2.9460 -0.4694
15106TIP3    H266810   6.678   1.545   3.421  2.0151 -0.0321 -0.4432
15107TIP3   OH266811   3.587   3.800  11.789  0.4865 -0.5389  0.0036
15107TIP3    H166812   3.528   3.873  11.774 -0.1905 -1.0814 -0.0281
15107TIP3    H266813   3.569   3.773  11.879 -0.2185 -1.4909 -0.4038
15108TIP3   OH266814   6.527   5.346  12.971 -0.0927  0.3013 -0.3232
15108TIP3    H166815   6.591   5.417  12.964  0.7441 -0.3839  0.1259
15108TIP3    H266816   6.458   5.370  12.910 -0.4237  2.0970  0.6876
15109TIP3   OH266817   1.568   0.170   1.240  0.0506 -0.4513  0.3712
15109TIP3    H166818   1.530   0.082   1.236  1.4712 -1.0472 -0.7921
15109TIP3    H266819   1.648   0.158   1.291  0.2424  0.1863  0.2150
15110TIP3   OH266820   4.931   4.667  12.002  0.4631  0.0471  0.2606
15110TIP3    H166821   4.939   4.699  11.912 -0.7513 -0.2440  0.0287
15110TIP3    H266822   4.973   4.734  12.055  0.1569  0.8082 -0.4290
15111TIP3   OH266823   6.285   3.403  15.069  0.3368 -0.1556 -0.3010
15111TIP3    H166824   6.259   3.342  15.001 -0.3876  0.6254 -0.7428
15111TIP3    H266825   6.234   3.378  15.146 -1.8300  1.3433 -1.1465
15112TIP3   OH266826   2.282   3.602   0.351 -0.4077  0.5724 -0.4239
15112TIP3    H166827   2.233   3.543   0.408  0.6868 -0.8152 -0.8494
15112TIP3    H266828   2.237   3.596   0.267  0.3979 -0.6592 -0.8005
15113TIP3   OH266829   6.570   3.069  16.567  0.0289 -0.3122  0.0815
15113TIP3    H166830   6.613   3.141  16.614  0.0862 -1.6111  2.1382
15113TIP3    H266831   6.477   3.077  16.589 -0.1007 -0.3245 -0.4484
15114TIP3   OH266832   4.041   5.972  12.141  0.1406 -0.7201 -0.3493
15114TIP3    H166833   4.015   5.909  12.074  0.0198  0.3970 -1.3687
15114TIP3    H266834   4.054   6.054  12.094 -0.1202  0.1349  1.0151
15115TIP3   OH266835   4.894   3.548  16.913 -0.7419  0.0146 -0.3653
15115TIP3    H166836   4.957   3.579  16.979 -1.0672  0.2661 -0.1680
15115TIP3    H266837   4.833   3.495  16.963 -0.4454 -0.5805 -0.6285
15116TIP3   OH266838   0.730   3.455   0.008 -0.2650 -0.2252 -0.0486
15116TIP3    H166839   0.806   3.452   0.066 -0.4928 -1.6323  0.2277
15116TIP3    H266840   0.758   3.405  -0.069 -0.3753  0.6095 -0.6437
15117TIP3   OH266841   3.857   1.381  11.630  0.2423  0.1818 -0.3976
15117TIP3    H166842   3.929   1.420  11.679  2.6077 -1.9207 -1.9242
15117TIP3    H266843   3.900   1.340  11.554 -2.7184 -0.3158 -1.9396
15118TIP3   OH266844   3.389   2.463  14.686  0.2524 -0.1597 -0.5824
15118TIP3    H166845   3.442   2.541  14.700 -0.6851  0.3860 -0.0049
15118TIP3    H266846   3.343   2.450  14.768 -1.0896 -0.1788 -1.3163
15119TIP3   OH266847   3.275   6.159  15.289 -0.7968 -0.1864 -0.4419
15119TIP3    H166848   3.234   6.177  15.374  1.7026 -1.7301  1.2065
15119TIP3    H266849   3.366   6.185  15.300  0.1271 -2.5327 -1.8778
15120TIP3   OH266850   0.209   2.808  10.268 -0.1987 -0.0329 -0.0257
15120TIP3    H166851   0.149   2.759  10.211  0.4417 -0.3456 -0.4455
15120TIP3    H266852   0.180   2.787  10.357 -1.6883  1.0677 -0.2220
15121TIP3   OH266853   6.387   6.067  12.705 -0.1587  0.6383 -0.0340
15121TIP3    H166854   6.480   6.090  12.705 -0.0856  0.3675  0.4396
15121TIP3    H266855   6.371   6.037  12.795 -0.7528  0.8875 -0.0603
15122TIP3   OH266856   6.546   4.932   2.728  0.1847  0.2743 -0.2819
15122TIP3    H166857   6.638   4.936   2.751  0.4450  1.6840 -1.4248
15122TIP3    H266858   6.545   4.895   2.639 -0.3326  0.4201 -0.3417
15123TIP3   OH266859   1.146   2.632   0.814 -0.0908  0.3200 -0.4274
15123TIP3    H166860   1.220   2.657   0.869 -0.7629  0.4114  0.4689
15123TIP3    H266861   1.069   2.660   0.864 -0.7301  0.3120 -1.3753
15124TIP3   OH266862   1.512   1.209   4.135  0.2752 -0.1275  0.0314
15124TIP3    H166863   1.579   1.252   4.083  1.3935 -0.1499  1.3875
15124TIP3    H266864   1.560   1.142   4.184 -0.5153  0.5666  1.8438
15125TIP3   OH266865   2.401   6.475  12.017 -0.1930  0.0411  0.5159
15125TIP3    H166866   2.415   6.568  11.997 -0.6737 -0.0469 -0.2598
15125TIP3    H266867   2.327   6.475  12.078 -0.5472  0.1347  0.0882
15126TIP3   OH266868   3.011   3.247   2.778 -0.5160  0.4300 -0.1141
15126TIP3    H166869   2.954   3.242   2.702 -0.8725  3.9764 -0.2276
15126TIP3    H266870   2.952   3.243   2.853 -0.5738  0.8687 -0.1365
15127TIP3   OH266871   6.654   1.477   3.048 -0.1633 -0.4524 -0.1139
15127TIP3    H166872   6.587   1.415   3.076 -1.7331  0.1391 -2.2366
15127TIP3    H266873   6.737   1.431   3.059 -1.1310 -2.1863  0.1942
15128TIP3   OH266874   5.857   1.371  11.677  0.5530  0.5467 -0.0811
15128TIP3    H166875   5.938   1.332  11.645  0.2038 -1.0997  0.9536
15128TIP3    H266876   5.877   1.398  11.766  0.4262  1.6750 -0.3739
15129TIP3   OH266877   6.431   3.199   6.141  0.2574 -0.0820  0.1343
15129TIP3    H166878   6.499   3.208   6.075  0.6175  0.4713  0.5725
15129TIP3    H266879   6.469   3.236   6.221 -0.2351 -0.5686  0.6083
15130TIP3   OH266880   4.116   2.082   4.476 -0.4953  0.0364 -0.5081
15130TIP3    H166881   4.174   2.139   4.425 -1.1243 -0.5242 -1.9195
15130TIP3    H266882   4.172   2.008   4.503  0.7294  1.9200  2.6507
15131TIP3   OH266883   5.655   6.201   1.973 -0.3917 -0.2598  0.2470
15131TIP3    H166884   5.654   6.292   2.002  1.1604  0.1483 -0.9149
15131TIP3    H266885   5.740   6.167   2.000  1.5030  0.3514 -4.2038
15132TIP3   OH266886   0.164   4.421  14.755  0.3525  0.1060  0.0354
15132TIP3    H166887   0.201   4.467  14.830 -0.6277 -0.9653  1.2124
15132TIP3    H266888   0.093   4.368  14.791  0.2196 -0.8803 -1.5552
15133TIP3   OH266889   3.775   4.845   1.490 -0.5531 -0.3944  0.5787
15133TIP3    H166890   3.823   4.762   1.485 -0.6535 -0.4291  0.1487
15133TIP3    H266891   3.690   4.821   1.527 -0.3095 -0.3620  1.1698
15134TIP3   OH266892   5.728   2.263   1.835  0.0454 -0.2103  0.2997
15134TIP3    H166893   5.700   2.271   1.744  1.6447  0.7304 -0.1452
15134TIP3    H266894   5.696   2.342   1.878  1.4001  0.5579 -0.0599
15135TIP3   OH266895   1.230   6.514  13.284 -0.0798 -0.0206 -0.3534
15135TIP3    H166896   1.252   6.543  13.195  0.3456 -1.3636 -0.7230
15135TIP3    H266897   1.183   6.587  13.323  0.2621  0.8260 -1.4813
15136TIP3   OH266898   4.215   1.885   3.619  0.5194 -0.4298  0.7824
15136TIP3    H166899   4.192   1.894   3.712  0.7497 -2.4250  1.0643
15136TIP3    H266900   4.309   1.898   3.616  0.4738 -0.0832  0.7712
15137TIP3   OH266901   4.588   0.312   4.923  0.3067  0.0317 -0.5527
15137TIP3    H166902   4.564   0.376   4.856  0.5012  1.4836  0.7129
15137TIP3    H266903   4.669   0.272   4.890  2.5860  3.4188  0.4015
15138TIP3   OH266904   1.168   5.428   0.610 -0.2220  0.3608 -0.3853
15138TIP3    H166905   1.106   5.500   0.594  0.5587  1.5286  1.4633
15138TIP3    H266906   1.121   5.369   0.670  0.1089  0.7989  0.3214
15139TIP3   OH266907   5.264   3.728  13.056  0.5410  0.0275  0.0570
15139TIP3    H166908   5.213   3.651  13.031  2.7520 -1.6821  0.4925
15139TIP3    H266909   5.297   3.708  13.144  1.8201  1.1013 -0.1414
15140TIP3   OH266910   0.166   2.591  11.066 -0.3794 -0.4661  0.7803
15140TIP3    H166911   0.101   2.605  10.996  0.3469  0.4858  0.2679
15140TIP3    H266912   0.250   2.597  11.021  0.1330  1.0210  1.8484
15141TIP3   OH266913   2.644   6.720  13.385  0.2400 -0.6230 -0.2320
15141TIP3    H166914   2.681   6.742  13.299  0.9261 -0.6352  0.0577
15141TIP3    H266915   2.669   6.629  13.398  1.5850 -0.1354  0.7224
15142TIP3   OH266916   5.958   2.685  14.616  0.3529 -0.0043  0.2301
15142TIP3    H166917   5.906   2.691  14.535  0.4857  0.4804  0.1749
15142TIP3    H266918   5.943   2.596  14.648  0.6181 -0.3415 -0.5431
15143TIP3   OH266919   5.004   0.088  12.115  0.2083  0.0386 -0.0521
15143TIP3    H166920   5.028   0.078  12.023  1.6863 -2.4459  0.5098
15143TIP3    H266921   5.076   0.047  12.163 -1.9494 -1.4993  2.0819
15144TIP3   OH266922   0.984   4.502  12.210 -0.1038  0.5343 -0.3033
15144TIP3    H166923   1.061   4.544  12.171  0.8533 -0.7916  0.0846
15144TIP3    H266924   0.918   4.571  12.212  1.0272  1.6838 -0.7698
15145TIP3   OH266925   5.650   2.053   4.837 -0.2138 -0.2359  0.1087
15145TIP3    H166926   5.724   2.114   4.835  1.3677 -1.9046  2.8325
15145TIP3    H266927   5.685   1.971   4.802 -1.0252 -0.7961  0.5806
15146TIP3   OH266928   1.698   1.391  15.012  0.2664  0.0662 -0.1957
15146TIP3    H166929   1.654   1.307  15.003  0.1036  0.3987 -3.6108
15146TIP3    H266930   1.783   1.369  15.051 -0.2494 -1.5000  0.1195
15147TIP3   OH266931   0.364   1.150  16.032 -0.0608  0.1979 -0.0313
15147TIP3    H166932   0.417   1.154  15.953 -1.4844 -1.1892 -1.1332
15147TIP3    H266933   0.284   1.198  16.011 -0.3459  0.0435  0.6570
15148TIP3   OH266934   3.587   5.810   2.318 -0.5405  0.1506 -0.0313
15148TIP3    H166935   3.596   5.730   2.268  0.5617 -0.2084  0.7102
15148TIP3    H266936   3.607   5.880   2.256  0.1998 -0.2548 -0.2589
15149TIP3   OH266937   3.423   4.820  13.654  0.3133  0.0360  0.3755
15149TIP3    H166938   3.448   4.810  13.562 -0.5145 -2.4667  0.3295
15149TIP3    H266939   3.330   4.795  13.656  0.4760 -0.5358  1.9552
15150TIP3   OH266940   2.774   6.567   3.700 -0.8466 -0.1019  0.0398
15150TIP3    H166941   2.774   6.549   3.606 -0.6487  0.0883  0.0007
15150TIP3    H266942   2.686   6.546   3.729 -1.2403  0.8803 -0.3940
15151TIP3   OH266943   6.060   4.716   0.328 -0.3278  0.9225 -0.2252
15151TIP3    H166944   5.977   4.703   0.282 -0.0023 -0.5204 -0.4618
15151TIP3    H266945   6.036   4.719   0.420 -0.5088 -1.4513 -0.1270
15152TIP3   OH266946   0.082   5.726   4.597 -0.1135 -0.0396 -0.9605
15152TIP3    H166947   0.018   5.695   4.533 -0.6915 -2.3624  0.6216
15152TIP3    H266948   0.031   5.744   4.675  1.0502 -1.4404  0.1803
15153TIP3   OH266949   6.370   1.507  13.672  0.4899  0.5091 -0.5625
15153TIP3    H166950   6.365   1.412  13.658 -0.5540  0.5359 -0.4233
15153TIP3    H266951   6.359   1.545  13.585 -0.8038  0.5391 -0.3971
15154TIP3   OH266952   6.525   0.870   2.515  0.1955  0.0573 -0.4351
15154TIP3    H166953   6.546   0.778   2.503  0.3547 -0.0013  0.2608
15154TIP3    H266954   6.483   0.896   2.433  1.1844 -0.3324 -1.0795
15155TIP3   OH266955   0.255   2.177  11.755  0.3358 -0.3074 -0.4053
15155TIP3    H166956   0.306   2.257  11.746 -0.3385 -0.0621 -2.7531
15155TIP3    H266957   0.170   2.199  11.716 -0.9833 -1.2420  1.7476
15156TIP3   OH266958   3.667   1.247  13.957  0.4223 -1.3684  0.0441
15156TIP3    H166959   3.740   1.263  14.017  0.5664 -0.6863 -0.2925
15156TIP3    H266960   3.691   1.296  13.878 -0.6047 -0.7701  0.0931
15157TIP3   OH266961   2.716   3.527  16.604  0.0118 -0.1067 -0.0497
15157TIP3    H166962   2.709   3.442  16.647 -1.0935 -0.7439 -1.4063
15157TIP3    H266963   2.791   3.517  16.545 -1.3250 -0.8963 -1.7067
15158TIP3   OH266964   1.382   2.493  14.176  0.2383 -0.2944 -0.0499
15158TIP3    H166965   1.424   2.502  14.262  0.2496  0.2798 -0.1114
15158TIP3    H266966   1.342   2.406  14.177  0.7678 -0.5371  0.3038
15159TIP3   OH266967   0.594   5.397   5.691 -0.2456  0.1491 -0.1639
15159TIP3    H166968   0.642   5.397   5.774 -1.8894  0.0311  0.8393
15159TIP3    H266969   0.583   5.490   5.670 -1.5706  0.2464  0.8477
15160TIP3   OH266970   3.289   5.728  17.008  0.3712 -0.4208  0.7944
15160TIP3    H166971   3.324   5.789  16.943 -1.3261  0.4544  0.6456
15160TIP3    H266972   3.365   5.679  17.038  1.4937  0.4767 -0.4554
15161TIP3   OH266973   2.487   3.628  16.350 -0.4163  0.0942  0.2072
15161TIP3    H166974   2.479   3.678  16.430 -0.5330 -0.4765  0.5609
15161TIP3    H266975   2.431   3.552  16.363  0.1864 -0.4145 -0.0859
15162TIP3   OH266976   5.474   4.217  13.614 -0.0127  1.1029 -0.1347
15162TIP3    H166977   5.511   4.183  13.533 -1.0788  0.3082 -0.3139
15162TIP3    H266978   5.534   4.187  13.682 -0.0554  0.2458 -0.4632
15163TIP3   OH266979   0.323   3.885  13.849 -0.0667  0.1331  0.4913
15163TIP3    H166980   0.390   3.930  13.797  1.1438 -2.9264 -0.8383
15163TIP3    H266981   0.327   3.794  13.819 -2.9334 -0.7339  2.3839
15164TIP3   OH266982   6.261   2.736   3.179 -0.2523  0.1785  0.1779
15164TIP3    H166983   6.292   2.708   3.092  0.9222 -0.7605  0.8695
15164TIP3    H266984   6.317   2.689   3.241  0.9043  3.0260  1.4650
15165TIP3   OH266985   0.536   4.261  13.233 -0.8522  0.2260 -0.5088
15165TIP3    H166986   0.482   4.266  13.312 -1.8536  2.9769 -1.2666
15165TIP3    H266987   0.504   4.182  13.188 -0.2299 -1.4243  1.7628
15166TIP3   OH266988   6.244   4.081   0.017 -0.0818  0.0313  0.1598
15166TIP3    H166989   6.284   4.160  -0.020 -1.6857  0.2188 -1.3097
15166TIP3    H266990   6.212   4.033  -0.060 -2.9473  0.0750  1.2094
15167TIP3   OH266991   0.417   6.695  13.448 -0.2230  0.0106  0.7219
15167TIP3    H166992   0.448   6.783  13.470  1.2142 -0.1401 -0.5530
15167TIP3    H266993   0.497   6.642  13.446 -0.6168 -0.5918 -1.8565
15168TIP3   OH266994   3.838   5.102  12.564  0.3029 -0.4367  0.7867
15168TIP3    H166995   3.893   5.175  12.539 -1.0128  0.5770  0.7557
15168TIP3    H266996   3.749   5.138  12.566 -0.4114 -2.0868  0.5041
15169TIP3   OH266997   6.032   4.125  16.031  0.0836 -0.1016 -0.3850
15169TIP3    H166998   6.112   4.143  15.982 -0.5671  0.3873 -1.2966
15169TIP3    H266999   6.005   4.210  16.065  0.0414 -0.2946  0.0715
15170TIP3   OH267000   0.368   1.694  16.515 -0.1235  0.0898 -0.3200
15170TIP3    H167001   0.287   1.646  16.535  0.9792 -3.1339 -2.6878
15170TIP3    H267002   0.414   1.699  16.598 -1.7658  0.0013  0.6409
15171TIP3   OH267003   0.592   4.895  15.308  0.2053 -0.6606  0.0100
15171TIP3    H167004   0.548   4.872  15.226 -1.0267 -0.7589  0.6679
15171TIP3    H267005   0.568   4.825  15.368 -0.8743  0.5996  1.1078
15172TIP3   OH267006   4.209   5.676   3.455  0.2887  0.8565 -0.2808
15172TIP3    H167007   4.203   5.645   3.365 -3.1649  0.4380 -0.0290
15172TIP3    H267008   4.216   5.597   3.508  3.2748  1.1265 -0.1209
15173TIP3   OH267009   5.649   3.820  15.423 -0.6127 -0.3837  0.3338
15173TIP3    H167010   5.678   3.818  15.514 -0.7549 -2.8726  0.3925
15173TIP3    H267011   5.725   3.849  15.373 -0.1455 -0.2615  1.1119
15174TIP3   OH267012   5.465   2.816   0.198 -0.1548 -0.0575 -0.1600
15174TIP3    H167013   5.509   2.894   0.164  0.1614  0.1380  0.6716
15174TIP3    H267014   5.532   2.770   0.247 -0.6148 -0.2969  0.2534
15175TIP3   OH267015   4.758   5.368  17.117  0.2861  0.7000  0.5122
15175TIP3    H167016   4.842   5.414  17.129  0.1236  0.9733  0.6052
15175TIP3    H267017   4.722   5.361  17.206  0.5243 -0.0273  0.5620
15176TIP3   OH267018   6.780   2.881  11.396 -0.9473 -0.1034 -0.5397
15176TIP3    H167019   6.718   2.909  11.329 -1.8433  1.2242  0.7848
15176TIP3    H267020   6.725   2.846  11.466 -0.5122  3.2085  1.6898
15177TIP3   OH267021   4.703   5.114  17.011 -0.3144  0.1966  0.5112
15177TIP3    H167022   4.755   5.171  17.069  1.7808 -0.6468 -0.4188
15177TIP3    H267023   4.666   5.173  16.946  0.4817  0.6960  0.4975
15178TIP3   OH267024   4.277   4.291  12.209 -0.6317 -0.0697 -1.1702
15178TIP3    H167025   4.255   4.199  12.221 -0.2629 -0.0671 -0.4041
15178TIP3    H267026   4.269   4.306  12.115  0.4431 -1.1805 -1.4695
15179TIP3   OH267027   2.815   0.649   2.291  0.4217 -0.2151 -0.2439
15179TIP3    H167028   2.824   0.730   2.240 -0.7688 -0.5198 -0.9701
15179TIP3    H267029   2.904   0.615   2.298  0.9766  1.2621  0.2578
15180TIP3   OH267030   0.178   3.177   5.385  0.2444  0.2838 -0.1626
15180TIP3    H167031   0.101   3.226   5.355 -1.6186 -2.8465 -0.9258
15180TIP3    H267032   0.188   3.106   5.321  2.4636 -0.6819  1.1339
15181TIP3   OH267033   5.179   0.845  16.025  0.7134 -0.0788  0.1096
15181TIP3    H167034   5.269   0.849  15.990  0.6256 -1.4483 -0.3041
15181TIP3    H267035   5.138   0.925  15.992  1.9933  0.9752  0.9595
15182TIP3   OH267036   4.759   1.913  15.358  0.3081 -0.2467 -0.4954
15182TIP3    H167037   4.738   1.844  15.294 -0.4455  0.2167 -0.7703
15182TIP3    H267038   4.674   1.954  15.376  0.4871 -0.4911  0.9616
15183TIP3   OH267039   2.215   1.867  13.856  0.1364 -0.5419  0.2196
15183TIP3    H167040   2.290   1.828  13.902  0.9315 -0.2158 -0.7737
15183TIP3    H267041   2.223   1.835  13.766 -1.6903 -1.5957  0.3792
15184TIP3   OH267042   2.446   4.547  14.236 -0.4840  0.4740 -0.3474
15184TIP3    H167043   2.378   4.607  14.266 -0.0521  0.2170  1.2489
15184TIP3    H267044   2.442   4.551  14.140 -4.3857 -1.3577 -0.4262
15185TIP3   OH267045   6.004   2.417  16.476 -0.1953  0.4284 -0.1813
15185TIP3    H167046   5.910   2.415  16.456 -0.2191 -0.6109 -0.0280
15185TIP3    H267047   6.014   2.353  16.547  0.7508 -0.0269 -0.7178
15186TIP3   OH267048   4.409   1.100  15.943 -0.2856 -0.5187  0.2401
15186TIP3    H167049   4.403   1.127  16.034  0.7249  0.0958  0.1376
15186TIP3    H267050   4.424   1.006  15.946  0.4177 -0.3921  0.7242
15187TIP3   OH267051   4.529   1.242   6.569 -0.0437  0.2803  0.1618
15187TIP3    H167052   4.516   1.328   6.529  0.9831 -0.3308 -1.5985
15187TIP3    H267053   4.604   1.254   6.628 -0.0527  0.6500  0.0973
15188TIP3   OH267054   6.815   0.970   3.980 -0.0622  0.2164  0.3359
15188TIP3    H167055   6.779   0.890   4.019  1.4793  1.3138  4.5552
15188TIP3    H267056   6.744   1.034   3.985 -0.0453  0.1969  0.8021
15189TIP3   OH267057   2.748   6.512   2.749  0.6822 -0.2297  0.3553
15189TIP3    H167058   2.720   6.590   2.797 -0.0350 -1.0152  1.2381
15189TIP3    H267059   2.793   6.547   2.672 -0.8786  1.0841 -0.0143
15190TIP3   OH267060   2.295   0.025  15.337 -0.0405 -0.1683 -0.3636
15190TIP3    H167061   2.224   0.025  15.273 -1.1480 -1.3029  0.7963
15190TIP3    H267062   2.251   0.044  15.420  1.0208 -0.8983  0.3880
15191TIP3   OH267063   2.910   0.731  15.864 -0.4736  0.6455 -0.1809
15191TIP3    H167064   2.881   0.808  15.816 -1.2550  0.7664  0.4655
15191TIP3    H267065   2.933   0.764  15.951  1.1580  0.4693 -0.4996
15192TIP3   OH267066   0.498   1.677  13.117 -0.2123 -0.2712  0.3914
15192TIP3    H167067   0.466   1.713  13.034 -0.7391  0.7499  1.0161
15192TIP3    H267068   0.588   1.712  13.125  0.4767 -1.7544 -0.5444
15193TIP3   OH267069   1.162   2.804  17.200  0.3415 -0.2882 -0.2351
15193TIP3    H167070   1.186   2.766  17.115 -1.1338 -1.6776 -0.0793
15193TIP3    H267071   1.206   2.747  17.264  0.1795 -0.2046 -0.0491
15194TIP3   OH267072   5.656   3.221   5.652 -0.0781 -0.5947  0.1734
15194TIP3    H167073   5.655   3.257   5.564  0.6854 -2.3255 -0.5810
15194TIP3    H267074   5.747   3.227   5.680 -0.1286 -1.0029  0.4389
15195TIP3   OH267075   0.704   1.210   2.942  0.6479  0.0979  0.1078
15195TIP3    H167076   0.740   1.294   2.914  1.8463  0.1418  1.6648
15195TIP3    H267077   0.708   1.213   3.038 -0.3252 -1.2974  0.2196
15196TIP3   OH267078   6.100   0.797  15.702 -0.2459 -0.3317 -0.2817
15196TIP3    H167079   6.064   0.866  15.757  1.1239  0.9130 -0.8821
15196TIP3    H267080   6.108   0.837  15.616  0.5278 -1.2663 -0.6606
15197TIP3   OH267081   0.995   1.616   5.748 -0.9122  0.0269 -0.3463
15197TIP3    H167082   0.967   1.560   5.820  0.3398  1.5846  1.4377
15197TIP3    H267083   1.057   1.562   5.698 -0.8053 -0.6477  0.5016
15198TIP3   OH267084   5.337   3.604   3.513  0.2252 -0.3369 -0.3152
15198TIP3    H167085   5.370   3.610   3.603  0.5931 -0.6034 -0.4323
15198TIP3    H267086   5.413   3.581   3.461 -0.1654 -1.0847 -0.5716
15199TIP3   OH267087   2.094   0.411   0.519  0.3557  0.1601  0.3710
15199TIP3    H167088   2.148   0.491   0.520  0.9310 -0.1997 -0.5677
15199TIP3    H267089   2.004   0.443   0.512  0.3728  0.7890  2.4618
15200TIP3   OH267090   1.200   4.474  15.671 -0.1594 -0.6102  0.4175
15200TIP3    H167091   1.247   4.524  15.737 -0.7122 -1.5250  1.5359
15200TIP3    H267092   1.110   4.505  15.677 -0.0246  0.0939 -0.7105
15201TIP3   OH267093   2.296   3.350  15.753  0.2703 -0.1271 -0.0449
15201TIP3    H167094   2.286   3.352  15.848  0.6192  0.5268 -0.0191
15201TIP3    H267095   2.218   3.304  15.722  0.1720 -0.3756  0.5579
15202TIP3   OH267096   0.204   2.383  13.674 -0.3566  0.7485 -0.1272
15202TIP3    H167097   0.148   2.441  13.621  0.9177  2.3769  0.2496
15202TIP3    H267098   0.144   2.344  13.737 -1.0117  2.9516  0.6839
15203TIP3   OH267099   5.962   5.089  14.756 -0.2469  0.1297 -0.0967
15203TIP3    H167100   5.918   5.168  14.725 -0.0979  0.3224  0.1751
15203TIP3    H267101   5.895   5.041  14.804  0.2514  1.3051  1.9215
15204TIP3   OH267102   5.901   3.834  17.012 -0.3665 -0.2131 -0.4363
15204TIP3    H167103   5.845   3.881  16.951 -1.0931 -0.3803  0.0856
15204TIP3    H267104   5.853   3.836  17.095 -0.0582 -1.2124 -0.2145
15205TIP3   OH267105   3.106   2.451  16.227  0.0739 -0.6345  0.0449
15205TIP3    H167106   3.075   2.467  16.138  1.5388  0.5574 -0.2897
15205TIP3    H267107   3.031   2.412  16.272 -1.2050  0.2121 -1.2829
15206TIP3   OH267108   0.145   4.508  12.249  0.1663  0.7342  0.4198
15206TIP3    H167109   0.098   4.548  12.322  1.2354 -1.3839  2.3791
15206TIP3    H267110   0.075   4.474  12.192 -0.6805  2.1393  0.5635
15207TIP3   OH267111   5.814   0.098  16.211 -0.4483 -0.0882 -0.7389
15207TIP3    H167112   5.863   0.154  16.272  1.2624 -0.3631 -1.7878
15207TIP3    H267113   5.722   0.116  16.230  0.0439  2.3640 -0.3995
15208TIP3   OH267114   2.548   5.318  13.567 -0.0278 -0.3320 -0.1705
15208TIP3    H167115   2.487   5.381  13.528  1.6126 -0.2400 -2.8096
15208TIP3    H267116   2.521   5.234  13.531  0.7768 -0.4245 -0.5742
15209TIP3   OH267117   4.257   2.922   2.639  0.5355 -0.0674  0.2942
15209TIP3    H167118   4.218   2.987   2.697 -1.7209 -1.2122  0.1666
15209TIP3    H267119   4.312   2.869   2.697  0.6493  0.5883  0.8056
15210TIP3   OH267120   6.103   6.640  12.133  0.1176 -0.0667  0.2753
15210TIP3    H167121   6.083   6.718  12.082 -1.3750 -0.6520 -0.0931
15210TIP3    H267122   6.018   6.610  12.165  0.3490 -2.6348 -1.1982
15211TIP3   OH267123   2.613   4.089   6.029  0.1100 -0.3555  0.0334
15211TIP3    H167124   2.589   4.005   6.069  1.7358 -1.3598 -0.9773
15211TIP3    H267125   2.638   4.144   6.103  0.0392 -1.1247  0.6428
15212TIP3   OH267126   6.155   5.897   2.193 -0.1598  0.5870 -0.3318
15212TIP3    H167127   6.231   5.949   2.165  2.1566 -1.0425  2.3851
15212TIP3    H267128   6.171   5.810   2.157 -1.9770  0.6990 -1.5525
15213TIP3   OH267129   2.965   5.228   0.631 -0.2372 -0.1373  0.3586
15213TIP3    H167130   2.871   5.240   0.614 -0.3692  0.4085  1.3847
15213TIP3    H267131   3.006   5.234   0.545 -1.0266  0.8027  0.0247
15214TIP3   OH267132   6.770   5.251   0.924  0.3585 -0.6967  0.4864
15214TIP3    H167133   6.862   5.224   0.931  0.6083  0.4529  2.0831
15214TIP3    H267134   6.722   5.187   0.976  0.2927 -1.0124  0.0494
15215TIP3   OH267135   5.820   2.023  12.831 -0.3712  0.2713  0.2013
15215TIP3    H167136   5.754   2.084  12.863  1.1119  0.9731  2.0784
15215TIP3    H267137   5.902   2.072  12.834  0.2901 -0.5395 -2.1682
15216TIP3   OH267138   2.012   3.568  15.964 -0.2235  0.0944 -0.0129
15216TIP3    H167139   1.922   3.564  15.931 -0.5893  1.4495  0.7182
15216TIP3    H267140   2.065   3.586  15.887 -0.8658  1.4934 -0.1615
15217TIP3   OH267141   6.282   1.232   0.438 -0.3599 -0.1460  0.2104
15217TIP3    H167142   6.262   1.157   0.495 -1.2226 -1.2633 -1.4914
15217TIP3    H267143   6.304   1.303   0.499  0.4850 -1.7534  1.8920
15218TIP3   OH267144   1.272   1.300   2.822  0.8975  0.0332 -0.1457
15218TIP3    H167145   1.234   1.218   2.854  1.8555 -0.6225 -0.6562
15218TIP3    H267146   1.366   1.282   2.814  1.3036  1.5286  0.8129
15219TIP3   OH267147   5.263   1.628   5.787  0.7863  0.2512 -0.5226
15219TIP3    H167148   5.289   1.706   5.837  1.3318  0.6272 -1.3616
15219TIP3    H267149   5.197   1.660   5.726  1.7152  0.2759 -1.5373
15220TIP3   OH267150   6.584   6.757  13.120 -0.3972  0.0029  0.5173
15220TIP3    H167151   6.539   6.806  13.188 -1.6344  2.2700 -1.7647
15220TIP3    H267152   6.677   6.776  13.134 -0.5128 -0.4802  2.1574
15221TIP3   OH267153   0.526   1.712   1.811  0.0973 -0.3984 -0.7178
15221TIP3    H167154   0.525   1.807   1.812  1.9340 -0.3451 -1.2587
15221TIP3    H267155   0.593   1.687   1.875 -0.2181 -1.3203 -0.7253
15222TIP3   OH267156   0.947   5.179  12.620  0.6997 -0.6387  0.3810
15222TIP3    H167157   0.999   5.100  12.603  0.5303 -0.8758  0.9170
15222TIP3    H267158   0.936   5.220  12.534 -1.4768 -2.6030 -0.4063
15223TIP3   OH267159   6.557   2.055   5.893 -0.0411  0.1735  0.3845
15223TIP3    H167160   6.519   2.141   5.877 -2.5888 -0.9707 -0.3055
15223TIP3    H267161   6.576   2.020   5.806  1.1728  0.0889  0.6634
15224TIP3   OH267162   2.890   3.267  13.724  0.1326 -0.4818  0.3092
15224TIP3    H167163   2.918   3.183  13.688 -0.6869 -1.1293  1.1276
15224TIP3    H267164   2.880   3.324  13.647  0.3889 -1.2284 -0.2847
15225TIP3   OH267165   0.982   1.545  14.258 -0.0657  0.6900 -0.3437
15225TIP3    H167166   1.062   1.587  14.226  0.1706 -0.3545 -1.2076
15225TIP3    H267167   0.925   1.617  14.285  0.7990  1.4885 -0.6262
15226TIP3   OH267168   5.968   3.541  11.051 -0.3560 -0.0276 -0.0113
15226TIP3    H167169   5.956   3.467  10.991  0.2917  0.9225 -1.3675
15226TIP3    H267170   5.893   3.598  11.035  0.9787  1.3768 -1.7158
15227TIP3   OH267171   5.775   5.841   1.579  0.1324  0.1019  0.0380
15227TIP3    H167172   5.830   5.875   1.650 -0.7042  0.1976  0.6600
15227TIP3    H267173   5.802   5.891   1.502  0.9891  0.0651  0.2945
15228TIP3   OH267174   5.924   2.540   2.075 -0.2579 -0.1628 -0.3892
15228TIP3    H167175   5.985   2.486   2.125 -0.6714  1.8215  2.5470
15228TIP3    H267176   5.849   2.483   2.058  0.4544 -1.2868  0.1173
15229TIP3   OH267177   6.629   5.433  11.386 -0.0952 -0.0849 -0.5158
15229TIP3    H167178   6.571   5.509  11.387  2.9050  2.3983  1.0439
15229TIP3    H267179   6.676   5.439  11.303 -0.6646 -0.9999 -0.9256
15230TIP3   OH267180   2.779   3.646   5.074 -0.2168 -0.0042  0.2142
15230TIP3    H167181   2.771   3.620   4.982 -2.0630 -1.7175  0.7730
15230TIP3    H267182   2.776   3.742   5.072  2.1257  0.1364 -1.6256
15231TIP3   OH267183   0.782   3.029   2.191 -0.2162 -0.2489  0.2131
15231TIP3    H167184   0.798   3.030   2.285 -0.8828  0.3498  0.3273
15231TIP3    H267185   0.816   2.944   2.162 -0.4061 -0.6265  1.0597
15232TIP3   OH267186   4.007   3.020  12.322 -0.2811  0.0799 -0.3116
15232TIP3    H167187   4.035   3.111  12.317 -2.4493  0.8285  0.1840
15232TIP3    H267188   3.980   3.008  12.412 -0.5972 -0.8909 -0.5242
15233TIP3   OH267189   0.143   3.973  12.758  0.2408  0.3455  0.2679
15233TIP3    H167190   0.198   3.912  12.707  1.1552  0.9511  0.4957
15233TIP3    H267191   0.142   4.053  12.706 -1.8244 -0.1589 -0.5434
15234TIP3   OH267192   0.320   2.701  14.870 -0.6914 -0.1129 -0.2020
15234TIP3    H167193   0.225   2.692  14.866 -0.7581  0.6290 -0.4021
15234TIP3    H267194   0.353   2.646  14.799 -1.0383  0.5768 -0.9041
15235TIP3   OH267195   0.112   2.458   3.551  0.0322  0.2008  0.3502
15235TIP3    H167196   0.024   2.425   3.568 -0.2657 -0.0595 -1.4707
15235TIP3    H267197   0.164   2.426   3.624 -1.1057 -0.8424  0.7398
15236TIP3   OH267198   3.794   4.869  10.245 -0.4973  0.3256  0.1331
15236TIP3    H167199   3.875   4.883  10.195 -0.3930  0.0852  0.2345
15236TIP3    H267200   3.808   4.786  10.289 -1.0657 -0.0366 -0.3657
15237TIP3   OH267201   2.841   2.193   6.212  0.0401 -0.3731 -0.2091
15237TIP3    H167202   2.795   2.274   6.235  0.0065 -0.4648  0.0520
15237TIP3    H267203   2.772   2.134   6.183 -0.0276 -0.5623  0.3299
15238TIP3   OH267204   6.684   6.128  17.226  0.0281  0.5513 -0.0001
15238TIP3    H167205   6.767   6.093  17.259  0.4622  0.7373 -0.8684
15238TIP3    H267206   6.705   6.218  17.199 -0.6807  0.9278  0.6491
15239TIP3   OH267207   5.455   5.674  12.861  0.0998  0.3253 -0.2550
15239TIP3    H167208   5.366   5.659  12.832 -0.1689 -0.9825  1.0942
15239TIP3    H267209   5.462   5.769  12.872 -1.1825  0.4241 -0.1759
15240TIP3   OH267210   2.480   2.823   3.308 -0.0564  0.2951 -0.0829
15240TIP3    H167211   2.516   2.796   3.392 -1.4590 -0.8922  0.1819
15240TIP3    H267212   2.396   2.864   3.330 -0.0535  0.7310 -0.8439
15241TIP3   OH267213   6.405   4.560  13.260 -0.5316  0.4111 -0.1397
15241TIP3    H167214   6.422   4.492  13.324 -0.2514  0.7326  0.1332
15241TIP3    H267215   6.492   4.591  13.234 -0.6575  1.4320  0.5837
15242TIP3   OH267216   2.578   4.454   6.306 -0.4580 -0.1037 -0.6933
15242TIP3    H167217   2.506   4.464   6.369 -0.1730  1.2811 -0.5406
15242TIP3    H267218   2.539   4.473   6.221 -0.6057 -0.8968 -0.8061
15243TIP3   OH267219   0.244   1.467  13.015 -0.3888 -0.2417  0.5015
15243TIP3    H167220   0.177   1.399  13.018  0.5422 -1.1437  1.4626
15243TIP3    H267221   0.323   1.426  13.050  0.4781  1.0272  0.1336
15244TIP3   OH267222   1.636   3.084   5.508 -0.1135  0.2250 -0.0808
15244TIP3    H167223   1.695   3.015   5.540  0.7713  1.2761  0.6381
15244TIP3    H267224   1.562   3.037   5.470  0.6548 -1.1234  0.0319
15245TIP3   OH267225   5.817   0.063   6.108 -0.0925 -0.2957 -0.4658
15245TIP3    H167226   5.892   0.034   6.161 -0.3283 -0.3387 -0.1547
15245TIP3    H267227   5.792  -0.015   6.058 -0.5811 -0.5815  0.2018
15246TIP3   OH267228   5.009   6.702  15.597 -0.1958 -0.1008  0.1031
15246TIP3    H167229   4.947   6.723  15.528 -0.3105  1.3997  0.6267
15246TIP3    H267230   4.985   6.760  15.670  2.8693  1.8957 -0.2783
15247TIP3   OH267231   2.510   0.528   5.006  0.0984 -0.4765 -0.4277
15247TIP3    H167232   2.594   0.490   4.978 -0.1021 -0.2888 -1.2945
15247TIP3    H267233   2.455   0.525   4.928 -0.5751 -0.2385  0.0361
15248TIP3   OH267234   1.304   5.139   2.283 -0.1282 -0.1448  0.0005
15248TIP3    H167235   1.279   5.173   2.369 -0.5888 -1.4832  0.4273
15248TIP3    H267236   1.399   5.139   2.284 -0.1292  0.0002  0.4546
15249TIP3   OH267237   6.445   3.328   3.074  0.7102  0.2212  0.6023
15249TIP3    H167238   6.387   3.274   3.021  0.3373 -1.1824  2.3264
15249TIP3    H267239   6.402   3.414   3.076 -0.2935 -0.2555  0.2525
15250TIP3   OH267240   5.379   6.825  13.033  0.8311 -0.3833 -0.2289
15250TIP3    H167241   5.285   6.843  13.029  0.3979 -2.0535  0.9908
15250TIP3    H267242   5.396   6.809  13.126  2.4645  0.4493 -0.3425
15251TIP3   OH267243   6.444   1.121   4.721  0.3645  0.0427 -0.2748
15251TIP3    H167244   6.357   1.082   4.714 -0.2444  0.9930  1.5393
15251TIP3    H267245   6.429   1.215   4.712  1.6158  0.0761 -2.9668
15252TIP3   OH267246   2.930   5.033   3.832  0.7871 -0.2659  0.6372
15252TIP3    H167247   2.973   4.951   3.856  0.3850 -0.3289  1.1694
15252TIP3    H267248   2.876   5.054   3.908 -0.9739 -0.7599 -0.4217
15253TIP3   OH267249   1.787   5.627  13.053  0.7335 -0.6100  0.3811
15253TIP3    H167250   1.708   5.595  13.009  1.6219 -1.5618 -0.5696
15253TIP3    H267251   1.839   5.548  13.071  2.2116  0.1080 -0.5054
15254TIP3   OH267252   2.646   6.000  16.481 -0.3883 -0.2852 -0.4625
15254TIP3    H167253   2.602   5.926  16.439 -1.4210  0.6480 -1.1073
15254TIP3    H267254   2.575   6.061  16.502  0.5817  1.3501 -1.6672
15255TIP3   OH267255   2.780   0.978  13.356  0.7877  0.1999 -0.1228
15255TIP3    H167256   2.774   0.885  13.335  2.5213 -0.2591  1.1457
15255TIP3    H267257   2.853   0.984  13.418 -0.3178  2.2022  1.1043
15256TIP3   OH267258   4.044   4.062  13.658  0.2851  0.0503 -0.1608
15256TIP3    H167259   4.002   4.099  13.735 -0.8458 -1.2960 -0.0761
15256TIP3    H267260   4.101   3.993  13.692  1.7953  1.1544 -0.3628
15257TIP3   OH267261   2.756   5.805  15.939 -0.1134 -0.1115  0.4298
15257TIP3    H167262   2.712   5.734  15.891 -1.8448  1.6768 -0.8088
15257TIP3    H267263   2.752   5.778  16.031 -2.9542 -0.5568  0.2687
15258TIP3   OH267264   2.032   4.843  16.964  0.3002  0.3588  0.7325
15258TIP3    H167265   1.984   4.800  16.893 -0.9353  1.5896  0.7887
15258TIP3    H267266   2.012   4.936  16.954  1.4652  0.7398  1.6920
15259TIP3   OH267267   4.376   3.897   5.004  0.3449 -0.4722  0.4654
15259TIP3    H167268   4.427   3.838   4.949 -0.0825  0.4814 -1.0124
15259TIP3    H267269   4.326   3.950   4.942  1.8954  2.5481  1.5848
15260TIP3   OH267270   6.136   1.242   2.053 -0.3875 -0.7690 -0.5309
15260TIP3    H167271   6.133   1.325   2.100 -1.8178 -0.9567 -0.2543
15260TIP3    H267272   6.221   1.242   2.009  0.6372 -0.2118  1.3483
15261TIP3   OH267273   2.167   6.189  15.615 -0.4562  0.1147 -0.4987
15261TIP3    H167274   2.147   6.235  15.696 -0.7321 -1.2262  0.2239
15261TIP3    H267275   2.112   6.231  15.549  0.1557  1.5642 -0.1184
15262TIP3   OH267276   2.594   3.733   4.262 -0.0758  0.1756  0.1609
15262TIP3    H167277   2.606   3.825   4.238  1.2771 -0.0968 -0.2919
15262TIP3    H267278   2.499   3.723   4.271 -0.2298  1.6740  0.4848
15263TIP3   OH267279   1.387   4.733  11.952 -0.3113 -0.0558  0.0183
15263TIP3    H167280   1.394   4.802  11.887  1.6716 -0.4985 -0.3017
15263TIP3    H267281   1.334   4.666  11.910 -0.5948  0.4350 -0.4202
15264TIP3   OH267282   0.721   2.079  10.942 -0.5427 -0.9488 -0.0488
15264TIP3    H167283   0.809   2.090  10.978 -0.0135 -2.0088 -0.9555
15264TIP3    H267284   0.735   2.035  10.858 -1.8282  0.2009 -0.9103
15265TIP3   OH267285   0.894   5.125   1.114 -0.1682  0.3814  0.5596
15265TIP3    H167286   0.921   5.089   1.199 -1.9033 -2.6573 -0.0254
15265TIP3    H267287   0.934   5.067   1.050 -2.6045 -0.2865 -0.4837
15266TIP3   OH267288   2.277   3.480   4.009  0.2409  0.4987 -0.1057
15266TIP3    H167289   2.335   3.411   4.039 -2.2371 -2.5917 -1.7671
15266TIP3    H267290   2.264   3.536   4.085  1.3849 -1.6396  1.7685
15267TIP3   OH267291   1.872   4.444   4.892 -0.3164 -0.4770 -0.1415
15267TIP3    H167292   1.784   4.443   4.929  0.2473 -0.3995  1.2426
15267TIP3    H267293   1.866   4.506   4.819 -1.1294  0.4644  0.6877
15268TIP3   OH267294   4.249   1.150   0.498 -0.0952 -0.2925  0.5354
15268TIP3    H167295   4.188   1.090   0.455  0.6564 -1.5731  1.2404
15268TIP3    H267296   4.196   1.192   0.567 -0.4944 -0.4592  0.3356
15269TIP3   OH267297   0.518   4.595   3.136 -0.0368 -0.2010 -0.2341
15269TIP3    H167298   0.506   4.640   3.052  1.1551 -0.7379 -0.7061
15269TIP3    H267299   0.611   4.603   3.155 -0.2538 -0.2970  0.9324
15270TIP3   OH267300   1.739   4.422  14.277  0.3401  0.3230  0.5726
15270TIP3    H167301   1.645   4.421  14.291  0.5174  0.9761  1.9880
15270TIP3    H267302   1.753   4.364  14.202 -1.2265  0.6693 -0.0207
15271TIP3   OH267303   4.654   2.562   1.748 -0.0328 -0.4387 -0.4354
15271TIP3    H167304   4.647   2.518   1.664  3.1734 -1.2126 -0.4370
15271TIP3    H267305   4.687   2.494   1.808  0.0678  0.6752  0.8318
15272TIP3   OH267306   1.493   2.795  15.825 -0.2846  0.5278  0.0084
15272TIP3    H167307   1.546   2.731  15.778 -0.7952  0.0369  0.0903
15272TIP3    H267308   1.545   2.875  15.824  0.6638 -0.0776  0.5071
15273TIP3   OH267309   2.356   0.037  11.202  0.0924  0.0194 -0.2097
15273TIP3    H167310   2.389  -0.048  11.173 -2.7094 -0.7364 -1.5937
15273TIP3    H267311   2.344   0.087  11.121 -1.3106  0.4977  0.2588
15274TIP3   OH267312   2.548   4.778   5.742  0.4892  0.4700  0.2988
15274TIP3    H167313   2.453   4.793   5.742  0.0363 -0.8218 -4.1198
15274TIP3    H267314   2.586   4.864   5.728 -0.3587  0.6392 -1.2350
15275TIP3   OH267315   0.427   1.587  15.980  0.5170  0.0987  0.2691
15275TIP3    H167316   0.516   1.611  16.008  0.4653 -0.0280  0.5425
15275TIP3    H267317   0.375   1.591  16.060  0.5422 -1.1330  0.3708
15276TIP3   OH267318   6.498   3.470  16.495  0.3414  0.5340 -0.1051
15276TIP3    H167319   6.504   3.418  16.415  1.0098 -1.2408  1.0264
15276TIP3    H267320   6.522   3.559  16.468 -0.4663  0.2189 -2.0453
15277TIP3   OH267321   4.332   2.139  15.916  0.3466 -0.9050  0.3475
15277TIP3    H167322   4.307   2.104  15.831 -0.7392 -0.2763  0.3901
15277TIP3    H267323   4.421   2.106  15.931  0.6456 -0.8365 -1.1251
15278TIP3   OH267324   3.835   4.668   3.658 -0.3837 -0.2469  0.2508
15278TIP3    H167325   3.811   4.751   3.700  0.0620  0.0157 -0.0091
15278TIP3    H267326   3.868   4.693   3.572 -1.2194 -0.7746 -0.2372
15279TIP3   OH267327   2.048   3.032   0.703  0.0374 -0.1036  0.2340
15279TIP3    H167328   1.991   3.067   0.771 -0.1367 -0.8748  0.4953
15279TIP3    H267329   1.996   3.038   0.623 -0.1457 -0.1580  0.3492
15280TIP3   OH267330   0.782   3.907   1.378 -0.1248 -0.0406  0.3697
15280TIP3    H167331   0.773   4.002   1.366  0.2725  0.0291  0.5792
15280TIP3    H267332   0.754   3.869   1.295 -1.4270  0.1923  0.6829
15281TIP3   OH267333   6.086   0.427  16.609  0.0741  0.0781  0.2892
15281TIP3    H167334   6.069   0.511  16.653  1.8252  0.4858  0.2397
15281TIP3    H267335   6.150   0.384  16.665 -0.5325 -1.0885  0.1062
15282TIP3   OH267336   4.492   1.657   0.139  0.0712  0.3463  0.1575
15282TIP3    H167337   4.465   1.588   0.078  0.3351 -0.7832  1.2766
15282TIP3    H267338   4.416   1.670   0.196 -0.4760  1.9804 -0.8576
15283TIP3   OH267339   6.539   4.789   0.852 -0.2749  0.4932  0.3062
15283TIP3    H167340   6.584   4.840   0.920 -0.6370  1.1355  0.0651
15283TIP3    H267341   6.611   4.752   0.801  0.1040  3.5072 -1.6051
15284TIP3   OH267342   5.106   1.513   4.476  0.2428 -0.5279  0.3070
15284TIP3    H167343   5.125   1.508   4.569 -0.8250  0.2673  0.5859
15284TIP3    H267344   5.075   1.425   4.453  2.0449 -1.2069  0.3102
15285TIP3   OH267345   5.537   0.423   2.914  0.3919 -0.1380  0.4269
15285TIP3    H167346   5.583   0.470   2.983 -0.7847 -0.9662  1.8342
15285TIP3    H267347   5.524   0.335   2.949 -0.8949 -0.3612 -0.5294
15286TIP3   OH267348   6.036   6.133  16.880 -0.2598 -0.1803  0.0000
15286TIP3    H167349   6.018   6.153  16.972 -1.3793  0.6360 -0.3634
15286TIP3    H267350   5.949   6.121  16.841  0.2584 -2.7415 -0.5042
15287TIP3   OH267351   6.599   5.997   2.478  0.0896  0.5680 -0.4041
15287TIP3    H167352   6.541   5.952   2.540  0.6333 -1.6514 -1.3833
15287TIP3    H267353   6.683   6.004   2.523 -0.0778  0.8801 -0.1386
15288TIP3   OH267354   5.632   3.193  13.926  0.8754 -0.3698  0.4373
15288TIP3    H167355   5.543   3.190  13.960  1.1052  2.6356  1.6218
15288TIP3    H267356   5.669   3.108  13.948 -1.3249 -1.2673  0.9437
15289TIP3   OH267357   2.380   4.631  12.740  0.0851 -0.4854  0.0185
15289TIP3    H167358   2.294   4.620  12.700 -0.0403 -0.5970  0.3136
15289TIP3    H267359   2.436   4.662  12.669 -0.2106 -0.3611 -0.1630
15290TIP3   OH267360   4.278   1.962   6.356 -0.0540  0.2571 -0.6766
15290TIP3    H167361   4.305   1.875   6.388 -0.6394 -0.0336 -0.9526
15290TIP3    H267362   4.184   1.964   6.371  0.1654  1.4594  0.7631
15291TIP3   OH267363   5.181   1.204   4.229 -0.4823  0.1459  0.2368
15291TIP3    H167364   5.222   1.138   4.173 -0.0759 -0.6173  1.4204
15291TIP3    H267365   5.251   1.266   4.250 -1.0168  1.4018 -1.4438
15292TIP3   OH267366   3.763   0.605   0.696  0.0929 -0.0460  0.4709
15292TIP3    H167367   3.792   0.695   0.681  1.2744 -0.4894 -0.0229
15292TIP3    H267368   3.687   0.614   0.753 -0.9579  1.3685 -1.0542
15293TIP3   OH267369   4.182   6.086   2.583  0.0660  0.5490  0.6933
15293TIP3    H167370   4.264   6.050   2.552  0.5808  1.2383  1.2169
15293TIP3    H267371   4.202   6.178   2.604 -1.0404  0.9722  0.0137
15294TIP3   OH267372   1.463   4.093  13.792 -0.1450 -0.2055 -0.3397
15294TIP3    H167373   1.540   4.047  13.758  0.0735  0.1377 -0.3069
15294TIP3    H267374   1.410   4.024  13.832  0.9024 -0.2273  1.0769
15295TIP3   OH267375   2.274   0.422  14.458  0.6416 -0.4897 -0.1060
15295TIP3    H167376   2.229   0.338  14.448  0.6653 -0.4675 -0.4083
15295TIP3    H267377   2.203   0.486  14.464  0.6062 -0.2542 -2.2610
15296TIP3   OH267378   5.152   2.640  11.457 -0.0071 -0.4194  0.3002
15296TIP3    H167379   5.158   2.574  11.527 -0.3471 -0.0704  0.6611
15296TIP3    H267380   5.176   2.722  11.500 -0.5553 -0.1452  0.0904
15297TIP3   OH267381   0.056   5.512   2.695  0.4087 -0.4043 -0.7608
15297TIP3    H167382   0.082   5.499   2.786 -0.3075  0.6894 -0.3897
15297TIP3    H267383   0.086   5.601   2.674  2.8483 -1.4884 -2.4143
15298TIP3   OH267384   4.213   4.239   6.649  0.1070  0.3580 -0.1147
15298TIP3    H167385   4.126   4.201   6.655 -0.6321  1.8783 -0.7876
15298TIP3    H267386   4.211   4.296   6.572  1.4779  0.9387  0.2251
15299TIP3   OH267387   5.932   1.738   2.252 -0.3272 -0.3933 -0.1047
15299TIP3    H167388   5.979   1.700   2.177  0.9447  0.0321  0.4452
15299TIP3    H267389   5.953   1.679   2.325 -1.2069 -0.5674  0.0162
15300TIP3   OH267390   6.743   2.957  12.998 -0.1378 -0.7440 -0.3504
15300TIP3    H167391   6.665   3.006  13.026  0.9292 -0.0723  1.6406
15300TIP3    H267392   6.783   3.012  12.931 -0.0556  0.1551  0.4110
15301TIP3   OH267393   4.669   5.853  15.558  0.1423  0.3508 -0.1923
15301TIP3    H167394   4.653   5.913  15.630  0.2802 -0.0886  0.2119
15301TIP3    H267395   4.596   5.790  15.563 -0.6621  1.1566 -1.3344
15302TIP3   OH267396   5.004   3.234   2.044 -0.1917 -0.2974  0.6445
15302TIP3    H167397   5.011   3.139   2.055  1.3507 -0.1870  0.7574
15302TIP3    H267398   5.066   3.255   1.974 -0.4732  0.6347  0.6607
15303TIP3   OH267399   2.849   0.578   1.299  0.0594 -0.5061  0.4235
15303TIP3    H167400   2.829   0.492   1.336 -1.2390 -0.1856  0.5058
15303TIP3    H267401   2.927   0.563   1.245 -0.6068 -1.9274 -0.2082
15304TIP3   OH267402   3.360   6.474  11.844  0.4314 -0.2472  0.1931
15304TIP3    H167403   3.382   6.526  11.767 -2.7102  0.3394 -0.4551
15304TIP3    H267404   3.376   6.383  11.818 -0.0844 -0.0130 -0.9825
15305TIP3   OH267405   1.467   1.411  15.572 -0.5182  0.3249 -0.1864
15305TIP3    H167406   1.413   1.364  15.635 -0.7863  1.4099  0.4079
15305TIP3    H267407   1.420   1.492  15.554 -0.2751  0.2009 -1.5267
15306TIP3   OH267408   2.659   2.847   0.374  0.4646 -0.1285 -0.0593
15306TIP3    H167409   2.726   2.857   0.441  0.8854  1.2593 -0.6412
15306TIP3    H267410   2.580   2.820   0.422  0.8416  0.4954  0.9479
15307TIP3   OH267411   2.086   4.211   2.069  0.7808 -1.1048  0.1790
15307TIP3    H167412   2.166   4.188   2.022  0.7259  0.6626 -0.8536
15307TIP3    H267413   2.118   4.252   2.150  1.1939  3.3528 -1.9574
15308TIP3   OH267414   5.410   3.378   2.576  0.2187 -0.2202  0.5380
15308TIP3    H167415   5.360   3.395   2.496 -3.3776 -0.3732  2.4961
15308TIP3    H267416   5.466   3.304   2.555  1.5376  1.4596 -2.5372
15309TIP3   OH267417   3.947   4.940  13.409  0.2620  0.0745  0.2363
15309TIP3    H167418   3.907   4.966  13.492  1.0493  0.9161  0.3632
15309TIP3    H267419   3.952   5.020  13.358  1.2265 -0.1371 -0.0123
15310TIP3   OH267420   0.101   3.186   2.315  0.4619  0.0833 -0.4073
15310TIP3    H167421   0.050   3.165   2.236  0.2065 -0.7957 -0.0160
15310TIP3    H267422   0.191   3.196   2.283  0.4405 -0.7443 -0.7529
15311TIP3   OH267423   4.650   4.621  15.916  0.3330  0.3240 -0.0755
15311TIP3    H167424   4.590   4.673  15.970 -1.4904 -2.1381  0.4669
15311TIP3    H267425   4.598   4.597  15.839  0.7818 -1.3170  0.0882
15312TIP3   OH267426   2.794   1.134   3.580  0.2886  0.3718 -0.4422
15312TIP3    H167427   2.769   1.055   3.531  0.4729  0.7866 -1.2123
15312TIP3    H267428   2.820   1.101   3.666 -1.4209 -0.2288 -0.1123
15313TIP3   OH267429   1.927   4.291   1.112  0.4547 -0.4728 -0.2195
15313TIP3    H167430   1.857   4.356   1.104  0.0081 -0.6853  1.5288
15313TIP3    H267431   2.008   4.340   1.099  0.0642  0.1684 -0.2390
15314TIP3   OH267432   6.392   4.329  14.023 -0.5955  0.0825  0.2292
15314TIP3    H167433   6.358   4.414  13.996 -0.8252 -0.9442 -3.1272
15314TIP3    H267434   6.475   4.349  14.066 -0.4542  1.9867 -0.8198
15315TIP3   OH267435   5.442   4.680   6.425  0.3238 -0.4218 -0.7193
15315TIP3    H167436   5.418   4.664   6.516  1.4286  0.0497 -0.3382
15315TIP3    H267437   5.517   4.739   6.429  0.3153 -0.2944 -1.9411
15316TIP3   OH267438   4.786   5.300   2.495 -0.1390 -0.6321  0.1276
15316TIP3    H167439   4.755   5.329   2.409  0.9918  0.5893  0.0982
15316TIP3    H267440   4.788   5.205   2.489 -1.4478 -0.6216 -0.7048
15317TIP3   OH267441   4.708   3.488   0.944 -0.0728 -0.1397  0.5201
15317TIP3    H167442   4.642   3.477   0.876  0.8391  1.1683 -0.6288
15317TIP3    H267443   4.661   3.530   1.016 -0.8378 -0.6855  0.3490
15318TIP3   OH267444   1.446   5.442  14.941  1.3267  0.8091 -0.2869
15318TIP3    H167445   1.404   5.377  14.998 -0.7438  2.0229 -0.3315
15318TIP3    H267446   1.512   5.392  14.892 -0.0817 -1.2223 -0.2292
15319TIP3   OH267447   0.635   0.065  11.128  0.0195 -0.2087 -0.0586
15319TIP3    H167448   0.719   0.035  11.092 -0.2985 -0.7695 -0.3407
15319TIP3    H267449   0.619   0.007  11.202 -0.5189 -0.6417 -0.5059
15320TIP3   OH267450   4.631   4.679   2.251 -0.1475 -0.7294  0.4361
15320TIP3    H167451   4.557   4.700   2.194  0.8794 -0.9655 -1.0788
15320TIP3    H267452   4.653   4.588   2.230  0.2028 -0.8555  1.2966
15321TIP3   OH267453   6.625   2.484   1.851  0.0006 -0.1135 -0.3488
15321TIP3    H167454   6.672   2.565   1.832 -0.2270 -0.3712 -2.2004
15321TIP3    H267455   6.654   2.459   1.939  1.2863  1.1237 -0.3910
15322TIP3   OH267456   6.555   5.849  13.328  0.1778 -0.4037 -0.1017
15322TIP3    H167457   6.596   5.795  13.261  2.6026 -0.5443  1.3544
15322TIP3    H267458   6.572   5.939  13.300 -1.8309 -0.3511 -1.3424
15323TIP3   OH267459   3.653   2.123   0.402  0.2021 -0.0403 -0.1643
15323TIP3    H167460   3.738   2.146   0.440  0.6842 -0.0766 -1.1909
15323TIP3    H267461   3.662   2.030   0.379 -0.6414 -0.4582  1.0674
15324TIP3   OH267462   0.586   3.559   5.075  0.0016 -0.1451 -0.3116
15324TIP3    H167463   0.675   3.525   5.088 -0.7384 -1.2631  2.4493
15324TIP3    H267464   0.530   3.481   5.079 -1.2034  0.6368 -1.2661
15325TIP3   OH267465   4.069   0.208  11.339  0.3115  0.3478  0.4063
15325TIP3    H167466   4.131   0.273  11.307  1.5200 -0.6925  0.5839
15325TIP3    H267467   4.055   0.150  11.264  0.5778 -0.1736  0.7583
15326TIP3   OH267468   0.317   4.539  14.559 -0.0429 -0.2302 -0.0236
15326TIP3    H167469   0.256   4.503  14.623  1.9774  0.3191  2.3333
15326TIP3    H267470   0.392   4.480  14.561  0.9549  0.9938 -0.2635
15327TIP3   OH267471   0.275   3.983   0.929 -0.2995  0.6339  0.4544
15327TIP3    H167472   0.220   3.967   1.005  0.3183 -1.2924  0.5493
15327TIP3    H267473   0.223   3.952   0.855  1.2721 -3.2431  0.7283
15328TIP3   OH267474   3.795   2.680  11.503  0.7987 -0.2889  0.0897
15328TIP3    H167475   3.812   2.769  11.473 -0.1493  0.1841  0.8765
15328TIP3    H267476   3.734   2.644  11.439  0.1628  0.0973  0.4652
15329TIP3   OH267477   5.692   5.624   5.628  0.0033 -0.0665  0.0924
15329TIP3    H167478   5.754   5.694   5.610  0.6066 -0.7837 -0.6986
15329TIP3    H267479   5.606   5.666   5.623  0.3116  0.4268 -1.3455
15330TIP3   OH267480   4.074   3.282   3.813  0.4194 -0.0020 -0.0911
15330TIP3    H167481   3.979   3.282   3.820  0.1319  1.1902 -2.7134
15330TIP3    H267482   4.105   3.243   3.895 -2.3364 -1.4157  0.3852
15331TIP3   OH267483   4.024   4.919  11.032  1.1088 -0.1637 -0.5971
15331TIP3    H167484   4.051   4.965  11.112  1.7700  0.9753 -1.4595
15331TIP3    H267485   4.072   4.962  10.962  0.5260 -1.1474 -1.6292
15332TIP3   OH267486   2.567   5.563  15.165 -0.5750  0.3748 -0.4037
15332TIP3    H167487   2.605   5.635  15.217 -1.9565  1.7939 -1.2682
15332TIP3    H267488   2.555   5.601  15.078  0.3880 -1.5300 -1.4158
15333TIP3   OH267489   4.986   4.568  15.790 -0.2270 -0.1388  0.1794
15333TIP3    H167490   5.059   4.629  15.804 -0.4671 -0.0447  1.0519
15333TIP3    H267491   4.948   4.556  15.877 -1.0484 -0.4516 -0.2196
15334TIP3   OH267492   5.286   4.439  13.905 -0.3603 -0.7873 -0.0127
15334TIP3    H167493   5.273   4.347  13.929 -1.6180 -0.3606  1.0984
15334TIP3    H267494   5.238   4.487  13.972  2.1199  0.7961  0.7722
15335TIP3   OH267495   5.599   1.837   5.595  0.3396 -0.0010  0.1299
15335TIP3    H167496   5.693   1.822   5.584  0.5957  1.1965  0.5959
15335TIP3    H267497   5.582   1.920   5.551 -0.5628 -0.3366 -0.1865
15336TIP3   OH267498   2.416   2.126   0.996  0.2477  0.1813  0.0870
15336TIP3    H167499   2.368   2.209   1.007  0.5115  0.5514 -1.3296
15336TIP3    H267500   2.430   2.095   1.085 -1.7611  0.5526  0.5987
15337TIP3   OH267501   2.878   2.103  11.349  0.3294  0.3969 -0.1122
15337TIP3    H167502   2.871   2.112  11.444  3.4456  1.1361  0.1630
15337TIP3    H267503   2.788   2.109  11.318 -0.6959  1.3085  2.6843
15338TIP3   OH267504   2.967   4.604  16.789 -0.3267 -0.0277  0.3146
15338TIP3    H167505   2.923   4.678  16.831  0.3585  0.6386 -0.1109
15338TIP3    H267506   2.985   4.635  16.700  1.0967 -0.2375  0.5131
15339TIP3   OH267507   4.325   1.709  11.490  0.2339 -0.1040  0.6104
15339TIP3    H167508   4.275   1.637  11.454 -1.4856  0.6485  1.3580
15339TIP3    H267509   4.326   1.775  11.421  1.8699 -0.8362 -0.0996
15340TIP3   OH267510   5.096   2.204  12.656 -0.5499 -0.4146 -0.8547
15340TIP3    H167511   5.041   2.213  12.578 -0.8725  0.8320 -0.5058
15340TIP3    H267512   5.077   2.282  12.708  0.8085 -0.4511 -0.2572
15341TIP3   OH267513   0.467   6.446  12.579 -0.3162 -0.1019 -0.3041
15341TIP3    H167514   0.489   6.376  12.641  0.9314  2.2472  2.1193
15341TIP3    H267515   0.375   6.432  12.560 -0.2630 -2.0520  0.5415
15342TIP3   OH267516   5.314   4.581  14.632  0.1958  0.6197 -0.4649
15342TIP3    H167517   5.275   4.512  14.579  0.9924 -0.3971  0.2362
15342TIP3    H267518   5.242   4.640  14.651 -0.7379 -0.5647 -0.2292
15343TIP3   OH267519   3.447   2.721   4.146 -0.2491 -0.2599  0.3906
15343TIP3    H167520   3.521   2.686   4.097 -0.6885 -1.2557  0.4080
15343TIP3    H267521   3.369   2.683   4.104 -0.5893 -2.2400  2.6206
15344TIP3   OH267522   4.871   0.721  14.722  0.3228 -0.0888  0.1988
15344TIP3    H167523   4.958   0.755  14.699  0.2967 -0.6588 -0.7701
15344TIP3    H267524   4.881   0.626  14.720 -0.4715 -0.1618 -0.4813
15345TIP3   OH267525   2.305   4.992   2.171 -0.7420  0.0444  0.6487
15345TIP3    H167526   2.296   4.990   2.076  0.8511 -0.3338  0.4893
15345TIP3    H267527   2.282   5.082   2.195  0.1391  0.5197 -0.2413
15346TIP3   OH267528   3.822   6.297   4.134  0.3652  0.0320  0.2655
15346TIP3    H167529   3.905   6.329   4.100  0.7189 -1.0390  0.0866
15346TIP3    H267530   3.779   6.375   4.169  0.0253  1.2235 -2.4718
15347TIP3   OH267531   0.543   6.785   5.204 -0.1808 -0.6076  0.0414
15347TIP3    H167532   0.550   6.881   5.212 -0.4645 -0.5396 -0.5106
15347TIP3    H267533   0.512   6.757   5.290 -0.2740 -0.1804  0.1516
15348TIP3   OH267534   2.980   0.849  15.441 -0.0616  0.2312 -0.6543
15348TIP3    H167535   2.949   0.813  15.358 -1.1002 -0.9264  0.2025
15348TIP3    H267536   3.015   0.774  15.489  0.9760  0.9583 -0.2083
15349TIP3   OH267537   1.815   2.689   2.945  0.3815 -0.4995  0.2545
15349TIP3    H167538   1.786   2.741   3.020  0.3135 -0.8005  0.4368
15349TIP3    H267539   1.733   2.660   2.903  0.3950 -1.6677  0.9864
15350TIP3   OH267540   4.168   4.262   3.601 -0.2716  0.0981 -0.1613
15350TIP3    H167541   4.140   4.290   3.514 -2.2101  0.7462  0.6142
15350TIP3    H267542   4.159   4.167   3.600 -1.6221  0.2073 -0.2737
15351TIP3   OH267543   6.130   5.581   3.567  0.4908  0.3729 -0.2643
15351TIP3    H167544   6.193   5.526   3.520 -0.2586  0.2273 -1.1429
15351TIP3    H267545   6.063   5.519   3.597  1.1638  0.4049  1.4030
15352TIP3   OH267546   2.504   3.793   3.337  0.0271 -0.3425 -0.0229
15352TIP3    H167547   2.479   3.848   3.262 -0.4032 -0.1465  0.2611
15352TIP3    H267548   2.439   3.812   3.404  0.0018 -1.0346  0.1629
15353TIP3   OH267549   4.080   0.921   6.260 -0.6545  0.2025  0.0323
15353TIP3    H167550   4.088   0.960   6.173 -1.1720  0.1469 -0.0455
15353TIP3    H267551   4.160   0.946   6.305 -0.7211  0.8703 -0.2076
15354TIP3   OH267552   1.897   4.970  14.988 -0.1580  0.3044  0.5186
15354TIP3    H167553   1.948   5.051  14.994  1.6197 -0.7179  0.0383
15354TIP3    H267554   1.807   4.999  14.978  0.6544  2.2955 -2.3935
15355TIP3   OH267555   4.833   2.261   5.196 -0.2491  0.3088 -0.7205
15355TIP3    H167556   4.923   2.291   5.178 -0.2335  1.6100  1.2431
15355TIP3    H267557   4.778   2.316   5.141  0.1464 -1.9880 -3.6941
15356TIP3   OH267558   5.641   2.928   6.858  0.0658  0.1512  0.0803
15356TIP3    H167559   5.621   2.858   6.796 -0.8099  0.6135 -0.1804
15356TIP3    H267560   5.607   2.897   6.942  0.2772 -0.0172  0.1030
15357TIP3   OH267561   2.305   5.479  15.070  0.1652 -0.1706  0.2305
15357TIP3    H167562   2.233   5.456  15.129 -0.6077 -0.5801 -0.8395
15357TIP3    H267563   2.370   5.521  15.127 -0.1979 -1.2701  1.5131
15358TIP3   OH267564   0.414   4.481   0.813  0.0572 -0.3252 -0.5210
15358TIP3    H167565   0.467   4.402   0.799 -0.1057 -0.1565 -2.4242
15358TIP3    H267566   0.324   4.452   0.800 -0.2527 -0.3435  1.4283
15359TIP3   OH267567   1.550   3.549   0.342  0.6477  0.2899  0.2954
15359TIP3    H167568   1.611   3.619   0.318  0.0508  0.7523  0.1075
15359TIP3    H267569   1.478   3.594   0.385 -1.8244  0.3984 -3.5055
15360TIP3   OH267570   6.445   3.608  10.486  0.1812 -0.0234 -0.1952
15360TIP3    H167571   6.387   3.679  10.461  0.8781  0.9036  0.7338
15360TIP3    H267572   6.508   3.601  10.415  1.3331  1.6777  0.5981
15361TIP3   OH267573   5.785   1.532  15.252 -0.1125 -1.1447  0.6955
15361TIP3    H167574   5.820   1.502  15.336  0.2144  1.6168  1.6549
15361TIP3    H267575   5.718   1.596  15.276 -0.5806 -0.8803 -1.1733
15362TIP3   OH267576   1.241   3.433  15.577  0.1968 -0.0513  0.2628
15362TIP3    H167577   1.318   3.390  15.539  1.0077  3.2607 -2.3409
15362TIP3    H267578   1.168   3.404  15.523  0.5096  0.7777 -0.6151
15363TIP3   OH267579   6.060   2.895   4.803 -0.3624  0.4795 -0.0536
15363TIP3    H167580   6.084   2.870   4.714 -0.6198  1.1132 -0.3072
15363TIP3    H267581   6.107   2.834   4.859  0.4060  0.5562 -0.6024
15364TIP3   OH267582   3.513   2.237   4.692  0.4154 -0.4080 -0.0693
15364TIP3    H167583   3.582   2.276   4.638  0.4499  1.3566  1.1632
15364TIP3    H267584   3.439   2.297   4.684 -0.0851 -0.9079  0.6730
15365TIP3   OH267585   0.353   1.627  14.036  0.1893 -0.1731  0.0215
15365TIP3    H167586   0.429   1.605  13.982 -0.2957 -1.8730 -0.0209
15365TIP3    H267587   0.307   1.694  13.987  0.7983 -0.2848 -0.7213
15366TIP3   OH267588   2.149   4.737  14.257 -0.1826  0.4909 -0.2612
15366TIP3    H167589   2.159   4.769  14.167  0.0700  2.3903  0.3975
15366TIP3    H267590   2.061   4.700  14.260  1.0103 -2.9276 -2.1965
15367TIP3   OH267591   4.511   3.802  13.135  0.2234 -0.3738  0.1043
15367TIP3    H167592   4.580   3.856  13.174  0.0064 -0.6289  0.8650
15367TIP3    H267593   4.502   3.835  13.046  1.5267 -0.5353 -0.0972
15368TIP3   OH267594   3.748   3.434  13.902 -0.1352 -0.0431  0.1131
15368TIP3    H167595   3.680   3.459  13.965  0.6480  1.0230  0.5770
15368TIP3    H267596   3.743   3.339  13.896 -0.8489 -0.0719  1.0679
15369TIP3   OH267597   3.775   2.837   3.366 -0.3259  0.3111  0.2076
15369TIP3    H167598   3.737   2.837   3.454  0.6305 -0.2502  0.6337
15369TIP3    H267599   3.719   2.778   3.316 -2.1545  2.2319 -0.1732
15370TIP3   OH267600   3.592   4.693  12.818 -0.2526  0.8892 -0.5243
15370TIP3    H167601   3.545   4.775  12.804 -0.0005  0.8337 -1.7885
15370TIP3    H267602   3.584   4.676  12.912 -2.7804  0.8745 -0.6812
15371TIP3   OH267603   4.263   3.519   2.888 -0.1072  0.3330  0.1461
15371TIP3    H167604   4.185   3.569   2.913  0.5904  0.9484  1.2007
15371TIP3    H267605   4.233   3.428   2.883 -1.2968  0.7740 -1.3487
15372TIP3   OH267606   4.502   1.059   0.570  0.1603  0.9674  0.4315
15372TIP3    H167607   4.566   1.118   0.531  0.6712  0.4410  0.4475
15372TIP3    H267608   4.417   1.091   0.540  0.5660  0.0607 -1.8527
15373TIP3   OH267609   1.060   6.161   1.126 -0.0858  0.3168 -0.3345
15373TIP3    H167610   1.104   6.077   1.119 -0.0100  0.3324 -0.0251
15373TIP3    H267611   1.131   6.225   1.133 -0.1337  0.4432 -0.9522
15374TIP3   OH267612   5.303   4.495  15.571 -0.0427  0.2530  1.0015
15374TIP3    H167613   5.395   4.469  15.575 -0.4491 -1.3436  0.6439
15374TIP3    H267614   5.262   4.430  15.514 -0.9422  2.3368 -0.8593
15375TIP3   OH267615   6.533   2.684  12.266 -0.5957 -0.6577  0.2120
15375TIP3    H167616   6.507   2.762  12.217 -1.4657 -1.1021 -0.0486
15375TIP3    H267617   6.629   2.690  12.271 -0.6986  0.9024  0.9967
15376TIP3   OH267618   5.929   2.299   0.705  0.5374  0.0405  0.3784
15376TIP3    H167619   5.881   2.226   0.666 -0.1682  0.7717 -0.1517
15376TIP3    H267620   6.015   2.262   0.727  0.4839 -0.7407 -0.6354
15377TIP3   OH267621   1.952   0.823   1.349 -0.0794 -0.0331  0.4259
15377TIP3    H167622   1.908   0.862   1.425  0.1590  1.0881  0.0024
15377TIP3    H267623   2.045   0.836   1.366 -0.0486  1.6364 -0.7491
15378TIP3   OH267624   6.643   0.910   0.493  0.2026  0.1640  0.1003
15378TIP3    H167625   6.656   0.816   0.489  0.5402  0.2100  0.1485
15378TIP3    H267626   6.655   0.940   0.403 -0.2940  0.1120  0.0112
15379TIP3   OH267627   1.252   1.836   2.659  0.1889  0.4308  0.2104
15379TIP3    H167628   1.219   1.767   2.717 -0.4856 -1.4669 -2.2552
15379TIP3    H267629   1.331   1.799   2.619  0.4516  1.5338 -0.3479
15380TIP3   OH267630   0.598   0.503  15.771 -0.0644  0.0845  0.2019
15380TIP3    H167631   0.644   0.441  15.826 -0.1017 -0.6997 -0.6324
15380TIP3    H267632   0.654   0.580  15.769  0.7910 -0.5323 -0.0920
15381TIP3   OH267633   4.109   4.701   6.072 -0.2392 -0.3687 -0.2884
15381TIP3    H167634   4.113   4.674   6.164 -0.3892  0.4546 -0.0398
15381TIP3    H267635   4.200   4.696   6.042 -0.0086  0.4715  0.2325
15382TIP3   OH267636   3.729   0.645   5.006  0.1263  0.3028 -0.1875
15382TIP3    H167637   3.671   0.721   5.006  0.4583  0.5568 -0.4907
15382TIP3    H267638   3.700   0.593   5.081 -1.4327 -0.2872 -1.1522
15383TIP3   OH267639   1.927   5.080   4.794 -0.4094  0.5792 -0.3411
15383TIP3    H167640   1.956   5.157   4.744 -0.0042  0.7747  0.1932
15383TIP3    H267641   1.833   5.074   4.774  0.1892 -0.9244 -3.2431
15384TIP3   OH267642   5.251   2.134  13.825  0.4473 -0.4036  0.0788
15384TIP3    H167643   5.233   2.045  13.797  2.1803 -0.2121 -1.9136
15384TIP3    H267644   5.277   2.180  13.745 -2.4818  2.5495  0.5777
15385TIP3   OH267645   5.535   1.884  15.613  0.3203 -0.3770 -0.1732
15385TIP3    H167646   5.441   1.900  15.614  0.0959 -1.1372 -2.6309
15385TIP3    H267647   5.574   1.970  15.596  0.2039  0.1170  1.7689
15386TIP3   OH267648   0.520   3.258   4.922  0.0943  0.8977 -0.0728
15386TIP3    H167649   0.557   3.186   4.973 -1.4747 -0.2197 -0.4753
15386TIP3    H267650   0.566   3.253   4.837  0.5343  0.8667  0.1625
15387TIP3   OH267651   5.452   1.103   3.671 -0.4288 -0.0666 -0.3339
15387TIP3    H167652   5.356   1.101   3.680 -0.3299 -0.9017  0.8404
15387TIP3    H267653   5.474   1.018   3.634 -0.0530 -0.4565  0.7403
15388TIP3   OH267654   6.628   4.456   1.893 -0.2440  0.3714  0.7470
15388TIP3    H167655   6.567   4.391   1.858  0.1054 -0.7053  2.0417
15388TIP3    H267656   6.714   4.414   1.885  0.1861  1.3242  0.1778
15389TIP3   OH267657   1.755   6.154   1.289  0.5382 -0.1030  0.3851
15389TIP3    H167658   1.670   6.135   1.251  0.4364 -0.7161  0.9079
15389TIP3    H267659   1.738   6.164   1.383  1.2612 -1.7527  0.7209
15390TIP3   OH267660   6.699   5.545   6.029 -0.4120 -0.1484 -0.3513
15390TIP3    H167661   6.649   5.607   6.081  1.8924  1.7406 -0.2420
15390TIP3    H267662   6.732   5.481   6.093 -1.0140 -0.2689 -0.1525
15391TIP3   OH267663   5.214   5.939   6.054  1.0122  0.2598  0.1599
15391TIP3    H167664   5.183   5.912   5.968 -0.9451 -0.1728  0.9528
15391TIP3    H267665   5.205   6.034   6.055  1.2723  0.2896 -0.1884
15392TIP3   OH267666   0.030   3.410  10.972 -0.2846  0.0585 -0.3719
15392TIP3    H167667  -0.045   3.469  10.964  0.9844  2.6093  3.5270
15392TIP3    H267668   0.106   3.468  10.974  1.3157 -1.9425  1.0348
15393TIP3   OH267669   3.995   2.524  13.445 -0.9415 -0.4391  1.3210
15393TIP3    H167670   3.969   2.521  13.353 -2.4002  0.8502  1.6438
15393TIP3    H267671   4.084   2.490  13.446 -0.5114  0.4699 -0.7236
15394TIP3   OH267672   4.477   1.837  17.174 -0.7305  0.3656 -0.0035
15394TIP3    H167673   4.470   1.768  17.240 -0.9952  2.3293  2.1588
15394TIP3    H267674   4.570   1.859  17.172 -0.7529  0.4483 -0.1344
15395TIP3   OH267675   3.539   2.928   3.576 -0.1578 -0.2716  0.0435
15395TIP3    H167676   3.458   2.889   3.608 -0.3086  0.1731  0.2215
15395TIP3    H267677   3.605   2.904   3.642 -0.3377  0.1215  0.3716
15396TIP3   OH267678   4.405   5.239  16.379 -0.3324 -0.2930 -0.1174
15396TIP3    H167679   4.325   5.247  16.431 -0.8520 -1.2611 -0.7358
15396TIP3    H267680   4.468   5.199  16.439 -0.6139 -0.4422  0.0815
15397TIP3   OH267681   2.249   1.113  11.657 -0.6020 -0.2399 -0.2310
15397TIP3    H167682   2.225   1.073  11.574  1.2217 -1.9618 -0.0303
15397TIP3    H267683   2.211   1.201  11.655 -1.8560 -0.7832 -2.2097
15398TIP3   OH267684   3.763   2.102  11.576 -0.2674  0.1803  0.1858
15398TIP3    H167685   3.704   2.063  11.641 -0.7079  0.6236  0.0646
15398TIP3    H267686   3.850   2.096  11.615 -0.5861  0.8737  1.0415
15399TIP3   OH267687   5.945   0.023   4.243  0.1903  0.9062  0.0927
15399TIP3    H167688   5.875   0.030   4.308 -1.2178 -0.0652 -1.2535
15399TIP3    H267689   5.935  -0.064   4.206  0.3581  1.7456 -2.0620
15400TIP3   OH267690   2.874   1.902  12.733  0.6853 -0.4607 -0.0601
15400TIP3    H167691   2.802   1.960  12.708  0.3676 -0.1532  1.4369
15400TIP3    H267692   2.948   1.960  12.750  0.3444 -0.4289  1.5207
15401TIP3   OH267693   4.836   5.952  13.161 -0.3247 -0.4517  0.0055
15401TIP3    H167694   4.743   5.956  13.180 -0.5237 -0.1699 -0.9577
15401TIP3    H267695   4.841   5.930  13.068  0.5734 -0.8676  0.1348
15402TIP3   OH267696   4.003   0.877  15.684 -0.6634  0.3072 -0.8680
15402TIP3    H167697   3.990   0.789  15.648 -2.6539 -0.0139  0.5124
15402TIP3    H267698   3.944   0.932  15.633 -1.1759  0.4130 -0.1600
15403TIP3   OH267699   5.907   3.346  10.876  0.4236 -0.8132  0.1567
15403TIP3    H167700   5.931   3.254  10.881 -0.3490 -1.0509 -0.4380
15403TIP3    H267701   5.835   3.349  10.813  0.9517  0.2986 -0.4174
15404TIP3   OH267702   4.332   5.265   2.128 -0.6050  0.1888 -0.2618
15404TIP3    H167703   4.348   5.187   2.181  2.2816  0.8904  0.0920
15404TIP3    H267704   4.320   5.335   2.192  3.4308  1.1434 -0.2905
15405TIP3   OH267705   0.014   3.423  11.394  0.1055  0.4176 -0.3136
15405TIP3    H167706  -0.007   3.330  11.396 -0.3773  0.5340  1.2642
15405TIP3    H267707   0.067   3.437  11.473 -2.2410  1.9817  1.1012
15406TIP3   OH267708   2.894   0.519   1.918 -0.0400 -0.4464  0.4171
15406TIP3    H167709   2.944   0.589   1.876 -2.8888  0.6603 -1.4689
15406TIP3    H267710   2.959   0.468   1.966  2.4461  2.3444  0.2919
15407TIP3   OH267711   3.714   4.871  13.238  0.3365 -0.2270 -0.1346
15407TIP3    H167712   3.796   4.894  13.283  0.9826 -1.6412 -0.5117
15407TIP3    H267713   3.738   4.864  13.146 -0.0227 -1.3948 -0.1523
15408TIP3   OH267714   1.253   3.634  12.812  0.3655  0.1016 -0.7721
15408TIP3    H167715   1.179   3.656  12.870  1.0989 -1.0881  0.6832
15408TIP3    H267716   1.305   3.714  12.810  0.1913  0.2484  0.0178
15409TIP3   OH267717   4.769   3.540   6.438 -0.3410  0.3060  0.3398
15409TIP3    H167718   4.835   3.537   6.507  3.0338 -0.1991 -2.5792
15409TIP3    H267719   4.770   3.452   6.400 -2.9996  0.2069  0.2952
15410TIP3   OH267720   1.478   5.986  13.004 -0.5688 -0.7742 -0.6845
15410TIP3    H167721   1.445   6.070  13.035  0.3371  0.2304 -2.2588
15410TIP3    H267722   1.407   5.925  13.020 -1.1103  0.1971  0.8546
15411TIP3   OH267723   1.488   6.007  10.749 -0.0041 -0.5472 -0.3843
15411TIP3    H167724   1.508   6.098  10.726  0.9754 -0.9578 -1.2517
15411TIP3    H267725   1.443   5.973  10.671  1.8616 -1.4871 -1.1155
15412TIP3   OH267726   0.057   1.375   1.331  0.4947 -0.2808 -0.8474
15412TIP3    H167727   0.066   1.459   1.375  1.6908 -0.9002  0.1541
15412TIP3    H267728  -0.034   1.349   1.345  0.6349 -0.0703  0.5686
15413TIP3   OH267729   2.899   3.883   3.227  0.0107  0.4515  0.1481
15413TIP3    H167730   2.908   3.953   3.292  1.1473 -1.1069  1.7478
15413TIP3    H267731   2.985   3.876   3.186  1.3610 -2.7024  3.0085
15414TIP3   OH267732   0.347   0.000   0.099  0.0523 -0.1271 -0.2578
15414TIP3    H167733   0.313   0.035   0.181  1.7068 -0.1644  0.4829
15414TIP3    H267734   0.283  -0.065   0.071  0.0320 -0.9466  1.6143
15415TIP3   OH267735   1.248   1.018  16.028 -0.1487  0.3182  0.0362
15415TIP3    H167736   1.223   1.095  16.078  1.8479  0.9344  0.1480
15415TIP3    H267737   1.292   0.961  16.091  2.1050  0.9646 -0.8602
15416TIP3   OH267738   2.683   3.881   1.806  0.3138 -0.1654  0.2024
15416TIP3    H167739   2.662   3.882   1.899  0.8849 -1.4902  0.3577
15416TIP3    H267740   2.718   3.794   1.789 -0.5602 -0.2446 -1.4339
15417TIP3   OH267741   0.022   2.320   4.293  0.2458  0.2772 -0.3539
15417TIP3    H167742   0.007   2.381   4.222 -0.2510  1.5193  0.7701
15417TIP3    H267743  -0.029   2.242   4.269  0.0468  0.6908 -1.3138
15418TIP3   OH267744   2.470   1.836   2.561  0.4571  0.2264  0.6032
15418TIP3    H167745   2.564   1.824   2.576  0.8868  2.1260 -0.3113
15418TIP3    H267746   2.442   1.897   2.630  0.0909  0.3438  0.3555
15419TIP3   OH267747   6.096   3.646   2.705 -0.0784  0.8095  0.1766
15419TIP3    H167748   6.040   3.723   2.717 -1.5910 -0.1719 -0.2701
15419TIP3    H267749   6.048   3.591   2.643  1.3942 -0.1028 -0.2064
15420TIP3   OH267750   2.000   6.075  14.533 -0.0900  0.3370 -0.0635
15420TIP3    H167751   2.020   6.109  14.620 -0.9313 -0.0550  0.2959
15420TIP3    H267752   1.921   6.122  14.506  0.7245  1.1886 -1.0564
15421TIP3   OH267753   5.552   3.754   4.012 -0.1174 -0.2775  0.3414
15421TIP3    H167754   5.460   3.781   4.021 -0.2265 -1.1241  1.9436
15421TIP3    H267755   5.602   3.828   4.046 -0.2588 -0.3108  0.6259
15422TIP3   OH267756   4.222   3.214  14.074 -0.3036 -0.4862  0.0685
15422TIP3    H167757   4.230   3.119  14.083  3.0759 -0.5173 -1.6448
15422TIP3    H267758   4.173   3.226  13.993 -0.2578 -0.7645 -0.0020
15423TIP3   OH267759   3.683   1.409   5.899  0.0420 -0.4147  0.0041
15423TIP3    H167760   3.620   1.436   5.833  0.3026 -2.6826 -1.2480
15423TIP3    H267761   3.631   1.366   5.966  0.0802 -0.7268 -0.1668
15424TIP3   OH267762   0.442   6.295  10.977  0.3521  0.1976  0.2461
15424TIP3    H167763   0.467   6.348  10.901  0.8837  0.1183  0.3656
15424TIP3    H267764   0.360   6.253  10.950 -0.5341  1.6907  0.4268
15425TIP3   OH267765   0.129   2.066   3.677 -0.2897  0.5450  0.1394
15425TIP3    H167766   0.093   1.979   3.696 -2.0639  1.0559 -0.6884
15425TIP3    H267767   0.080   2.125   3.734 -0.7835  1.2685 -1.0088
15426TIP3   OH267768   5.515   2.396  15.014 -0.3911 -0.3615  0.1134
15426TIP3    H167769   5.423   2.419  15.010 -0.1114  0.8939  0.5151
15426TIP3    H267770   5.516   2.300  15.017 -1.6949 -0.3770  0.6267
15427TIP3   OH267771   2.937   4.531  13.472  0.0018 -0.5483  0.6549
15427TIP3    H167772   2.954   4.528  13.566  2.6688  0.5498  0.2908
15427TIP3    H267773   2.857   4.479  13.461 -0.5713 -0.4663  3.5268
15428TIP3   OH267774   6.063   5.075   2.048  1.0503  0.0643 -1.1024
15428TIP3    H167775   6.003   5.036   1.983  0.4762  0.7491 -0.9941
15428TIP3    H267776   6.148   5.076   2.004  0.6089  0.7923 -1.9679
15429TIP3   OH267777   4.881   6.509   1.404 -0.1607 -0.2099 -0.3128
15429TIP3    H167778   4.843   6.425   1.380 -1.2518 -0.0485  0.7356
15429TIP3    H267779   4.926   6.539   1.325  0.7331 -2.0205 -0.5340
15430TIP3   OH267780   3.117   2.779   1.884  0.2623  0.4885  0.9132
15430TIP3    H167781   3.086   2.781   1.974 -1.5385  0.8650  0.3386
15430TIP3    H267782   3.091   2.863   1.848 -1.2558 -0.5491 -0.5937
15431TIP3   OH267783   4.581   5.285  13.851  0.5791 -0.1657 -0.1888
15431TIP3    H167784   4.645   5.277  13.780  0.1733  1.1064 -0.7235
15431TIP3    H267785   4.527   5.360  13.826  1.0621  0.9613  1.9797
15432TIP3   OH267786   6.725   1.648   4.623 -0.1642  0.1820 -0.4891
15432TIP3    H167787   6.782   1.706   4.574  0.4650 -0.0953 -0.1041
15432TIP3    H267788   6.673   1.706   4.678 -0.8567  0.4901 -1.4538
15433TIP3   OH267789   0.856   6.472  12.558 -0.3238 -0.1763 -0.3556
15433TIP3    H167790   0.815   6.548  12.598 -1.3582 -1.8051  1.8715
15433TIP3    H267791   0.791   6.439  12.496 -0.0678  0.4261 -0.9619
15434TIP3   OH267792   6.733   6.514  15.625  0.2708 -0.4158  0.2218
15434TIP3    H167793   6.764   6.585  15.568 -0.1736 -0.8785 -0.6127
15434TIP3    H267794   6.646   6.492  15.591 -0.7746  0.4714  2.1808
15435TIP3   OH267795   4.120   3.140  13.430  0.1347 -0.0182 -0.4189
15435TIP3    H167796   4.195   3.200  13.429 -0.2435  0.4961  0.4001
15435TIP3    H267797   4.061   3.178  13.495  0.3247 -1.8036  0.8714
15436TIP3   OH267798   1.736   0.326  12.470  0.2142 -0.4908 -0.2086
15436TIP3    H167799   1.760   0.417  12.490  0.3162 -0.2644 -1.2848
15436TIP3    H267800   1.787   0.273  12.532 -1.0336  0.2303  1.5080
15437TIP3   OH267801   4.083   6.133  12.415  0.6273 -0.2087 -0.0016
15437TIP3    H167802   4.172   6.160  12.440  0.5009  0.2890 -0.0896
15437TIP3    H267803   4.049   6.089  12.493  1.6283 -2.1224 -0.5658
15438TIP3   OH267804   1.386   0.975  11.497  0.0213 -0.3452  0.1865
15438TIP3    H167805   1.327   0.901  11.484  0.6040 -0.9875  1.0762
15438TIP3    H267806   1.338   1.050  11.463 -2.1098 -0.5050  2.5364
15439TIP3   OH267807   3.367   4.209  16.991  0.1677 -0.1922  0.4512
15439TIP3    H167808   3.278   4.185  17.017 -0.0138  1.5418  1.6038
15439TIP3    H267809   3.356   4.289  16.939  0.9739 -0.6973 -0.5356
15440TIP3   OH267810   4.369   0.216   0.291  0.0384 -0.3876  0.1208
15440TIP3    H167811   4.276   0.195   0.282 -0.0225  0.2485 -0.8546
15440TIP3    H267812   4.398   0.238   0.202  0.4853  1.9948  0.8005
15441TIP3   OH267813   2.570   0.339   1.878  0.0787 -0.1454 -0.1897
15441TIP3    H167814   2.604   0.273   1.939 -0.6496 -1.1690 -0.8485
15441TIP3    H267815   2.478   0.349   1.902 -0.8530 -2.2322 -2.4334
15442TIP3   OH267816   0.493   2.346  11.228  0.1907 -0.0350 -0.2017
15442TIP3    H167817   0.433   2.402  11.276 -0.3252  0.6422 -1.5881
15442TIP3    H267818   0.580   2.372  11.259 -0.0701  1.1992 -0.4642
15443TIP3   OH267819   0.055   5.625   1.555 -0.1104 -0.4744 -0.0311
15443TIP3    H167820   0.053   5.696   1.490 -0.0646 -0.7441 -0.3280
15443TIP3    H267821   0.145   5.625   1.588 -0.4411  0.4734  0.9384
15444TIP3   OH267822   6.119   1.734   3.707  0.7367  0.7465 -0.3162
15444TIP3    H167823   6.109   1.681   3.628 -1.4632 -0.6716  0.7995
15444TIP3    H267824   6.143   1.670   3.775 -0.4165  1.4216  0.7527
15445TIP3   OH267825   4.947   0.545  11.701 -0.2784 -0.4091  0.5244
15445TIP3    H167826   5.009   0.609  11.736  2.6900 -2.2626 -0.9480
15445TIP3    H267827   4.894   0.595  11.639 -0.8363  1.3822  2.3331
15446TIP3   OH267828   3.587   2.891  11.240 -0.7648 -0.4351  0.0993
15446TIP3    H167829   3.577   2.884  11.146 -0.2560 -1.2655  0.0980
15446TIP3    H267830   3.573   2.984  11.259 -3.5833 -0.6729 -0.4440
15447TIP3   OH267831   3.048   4.167  11.633  0.3687  0.1190 -0.1726
15447TIP3    H167832   3.082   4.176  11.722 -0.3715  0.4335  0.0840
15447TIP3    H267833   3.028   4.257  11.606 -3.4659 -0.2222  0.9728
15448TIP3   OH267834   3.426   1.486  16.658 -0.7652  0.0065  0.2544
15448TIP3    H167835   3.390   1.407  16.616 -0.3798  0.8653 -1.7727
15448TIP3    H267836   3.352   1.546  16.663 -1.3835 -0.8022  2.9152
15449TIP3   OH267837   1.813   4.656  13.040 -0.1730  0.3063  0.0150
15449TIP3    H167838   1.886   4.598  13.060  0.7089  1.1791 -0.5741
15449TIP3    H267839   1.829   4.734  13.094 -0.0053  0.9873 -0.9818
15450TIP3   OH267840   2.776   1.590  13.577  0.0575 -0.4384  0.1706
15450TIP3    H167841   2.711   1.563  13.513 -0.3637 -0.5144  0.6252
15450TIP3    H267842   2.754   1.541  13.656 -0.1511  0.5194  0.7235
15451TIP3   OH267843   3.293   1.618  11.590  0.3468 -0.3838 -0.0154
15451TIP3    H167844   3.256   1.633  11.503 -0.6404 -0.6572  0.3498
15451TIP3    H267845   3.253   1.536  11.619 -1.4058  1.0146  1.7754
15452TIP3   OH267846   0.471   3.681   4.664 -0.0380  0.9543  0.0591
15452TIP3    H167847   0.459   3.681   4.569  2.5850  1.2031 -0.3458
15452TIP3    H267848   0.391   3.721   4.699 -1.0939  0.7757 -2.0145
15453TIP3   OH267849   5.513   5.199  14.607 -0.3330 -1.0973  0.0579
15453TIP3    H167850   5.465   5.240  14.535  0.7222  1.6239  0.7775
15453TIP3    H267851   5.499   5.257  14.681  1.1147 -2.1700  1.2362
15454TIP3   OH267852   4.266   1.612  13.138 -0.4950  0.5225  0.0904
15454TIP3    H167853   4.292   1.527  13.103 -1.7399  0.4962 -0.8315
15454TIP3    H267854   4.236   1.662  13.062 -0.1708  1.6504  0.6725
15455TIP3   OH267855   2.863   2.467   5.325 -0.4390 -0.0329  0.1103
15455TIP3    H167856   2.792   2.410   5.297 -0.0898 -0.7770  0.6822
15455TIP3    H267857   2.866   2.537   5.260 -0.2353 -1.2026 -1.1796
15456TIP3   OH267858   2.082   3.892   4.926 -0.1291 -0.0930  0.1434
15456TIP3    H167859   2.167   3.902   4.968 -0.4066  0.2756  0.6356
15456TIP3    H267860   2.056   3.802   4.946  0.0508 -0.1396  0.1690
15457TIP3   OH267861   3.972   3.175   5.525 -0.1290  0.3012 -0.3475
15457TIP3    H167862   4.028   3.193   5.450 -0.6627  0.1578 -0.7837
15457TIP3    H267863   4.023   3.114   5.579  0.4491  0.7757 -0.3547
15458TIP3   OH267864   0.176   2.704  14.377  0.3799 -0.1294 -0.3423
15458TIP3    H167865   0.243   2.676  14.315 -0.1567 -0.3960 -0.8104
15458TIP3    H267866   0.180   2.800  14.376  0.6738 -0.1426 -0.4485
15459TIP3   OH267867   6.203   0.027   3.956 -0.2317 -0.2237 -0.5043
15459TIP3    H167868   6.186  -0.042   3.891 -2.3187 -1.1148  0.8769
15459TIP3    H267869   6.206  -0.019   4.040  1.5354  1.0117  0.1628
15460TIP3   OH267870   2.047   6.383  15.772 -0.4145  0.4708  0.2145
15460TIP3    H167871   2.000   6.451  15.821 -1.4285 -0.3500  0.4011
15460TIP3    H267872   2.112   6.349  15.834  0.4009  1.5503 -0.0179
15461TIP3   OH267873   5.646   6.639   0.912  0.1435  0.1167 -0.0358
15461TIP3    H167874   5.735   6.612   0.890  0.4712  0.6073  0.6465
15461TIP3    H267875   5.612   6.567   0.964 -0.4485 -0.8072 -1.6192
15462TIP3   OH267876   3.624   6.559   4.074 -0.4953  0.1177 -0.3909
15462TIP3    H167877   3.548   6.520   4.031 -0.8274  0.2712  0.0409
15462TIP3    H267878   3.624   6.521   4.162 -0.6767  0.8789 -0.0502
15463TIP3   OH267879   1.940   3.447  15.334  0.7004 -0.2604  0.0556
15463TIP3    H167880   1.914   3.356  15.326  2.7406 -0.8613 -0.3456
15463TIP3    H267881   1.986   3.467  15.252 -0.2722  1.3386 -0.1457
15464TIP3   OH267882   6.112   1.528   3.949  0.5504  0.4769  0.3195
15464TIP3    H167883   6.032   1.510   3.900  0.1995  1.0368  0.6787
15464TIP3    H267884   6.155   1.442   3.957 -0.0635  0.1538  0.2224
15465TIP3   OH267885   6.719   4.090   4.317 -0.8988  0.1235 -0.2516
15465TIP3    H167886   6.629   4.084   4.285 -0.7293 -0.1007 -0.6927
15465TIP3    H267887   6.714   4.061   4.408 -1.4008  0.8704 -0.0371
15466TIP3   OH267888   4.209   3.518  11.033  0.4262  0.3091 -0.0557
15466TIP3    H167889   4.268   3.577  10.986  0.0262  0.7861  0.0246
15466TIP3    H267890   4.124   3.563  11.031  0.3775  0.2939  1.0375
15467TIP3   OH267891   2.552   3.748  13.253  0.3892  0.0432  0.2237
15467TIP3    H167892   2.527   3.693  13.179  0.3804 -1.6199  1.4109
15467TIP3    H267893   2.635   3.789  13.226 -0.3313  0.6074 -1.2370
15468TIP3   OH267894   2.782   2.081  11.597  0.1555  0.4222  0.1153
15468TIP3    H167895   2.768   2.126  11.680  0.1420  0.3776  0.1378
15468TIP3    H267896   2.694   2.064  11.564  0.1481 -0.0309  0.3494
15469TIP3   OH267897   1.745   4.184  11.426 -0.0795 -0.0907 -0.6095
15469TIP3    H167898   1.835   4.175  11.456 -0.3183 -0.9520 -0.1133
15469TIP3    H267899   1.723   4.098  11.391 -0.6893  0.1268 -0.7724
15470TIP3   OH267900   5.343   1.469  15.761 -0.3328  0.2663 -0.2603
15470TIP3    H167901   5.374   1.489  15.849 -0.9079  0.9768 -0.2045
15470TIP3    H267902   5.422   1.467  15.707 -0.1053  1.2293  0.0200
15471TIP3   OH267903   6.080   4.418  16.104  0.1967 -0.2292  0.2877
15471TIP3    H167904   6.069   4.431  16.010  0.8220  0.5750  0.3153
15471TIP3    H267905   6.172   4.393  16.115  0.1075 -0.4067  0.6833
15472TIP3   OH267906   2.918   6.346  12.595  0.1170 -0.2749  0.8660
15472TIP3    H167907   2.852   6.415  12.602 -0.3232 -0.3803 -1.5630
15472TIP3    H267908   2.999   6.387  12.624 -0.4220  0.8108  0.8972
15473TIP3   OH267909   1.496   2.033  16.487  0.2453  0.2574 -0.2075
15473TIP3    H167910   1.557   2.103  16.463  0.1903  0.4623  0.2335
15473TIP3    H267911   1.553   1.959  16.509  0.4016  0.7810  1.2678
15474TIP3   OH267912   5.346   4.641  13.054 -0.0400  0.3893 -0.4044
15474TIP3    H167913   5.280   4.580  13.022  0.4701 -0.5701  0.3352
15474TIP3    H267914   5.378   4.602  13.135 -0.1609  1.9775  0.4387
15475TIP3   OH267915   0.084   1.987  15.098  0.2759 -0.6729  0.3994
15475TIP3    H167916  -0.005   1.972  15.129  0.3451 -1.3336  0.2885
15475TIP3    H267917   0.102   1.912  15.041  0.1583  0.4794 -1.2336
15476TIP3   OH267918   3.510   3.796  17.019  0.6043 -0.3653  0.7254
15476TIP3    H167919   3.564   3.748  16.957  0.3175 -0.2396  0.3736
15476TIP3    H267920   3.549   3.883  17.023  0.8140 -0.4691  0.9671
15477TIP3   OH267921   0.361   3.314  12.881 -0.0795 -0.0500 -0.3637
15477TIP3    H167922   0.269   3.340  12.879 -0.0788 -0.1073 -1.8730
15477TIP3    H267923   0.359   3.224  12.914 -0.2266  1.0602  3.0504
15478TIP3   OH267924   2.437   6.687  14.580  0.0957  0.6931 -0.9185
15478TIP3    H167925   2.480   6.621  14.526  1.6330  0.5194  0.4468
15478TIP3    H267926   2.479   6.769  14.556  1.4623  0.4873  0.6004
15479TIP3   OH267927   3.341   5.908  12.719  0.4186 -0.2193 -0.3770
15479TIP3    H167928   3.366   5.953  12.638  0.0551  0.4169 -0.1502
15479TIP3    H267929   3.423   5.876  12.756  0.7422  0.6246 -0.3416
15480TIP3   OH267930   1.591   4.924  13.255 -0.4812  0.2922 -0.4796
15480TIP3    H167931   1.513   4.975  13.276  0.0852  1.1777 -0.4742
15480TIP3    H267932   1.628   4.902  13.341 -1.1854 -0.8919 -0.4546
15481TIP3   OH267933   3.304   6.120   4.764  0.0294  0.3527 -0.0395
15481TIP3    H167934   3.294   6.097   4.671 -0.0251 -0.5828  0.1892
15481TIP3    H267935   3.348   6.205   4.763  1.9011 -0.5765 -0.9182
15482TIP3   OH267936   2.771   6.803  13.941  0.2220  0.2269  0.2228
15482TIP3    H167937   2.772   6.708  13.947 -1.0715  0.2706  2.9757
15482TIP3    H267938   2.765   6.822  13.848  0.2070 -2.3814 -0.3697
15483TIP3   OH267939   0.617   3.608  15.995 -1.0303 -0.1101 -0.3770
15483TIP3    H167940   0.708   3.621  16.022 -0.9774 -0.9437 -0.1447
15483TIP3    H267941   0.570   3.590  16.076 -1.6356  1.4776 -0.3365
15484TIP3   OH267942   4.630   4.454  12.508 -0.3088 -0.3964  0.0408
15484TIP3    H167943   4.549   4.443  12.458 -1.0493  0.9001  0.8987
15484TIP3    H267944   4.634   4.378  12.565 -0.7834 -0.5975 -0.1865
15485TIP3   OH267945   4.152   0.564   4.161 -0.1332 -0.0844  0.1030
15485TIP3    H167946   4.182   0.474   4.170 -0.5020 -0.1937  0.2485
15485TIP3    H267947   4.144   0.595   4.252 -1.1721 -0.2914  0.0847
15486TIP3   OH267948   1.375   1.228  12.213 -0.0309  0.2962 -0.0949
15486TIP3    H167949   1.471   1.229  12.204  0.1022  1.3735  1.1138
15486TIP3    H267950   1.357   1.290  12.284 -1.7341  1.1656 -1.2225
15487TIP3   OH267951   4.884   3.962   6.183  0.1849 -0.1998 -0.4302
15487TIP3    H167952   4.926   3.909   6.250 -0.7093 -0.4932 -0.0939
15487TIP3    H267953   4.946   3.961   6.110  1.2500  0.2637  0.4298
15488TIP3   OH267954   3.819   3.198   3.130  0.2407  0.0070 -0.2574
15488TIP3    H167955   3.782   3.138   3.066  2.9364 -0.4399 -1.5660
15488TIP3    H267956   3.762   3.192   3.206 -0.9059 -2.4083 -1.2354
15489TIP3   OH267957   5.817   2.895  11.726 -0.1420  0.1784 -0.5578
15489TIP3    H167958   5.867   2.815  11.741  0.7723  0.7242 -0.6337
15489TIP3    H267959   5.878   2.954  11.681 -0.6589  1.0820 -0.1074
15490TIP3   OH267960   6.644   1.021   0.213  1.0964  0.0489  0.2331
15490TIP3    H167961   6.610   1.108   0.234  1.3524 -0.2737  2.2664
15490TIP3    H267962   6.602   0.998   0.130 -0.2473  1.4389  0.4715
15491TIP3   OH267963   3.843   1.821  13.667 -0.5343 -0.1505  0.0814
15491TIP3    H167964   3.871   1.794  13.755  0.4562  0.4915 -0.0311
15491TIP3    H267965   3.749   1.838  13.677 -0.2630  0.8357  1.2622
15492TIP3   OH267966   6.465   1.794   1.835  0.0383 -0.9347  0.3142
15492TIP3    H167967   6.484   1.700   1.840 -0.9613 -1.1304  0.7847
15492TIP3    H267968   6.396   1.807   1.900 -3.0135 -0.7242 -2.6808
15493TIP3   OH267969   3.063   0.014   1.399 -0.3289 -0.5665  0.0072
15493TIP3    H167970   3.075   0.042   1.308  0.0514  0.8591  0.4724
15493TIP3    H267971   2.973  -0.018   1.402 -0.0899 -1.4197 -1.0454
15494TIP3   OH267972   4.584   5.197   1.442 -0.1030 -0.4324  1.0689
15494TIP3    H167973   4.503   5.164   1.481  0.0832  0.7378  2.5393
15494TIP3    H267974   4.614   5.265   1.502  3.0314 -2.1251  1.6477
15495TIP3   OH267975   4.864   6.225   3.896  0.4272 -0.0428 -0.2555
15495TIP3    H167976   4.865   6.142   3.942 -0.4043  0.0990  0.0367
15495TIP3    H267977   4.884   6.203   3.805 -0.2353 -0.6267 -0.2679
15496TIP3   OH267978   5.245   4.773   6.267  0.0044  0.1403 -0.1067
15496TIP3    H167979   5.209   4.856   6.300 -0.4870 -0.4850  0.9879
15496TIP3    H267980   5.295   4.738   6.340 -0.9555 -1.2008 -0.0675
15497TIP3   OH267981   6.488   0.281  14.199  0.1902 -0.6460 -0.0974
15497TIP3    H167982   6.450   0.296  14.112  0.5413  0.2117 -0.1071
15497TIP3    H267983   6.576   0.317  14.193 -0.1758  0.4800  0.9705
15498TIP3   OH267984   2.902   3.178   0.514  0.1507  0.2565 -0.3490
15498TIP3    H167985   2.857   3.213   0.592 -1.0420  0.2747 -1.0197
15498TIP3    H267986   2.851   3.212   0.440  1.3654  0.3691 -1.1511
15499TIP3   OH267987   4.846   0.008  11.504 -0.1045 -0.5434  0.1898
15499TIP3    H167988   4.884  -0.069  11.462  1.2698  0.1100  0.1573
15499TIP3    H267989   4.790   0.048  11.438 -1.4156 -1.8861  0.4433
15500TIP3   OH267990   1.955   0.731   4.390  0.7456  0.1272 -0.2618
15500TIP3    H167991   2.040   0.766   4.416  1.8339 -0.4942 -2.6177
15500TIP3    H267992   1.975   0.677   4.313 -1.7664 -0.2192 -0.7526
15501TIP3   OH267993   3.576   1.265   6.110  0.8514  0.1299  0.1560
15501TIP3    H167994   3.581   1.332   6.178 -1.0374 -1.8599  2.4416
15501TIP3    H267995   3.485   1.268   6.080  1.1412 -0.4079 -0.8170
15502TIP3   OH267996   3.521   6.183  11.996 -0.2240 -0.2050  0.0197
15502TIP3    H167997   3.600   6.221  12.034 -1.0991  1.1450  0.5662
15502TIP3    H267998   3.533   6.088  12.004  0.9348  0.0055  0.9065
15503TIP3   OH267999   0.821   0.507  11.810  0.0279  0.4926  0.1020
15503TIP3    H168000   0.806   0.589  11.763 -0.3052  0.3502 -0.0411
15503TIP3    H268001   0.763   0.444  11.768  0.2924  0.1793  0.2044
15504TIP3   OH268002   3.309   6.589  14.588 -0.0455 -0.0920  0.4850
15504TIP3    H168003   3.301   6.496  14.612  0.6756  0.1887  1.9693
15504TIP3    H268004   3.302   6.590  14.493 -2.3644 -1.4132  0.5662
15505TIP3   OH268005   2.477   2.275  16.110 -0.6915 -0.5540  0.1961
15505TIP3    H168006   2.487   2.180  16.104  1.8221 -0.2678 -1.2622
15505TIP3    H268007   2.396   2.294  16.062 -1.5241 -1.9473  0.9779
15506TIP3   OH268008   4.543   0.244   5.382 -0.1651  0.2640  0.0954
15506TIP3    H168009   4.461   0.208   5.348  0.0446 -0.3887  0.2706
15506TIP3    H268010   4.537   0.232   5.476  0.5387 -0.6623  0.0319
15507TIP3   OH268011   2.675   3.605  11.407  0.5836  0.7366  0.2069
15507TIP3    H168012   2.688   3.661  11.484 -0.1496 -0.1028  0.9705
15507TIP3    H268013   2.643   3.664  11.340  3.4000  1.9433 -0.2339
15508TIP3   OH268014   0.414   4.780   5.857  0.1217  0.4294 -0.1157
15508TIP3    H168015   0.415   4.714   5.926  0.5062  1.2312  0.6681
15508TIP3    H268016   0.459   4.855   5.895 -1.7249  1.7389 -0.3684
15509TIP3   OH268017   3.236   2.864   4.367 -0.3578  0.3653  0.1383
15509TIP3    H168018   3.267   2.884   4.456  0.3905 -0.5053  0.0920
15509TIP3    H268019   3.309   2.817   4.326 -1.1001 -0.2133 -0.5702
15510TIP3   OH268020   1.861   0.030  15.974 -0.1178 -0.8335 -0.0609
15510TIP3    H168021   1.843   0.053  16.065 -0.5328 -0.4545 -0.2307
15510TIP3    H268022   1.796   0.080  15.924  0.8090 -0.1673 -0.6411
15511TIP3   OH268023   4.572   6.439  11.529 -0.1890 -0.5690  0.4984
15511TIP3    H168024   4.511   6.368  11.509 -0.0865 -0.5202  0.0011
15511TIP3    H268025   4.651   6.418  11.481 -0.8010  0.8432 -1.2465
15512TIP3   OH268026   1.083   6.512   5.689 -0.8148  0.0089 -0.4497
15512TIP3    H168027   1.088   6.554   5.775 -0.7431  0.0083 -0.4536
15512TIP3    H268028   1.169   6.526   5.650 -0.5213 -0.8364 -0.1185
15513TIP3   OH268029   1.783   6.730  12.263  0.0816 -0.0172 -0.7364
15513TIP3    H168030   1.706   6.704  12.313  0.3928 -2.3969 -1.3771
15513TIP3    H268031   1.765   6.820  12.237 -0.0899  1.3668  3.5234
15514TIP3   OH268032   4.955   4.178   4.332  0.4245 -1.1356 -0.4070
15514TIP3    H168033   4.976   4.253   4.387 -1.7273 -0.7816  0.0382
15514TIP3    H268034   4.894   4.212   4.266  0.2845 -2.2496 -0.8848
15515TIP3   OH268035   5.816   4.435  13.193 -0.0507 -0.3770 -0.4438
15515TIP3    H168036   5.902   4.458  13.228 -0.5607 -0.7216  1.1002
15515TIP3    H268037   5.781   4.517  13.159  0.7480 -0.1746 -0.8038
15516TIP3   OH268038   5.009   2.936   0.580 -0.2620 -0.0914 -0.2216
15516TIP3    H168039   5.047   3.010   0.627  1.1468 -1.7057  1.3433
15516TIP3    H268040   5.083   2.897   0.533 -0.3547 -1.9991  1.1010
15517TIP3   OH268041   4.797   6.728   6.272  0.1080 -0.0031 -0.3548
15517TIP3    H168042   4.875   6.674   6.285  1.2598  1.8994  1.0270
15517TIP3    H268043   4.729   6.684   6.323  0.6045 -0.9599 -0.4896
15518TIP3   OH268044   6.573   1.770  11.732 -0.7890 -0.2529  0.2876
15518TIP3    H168045   6.509   1.701  11.714 -2.0198 -0.3136  4.0315
15518TIP3    H268046   6.529   1.851  11.706 -0.4258 -0.5936 -1.5353
15519TIP3   OH268047   6.757   5.852  11.821 -0.4204 -0.3197  0.0840
15519TIP3    H168048   6.789   5.939  11.798 -0.6916  0.1452  1.3872
15519TIP3    H268049   6.670   5.867  11.857 -0.8782 -1.2497 -0.5915
15520TIP3   OH268050   6.194   1.999   2.428 -0.0070  0.8091  0.0787
15520TIP3    H168051   6.207   2.094   2.420 -0.8396  0.7880 -2.4788
15520TIP3    H268052   6.127   1.978   2.363  1.2322 -1.7451 -0.5184
15521TIP3   OH268053   6.075   1.678  15.308  0.0486  0.1271  0.3159
15521TIP3    H168054   6.147   1.715  15.256 -0.4274  1.4748  0.5665
15521TIP3    H268055   6.109   1.595  15.340 -0.6536 -2.4772 -4.6734
15522TIP3   OH268056   0.831   5.717  15.381  0.6834 -0.0359  0.1101
15522TIP3    H168057   0.758   5.671  15.422  1.3353  0.6514  2.1688
15522TIP3    H268058   0.800   5.808  15.374  0.2819 -0.2840 -1.7433
15523TIP3   OH268059   2.917   2.273  16.348 -0.5528  0.5017 -0.1420
15523TIP3    H168060   2.940   2.194  16.398 -0.4213  0.4465 -0.2908
15523TIP3    H268061   2.823   2.267  16.335 -0.3115 -0.4675 -1.5973
15524TIP3   OH268062   4.014   5.862   2.349 -0.0936 -0.1971 -0.0006
15524TIP3    H168063   3.974   5.778   2.327  1.0808 -1.5926  2.6455
15524TIP3    H268064   3.940   5.920   2.368 -0.9479 -0.3051 -2.6452
15525TIP3   OH268065   5.778   1.644   2.641 -0.0401  0.6574  0.5271
15525TIP3    H168066   5.828   1.663   2.721 -0.3791  0.5294  0.7743
15525TIP3    H268067   5.773   1.728   2.595 -2.3078  1.4696  2.0524
15526TIP3   OH268068   3.946   6.164  11.947 -0.0657  0.0063  0.6655
15526TIP3    H168069   4.023   6.208  11.911 -0.4418 -0.0402 -0.2053
15526TIP3    H268070   3.899   6.233  11.994  0.0005  0.2558  0.3686
15527TIP3   OH268071   6.001   6.796   3.668 -0.1193 -0.1597  0.1647
15527TIP3    H168072   6.008   6.889   3.688 -0.5670  0.1981 -1.2219
15527TIP3    H268073   6.004   6.752   3.753 -0.8925  1.1746  0.9050
15528TIP3   OH268074   1.563   3.262   1.919  0.6848 -0.2480  0.2718
15528TIP3    H168075   1.467   3.264   1.922  0.6469 -1.9422  0.8200
15528TIP3    H268076   1.587   3.341   1.870 -1.0367 -0.6157 -1.2342
15529TIP3   OH268077   5.232   6.671   5.928 -0.2508 -0.3448  0.3419
15529TIP3    H168078   5.318   6.630   5.915 -0.1825 -0.2900  0.6202
15529TIP3    H268079   5.180   6.603   5.971 -0.0487 -0.0472  1.0765
15530TIP3   OH268080   3.459   2.006   4.143 -0.0655 -0.0128  0.2896
15530TIP3    H168081   3.549   2.037   4.132  0.8135 -2.5279 -0.3989
15530TIP3    H268082   3.468   1.923   4.189 -2.1522  0.1828  1.1447
15531TIP3   OH268083   2.476   4.151  16.766 -0.0640 -0.1134  0.2131
15531TIP3    H168084   2.424   4.077  16.734 -0.4246  0.2184  0.0200
15531TIP3    H268085   2.430   4.228  16.733  0.0412  0.2082  0.8112
15532TIP3   OH268086   1.875   1.901   1.606  0.0084 -0.3469 -0.1223
15532TIP3    H168087   1.861   1.925   1.697  1.9690 -0.3194  0.2148
15532TIP3    H268088   1.796   1.853   1.581 -0.5617 -0.3492  1.5718
15533TIP3   OH268089   6.208   6.235  11.966 -0.2783 -0.3026  0.6409
15533TIP3    H168090   6.249   6.314  12.001  2.0203 -1.1353  0.0076
15533TIP3    H268091   6.215   6.243  11.871 -0.0981 -1.2120  0.5638
15534TIP3   OH268092   4.263   3.582  12.644  0.2017 -0.2570  0.2305
15534TIP3    H168093   4.305   3.499  12.624 -1.1377 -0.5850 -1.4732
15534TIP3    H268094   4.183   3.582  12.592  0.4201  2.3450 -0.2675
15535TIP3   OH268095   0.482   1.201   5.623 -0.0663  0.1667  0.0068
15535TIP3    H168096   0.466   1.295   5.620  2.9713  0.7562 -0.5079
15535TIP3    H268097   0.498   1.183   5.716 -1.2634 -0.0195  0.1997
15536TIP3   OH268098   5.831   3.960  16.165  0.1967  0.1440  0.1083
15536TIP3    H168099   5.742   3.965  16.130  0.4722  1.0297 -0.4898
15536TIP3    H268100   5.847   4.046  16.202  0.2463 -0.4950  1.6750
15537TIP3   OH268101   1.657   4.866   1.810  0.6317  0.4445  0.3846
15537TIP3    H168102   1.604   4.805   1.759 -0.5202  1.1290  0.7084
15537TIP3    H268103   1.721   4.901   1.748  0.6498 -0.3440 -0.0425
15538TIP3   OH268104   6.014   5.598  16.640  0.0432 -0.4543 -0.7240
15538TIP3    H168105   6.038   5.651  16.716 -0.2944  0.4140 -1.2110
15538TIP3    H268106   5.952   5.534  16.674  1.3950 -1.3624  0.1199
15539TIP3   OH268107   0.332   1.392  16.173 -0.5786  0.0798  0.0528
15539TIP3    H168108   0.238   1.387  16.155 -0.6858 -0.3983  0.6988
15539TIP3    H268109   0.357   1.301  16.190  0.3432 -0.0438 -1.7505
15540TIP3   OH268110   0.336   3.293  10.752 -0.0991 -0.1801 -0.1851
15540TIP3    H168111   0.354   3.373  10.801 -1.2674  0.6726 -1.0664
15540TIP3    H268112   0.259   3.255  10.795  1.3516 -1.7102  1.1868
15541TIP3   OH268113   3.164   3.338   4.991  0.5636  0.1646  0.3801
15541TIP3    H168114   3.075   3.367   5.013  0.9575  0.9805  0.9439
15541TIP3    H268115   3.166   3.245   5.014 -0.2038  0.0872  0.1651
15542TIP3   OH268116   5.452   4.300   5.689 -0.1895 -0.5365 -0.5174
15542TIP3    H168117   5.457   4.230   5.754 -2.5985  0.5573  0.9947
15542TIP3    H268118   5.540   4.303   5.650  1.3573 -1.3855  2.5848
15543TIP3   OH268119   2.419   2.126  12.308 -0.3979  0.5202 -0.3120
15543TIP3    H168120   2.482   2.083  12.249  0.3186 -0.5854  1.1805
15543TIP3    H268121   2.335   2.117  12.263 -0.0426 -1.1937 -0.7376
15544TIP3   OH268122   0.994   3.401   3.032  0.2795  0.0717  1.2845
15544TIP3    H168123   0.975   3.399   3.126 -0.2603 -1.1165  1.1635
15544TIP3    H268124   0.987   3.310   3.004  1.1559  0.3156  0.2204
15545TIP3   OH268125   3.194   6.630   5.054  0.0245  0.3227 -0.0724
15545TIP3    H168126   3.222   6.605   5.142 -1.1674 -0.3692  0.1307
15545TIP3    H268127   3.274   6.626   5.001  0.2853 -2.0976  0.3802
15546TIP3   OH268128   2.321   6.721  16.522 -0.4491  0.5854  0.3297
15546TIP3    H168129   2.387   6.654  16.534 -1.4163 -0.2517  1.2426
15546TIP3    H268130   2.275   6.696  16.442 -0.3107  0.5788  0.2533
15547TIP3   OH268131   3.847   1.284   0.850  0.4621  0.6686  0.2470
15547TIP3    H168132   3.840   1.326   0.764  1.2971  1.6258  0.6149
15547TIP3    H268133   3.903   1.208   0.836  1.4371  1.3905  0.1137
15548TIP3   OH268134   0.657   3.999  13.498 -0.0692  0.1727 -0.2957
15548TIP3    H168135   0.613   3.972  13.417 -1.0374  0.4460  0.1187
15548TIP3    H268136   0.660   4.094  13.493 -0.0067  0.1818 -0.0835
15549TIP3   OH268137   0.535   5.020   2.944  0.4321  0.0520  0.2336
15549TIP3    H168138   0.558   5.082   2.875  0.6767 -0.4287 -0.1233
15549TIP3    H268139   0.496   5.074   3.012  0.5711  0.5898 -0.1031
15550TIP3   OH268140   1.193   2.936   2.254  0.1195  0.2135  0.4859
15550TIP3    H168141   1.281   2.933   2.216 -0.1974 -0.2640 -0.2287
15550TIP3    H268142   1.175   2.845   2.278  0.5994  0.6070  2.4860
15551TIP3   OH268143   5.356   6.029   6.693 -0.3668  0.0572  0.6030
15551TIP3    H168144   5.277   6.079   6.670 -1.5408 -1.9635  0.0240
15551TIP3    H268145   5.391   6.075   6.769  0.1368  3.3077 -1.3570
15552TIP3   OH268146   5.943   2.268  12.904 -0.9191  0.0866  0.0380
15552TIP3    H168147   5.879   2.284  12.835 -3.1368  0.0840  1.9558
15552TIP3    H268148   5.905   2.310  12.982  0.9535 -0.7966  1.5144
15553TIP3   OH268149   5.769   4.180  13.721  0.8470  0.3668 -0.4701
15553TIP3    H168150   5.790   4.145  13.807 -0.3764  0.5018 -0.1009
15553TIP3    H268151   5.790   4.109  13.660 -2.1035 -1.3562  0.2976
15554TIP3   OH268152   6.637   2.462   1.385  0.0894  0.5925 -0.4797
15554TIP3    H168153   6.573   2.495   1.448  0.8054  0.2550  0.4369
15554TIP3    H268154   6.721   2.496   1.416  0.9951 -2.6512  0.9853
15555TIP3   OH268155   3.596   3.159   5.272 -0.2005  0.8362 -0.2720
15555TIP3    H168156   3.647   3.078   5.280 -0.6086  0.3204 -2.3288
15555TIP3    H268157   3.651   3.226   5.313  1.5641  0.0679 -1.2802
15556TIP3   OH268158   1.552   0.375   1.953 -0.3420  0.2450  0.5408
15556TIP3    H168159   1.593   0.404   2.035 -0.6824  2.1073  0.1093
15556TIP3    H268160   1.583   0.438   1.888  0.3891 -1.5336 -0.9258
15557TIP3   OH268161   4.772   2.812   2.564 -0.7048 -0.1145 -0.2171
15557TIP3    H168162   4.855   2.853   2.540 -0.7524 -0.2860 -0.6912
15557TIP3    H268163   4.707   2.881   2.547 -0.7128 -0.1533 -0.3453
15558TIP3   OH268164   4.571   5.361  12.846  0.3889  0.0005  1.1664
15558TIP3    H168165   4.648   5.390  12.799 -0.7755  1.0726 -0.1740
15558TIP3    H268166   4.585   5.389  12.937  2.3057 -1.3981  1.3605
15559TIP3   OH268167   2.633   3.306  13.451 -0.3189  0.8008 -1.2253
15559TIP3    H168168   2.566   3.370  13.473 -0.4978  0.0022  0.8361
15559TIP3    H268169   2.602   3.224  13.491  1.4500  0.2138 -0.9540
15560TIP3   OH268170   6.625   2.164   0.062  0.7234 -0.1789  0.1826
15560TIP3    H168171   6.698   2.198   0.010  1.4873  1.5475  2.2093
15560TIP3    H268172   6.569   2.241   0.076  0.3630 -0.6793  1.5789
15561TIP3   OH268173   3.653   0.425  14.003 -0.0600 -0.3912  0.3965
15561TIP3    H168174   3.652   0.329  14.007  0.9561 -0.4280 -0.0594
15561TIP3    H268175   3.719   0.445  13.937 -2.2690  0.5673 -1.7169
15562TIP3   OH268176   3.507   2.174   2.506  0.2546  0.5460 -0.3286
15562TIP3    H168177   3.455   2.149   2.582  1.8816  2.8087  1.7099
15562TIP3    H268178   3.481   2.112   2.437 -2.8746 -0.2584  1.3782
15563TIP3   OH268179   1.595   4.270  10.812 -0.1261 -0.0339  0.3231
15563TIP3    H168180   1.539   4.348  10.809 -1.3680 -0.9134 -0.6641
15563TIP3    H268181   1.682   4.302  10.789 -0.1012  1.4313  2.1546
15564TIP3   OH268182   5.474   5.480   4.576  0.0511  0.0076 -0.1212
15564TIP3    H168183   5.433   5.420   4.639 -1.5721  0.8959 -0.2864
15564TIP3    H268184   5.567   5.478   4.599 -0.1136 -1.7019  0.5936
15565TIP3   OH268185   5.151   1.611  16.768 -0.0757 -0.5618  0.3306
15565TIP3    H168186   5.219   1.562  16.813 -0.6584  0.0400  1.9379
15565TIP3    H268187   5.086   1.629  16.835 -1.2226 -0.0340 -0.8790
15566TIP3   OH268188   6.721   1.611  13.897  0.0148 -0.4359  0.3166
15566TIP3    H168189   6.671   1.656  13.965 -0.6468  1.1338 -1.1342
15566TIP3    H268190   6.698   1.518  13.908 -0.3920 -0.1765  1.9278
15567TIP3   OH268191   6.273   3.607   0.114 -0.0979  0.3726 -0.1405
15567TIP3    H168192   6.272   3.703   0.109  1.6684  0.3993 -4.3425
15567TIP3    H268193   6.197   3.579   0.065 -0.9911 -0.4995  1.6380
15568TIP3   OH268194   2.195   5.021  16.034  1.3755  0.2903  0.4484
15568TIP3    H168195   2.285   5.026  16.067  1.2294  1.0583  0.7613
15568TIP3    H268196   2.171   5.112  16.017  0.5865  0.1107  0.5708
15569TIP3   OH268197   3.872   5.954  14.392 -0.6597  0.1606  0.3512
15569TIP3    H168198   3.955   5.908  14.377  1.2146  3.2041  0.3550
15569TIP3    H268199   3.811   5.914  14.330  0.9168 -1.9010  0.0179
15570TIP3   OH268200   6.138   3.967   0.907  0.2141  0.2767  0.3052
15570TIP3    H168201   6.178   3.883   0.926  2.0288  0.9393 -0.3239
15570TIP3    H268202   6.148   3.978   0.812 -0.9766  0.7388  0.2097
15571TIP3   OH268203   5.259   6.031  15.815  0.7935 -0.0327  0.1544
15571TIP3    H168204   5.240   6.015  15.908  0.5896 -0.5370  0.0295
15571TIP3    H268205   5.353   6.018  15.808  0.9611  0.8910  0.4599
15572TIP3   OH268206   4.722   6.292  12.986  0.2487  0.1162 -0.1378
15572TIP3    H168207   4.809   6.314  12.952  0.8118 -0.7126  0.7293
15572TIP3    H268208   4.733   6.289  13.081 -0.3157 -1.6252 -0.1001
15573TIP3   OH268209   2.452   3.243   2.140  0.6815 -0.1858  0.1552
15573TIP3    H168210   2.419   3.332   2.153  0.3315 -0.1120 -1.1891
15573TIP3    H268211   2.547   3.254   2.130  0.5678  0.1016 -0.6154
15574TIP3   OH268212   6.501   4.385   3.314 -0.0880 -0.2306  0.4112
15574TIP3    H168213   6.541   4.362   3.230  0.4187  0.0607  0.5663
15574TIP3    H268214   6.446   4.310   3.337  0.0157 -0.4413 -0.0263
15575TIP3   OH268215   4.132   1.067  15.416 -0.2664  0.1734 -0.5765
15575TIP3    H168216   4.051   1.035  15.454 -1.1780  2.5989 -0.3035
15575TIP3    H268217   4.194   1.068  15.488 -0.2054 -0.8842 -0.5942
15576TIP3   OH268218   5.779   6.538   1.709  0.4256 -0.2665 -0.7582
15576TIP3    H168219   5.697   6.489   1.714 -0.0480  0.6018  0.5037
15576TIP3    H268220   5.800   6.561   1.800  0.6307  1.8167 -1.2706
15577TIP3   OH268221   2.050   0.726  12.777 -0.3610 -0.0669 -0.7013
15577TIP3    H168222   2.093   0.811  12.773 -0.6916  0.1177 -0.3604
15577TIP3    H268223   2.093   0.674  12.708  2.2364 -0.7271  1.2696
15578TIP3   OH268224   6.314   2.415   1.105 -0.2686 -0.9138 -0.4824
15578TIP3    H168225   6.355   2.500   1.096 -0.8141 -0.5308  0.5155
15578TIP3    H268226   6.292   2.408   1.198 -0.3367 -2.0940 -0.5660
15579TIP3   OH268227   3.632   1.464  12.654 -0.0353  0.8826  0.1390
15579TIP3    H168228   3.542   1.432  12.644  0.4452 -0.0897 -1.4676
15579TIP3    H268229   3.675   1.440  12.571  1.7981  1.0105  1.0129
15580TIP3   OH268230   0.675   1.387   3.505  0.4700 -0.5691  0.2397
15580TIP3    H168231   0.697   1.388   3.598 -0.0074  0.5516  0.3686
15580TIP3    H268232   0.637   1.300   3.490  0.0759 -0.5801  1.2148
15581TIP3   OH268233   3.396   4.579   0.220 -0.0798 -0.7389 -0.4697
15581TIP3    H168234   3.399   4.518   0.146 -2.8912  1.0903 -2.3025
15581TIP3    H268235   3.424   4.663   0.183 -2.6536  0.4771  0.0551
15582TIP3   OH268236   3.584   5.167  12.491  0.1948  0.1792 -0.2144
15582TIP3    H168237   3.549   5.219  12.564  1.7126 -0.1618  0.7888
15582TIP3    H268238   3.590   5.229  12.419 -0.5606  0.7226  0.1696
15583TIP3   OH268239   1.690   2.601   2.072 -0.4875  0.3710 -0.2659
15583TIP3    H168240   1.759   2.621   2.009 -0.0110 -2.3080 -0.7442
15583TIP3    H268241   1.610   2.601   2.020 -0.2827 -0.3773 -0.6075
15584TIP3   OH268242   0.697   5.524   0.259  0.3521 -0.5149 -0.4630
15584TIP3    H168243   0.709   5.619   0.252 -1.1494 -0.3002 -0.6135
15584TIP3    H268244   0.604   5.511   0.241  0.3383 -1.9258  0.4584
15585TIP3   OH268245   0.316   6.761  15.384  0.5188 -0.1653  0.8330
15585TIP3    H168246   0.224   6.736  15.388 -0.4619  3.0032  1.1044
15585TIP3    H268247   0.359   6.707  15.450 -1.2427 -1.3253  1.0885
15586TIP3   OH268248   1.797   2.017   0.485  0.0517 -0.5422 -0.3009
15586TIP3    H168249   1.705   1.993   0.486 -0.9831  2.9248  0.9303
15586TIP3    H268250   1.801   2.098   0.435  2.2431 -0.0462  0.5573
15587TIP3   OH268251   3.678   0.932  15.853  0.7038 -0.4475 -1.0199
15587TIP3    H168252   3.627   0.974  15.923 -0.0205 -3.2047  0.2550
15587TIP3    H268253   3.769   0.951  15.876  0.5622 -2.2939  1.4892
15588TIP3   OH268254   5.132   3.330  13.651  0.0563  0.2558 -0.4392
15588TIP3    H168255   5.063   3.368  13.597 -0.2268 -1.6142 -1.4631
15588TIP3    H268256   5.127   3.236  13.635  2.2056 -0.0331  0.2026
15589TIP3   OH268257   3.057   1.414  12.029  0.2020  0.2969  0.6612
15589TIP3    H168258   3.061   1.474  12.105 -0.6166  0.5029  0.5502
15589TIP3    H268259   2.968   1.425  11.995  0.7233  0.6078 -0.6611
15590TIP3   OH268260   1.127   2.131  16.881  0.6539  0.2034 -0.0446
15590TIP3    H168261   1.157   2.132  16.972 -2.2009 -0.7551  1.0238
15590TIP3    H268262   1.101   2.040  16.865  0.2040  0.5565 -1.4946
15591TIP3   OH268263   4.703   2.057  13.064 -0.3976 -0.4816  0.0414
15591TIP3    H168264   4.650   1.981  13.040 -1.6164  0.1636  0.6368
15591TIP3    H268265   4.709   2.053  13.159 -1.9561  1.0877  0.2627
15592TIP3   OH268266   4.972   0.634   7.032  0.0562  0.6626 -0.1508
15592TIP3    H168267   4.876   0.628   7.025  0.0485  1.5724 -0.9982
15592TIP3    H268268   5.002   0.636   6.942  1.0684 -1.9218  0.0565
15593TIP3   OH268269   2.260   4.865   3.106  0.0033  0.1197 -0.2241
15593TIP3    H168270   2.311   4.945   3.090  1.6100 -0.7640  0.2955
15593TIP3    H268271   2.241   4.866   3.200  0.5030 -0.3811 -0.1159
15594TIP3   OH268272   4.972   1.627   5.814  0.0354  0.0014  0.2264
15594TIP3    H168273   4.882   1.656   5.798  0.1383  0.2654  0.1322
15594TIP3    H268274   5.021   1.656   5.738  0.2750  0.1808  0.4463
15595TIP3   OH268275   3.774   2.307   3.283  0.5694 -0.2868 -0.0011
15595TIP3    H168276   3.720   2.347   3.215 -0.2328 -0.5957  0.4392
15595TIP3    H268277   3.756   2.358   3.362  0.2349 -0.9481  0.3553
15596TIP3   OH268278   5.704   6.303  10.991 -0.3052  0.4611  0.2263
15596TIP3    H168279   5.678   6.249  10.916 -0.5672 -0.4964  0.9877
15596TIP3    H268280   5.630   6.296  11.052 -1.0499  2.9301 -0.2709
15597TIP3   OH268281   5.870   4.584  12.897 -0.3245 -0.5773  0.5745
15597TIP3    H168282   5.800   4.631  12.943 -1.1528 -0.4834 -0.7356
15597TIP3    H268283   5.846   4.491  12.906  0.7325 -0.7292  2.2305
15598TIP3   OH268284   3.696   2.490   0.979 -0.1755 -0.5518  0.2972
15598TIP3    H168285   3.669   2.416   1.033  0.8072 -0.4781  0.9152
15598TIP3    H268286   3.785   2.510   1.008 -0.3844  0.8168  0.0742
15599TIP3   OH268287   3.047   6.189  15.516 -0.0711  0.3335 -0.0860
15599TIP3    H168288   2.989   6.201  15.441 -0.4675 -2.3125 -0.2781
15599TIP3    H268289   3.049   6.095  15.531 -0.7168  0.7449  3.7798
15600TIP3   OH268290   5.856   6.167  13.605 -0.5861  0.3279  0.1780
15600TIP3    H168291   5.873   6.211  13.522  0.1989  0.1915  0.2529
15600TIP3    H268292   5.767   6.135  13.598 -1.2745  2.0919  0.1928
15601TIP3   OH268293   6.295   0.627  15.182 -0.4041  0.2057 -0.0981
15601TIP3    H168294   6.375   0.623  15.129 -0.0908 -0.1252  0.3989
15601TIP3    H268295   6.227   0.596  15.122 -0.0251 -0.3370 -0.2688
15602TIP3   OH268296   0.517   6.366  15.368 -0.2716 -0.2653 -0.2598
15602TIP3    H168297   0.467   6.288  15.392 -0.9613 -0.2931 -1.7050
15602TIP3    H268298   0.501   6.378  15.274 -0.4275  1.8017 -0.0186
15603TIP3   OH268299   0.790   3.414   5.941 -0.0762  0.0956  0.2391
15603TIP3    H168300   0.807   3.507   5.930 -1.7867  0.7348  2.2834
15603TIP3    H268301   0.866   3.381   5.989  0.8159  0.2777 -1.0129
15604TIP3   OH268302   4.572   3.947   5.521  0.1226  0.0016  0.1968
15604TIP3    H168303   4.508   3.974   5.455 -0.1191 -0.4979  0.2209
15604TIP3    H268304   4.584   3.853   5.506  0.1223 -0.1032  0.8155
15605TIP3   OH268305   2.280   6.224   4.527  0.7646 -0.0458  1.0175
15605TIP3    H168306   2.251   6.133   4.540 -0.3301  0.2273  0.6159
15605TIP3    H268307   2.268   6.265   4.613  0.6471 -0.1195  1.0361
15606TIP3   OH268308   0.528   0.142  15.607 -0.1910 -0.1340  0.3324
15606TIP3    H168309   0.574   0.156  15.523 -0.9844 -1.9277 -0.4544
15606TIP3    H268310   0.447   0.192  15.598  0.5063  1.1015  0.7592
15607TIP3   OH268311   2.305   3.732   1.659  0.2082  0.2461 -0.2736
15607TIP3    H168312   2.210   3.743   1.666  0.0274 -1.7588  2.9621
15607TIP3    H268313   2.316   3.648   1.615  0.4545  0.4019 -0.5060
15608TIP3   OH268314   3.268   1.527   3.717  0.4152 -0.4351 -0.4951
15608TIP3    H168315   3.195   1.501   3.662  0.3231 -0.0912 -0.5363
15608TIP3    H268316   3.321   1.448   3.725 -2.0960 -2.0111  3.0028
15609TIP3   OH268317   6.469   0.268  10.978 -0.4095 -0.5156 -0.0886
15609TIP3    H168318   6.458   0.260  10.884  0.1251  0.2914 -0.2212
15609TIP3    H268319   6.519   0.190  11.003  0.6119 -0.0657 -0.6757
15610TIP3   OH268320   3.148   3.599   1.619  0.1530  0.7106 -0.2549
15610TIP3    H168321   3.166   3.586   1.526  0.9498  1.1362 -0.1656
15610TIP3    H268322   3.071   3.656   1.621 -0.6636 -0.3606 -0.6430
15611TIP3   OH268323   2.024   6.041   4.880 -0.9925  0.9746 -0.0891
15611TIP3    H168324   2.071   6.116   4.844  1.6233  0.5975  2.1862
15611TIP3    H268325   2.034   5.972   4.814 -0.5570  1.6730 -0.7657
15612TIP3   OH268326   2.904   0.881   5.192 -0.0437 -0.6570 -0.1018
15612TIP3    H168327   2.944   0.858   5.275  0.9698  1.6256  0.1171
15612TIP3    H268328   2.884   0.974   5.199  1.1537 -0.0771 -2.7894
15613TIP3   OH268329   6.479   5.837   4.897 -0.9828  0.2551  0.0040
15613TIP3    H168330   6.519   5.905   4.951 -0.9124  0.8528 -0.7874
15613TIP3    H268331   6.494   5.756   4.946 -3.1043  1.0374  2.1369
15614TIP3   OH268332   2.466   4.919  14.741 -0.7189 -0.2200  0.2994
15614TIP3    H168333   2.552   4.893  14.707 -0.1785 -0.5987  1.8260
15614TIP3    H268334   2.483   5.001  14.787 -1.5463  0.6116 -0.8392
15615TIP3   OH268335   3.985   6.550  15.171 -0.4891  0.6135  0.4062
15615TIP3    H168336   3.943   6.499  15.240 -0.0573  0.5749  0.6368
15615TIP3    H268337   3.912   6.577  15.114 -0.6461 -0.9979 -0.2157
15616TIP3   OH268338   2.097   5.569   1.611  0.2782  0.3669  0.1712
15616TIP3    H168339   2.034   5.635   1.639 -0.1439  0.5496 -1.1349
15616TIP3    H268340   2.182   5.608   1.629  0.0670 -0.1145  2.4848
15617TIP3   OH268341   0.937   5.909   5.558 -0.2406  0.1371 -0.4383
15617TIP3    H168342   0.941   5.813   5.565 -0.0858  0.2216  1.1378
15617TIP3    H268343   0.961   5.940   5.646 -0.4262  1.6204 -0.8840
15618TIP3   OH268344   3.740   2.603  13.219  0.7005  0.2174 -0.2777
15618TIP3    H168345   3.721   2.520  13.261 -0.7008  0.9647  0.6305
15618TIP3    H268346   3.725   2.587  13.126  1.5193 -0.8146 -0.2547
15619TIP3   OH268347   4.104   3.775   5.885 -0.4132  0.5360  0.1892
15619TIP3    H168348   4.141   3.814   5.965 -1.0605 -0.1596  0.8455
15619TIP3    H268349   4.120   3.681   5.895 -1.4427  0.3361 -0.0002
15620TIP3   OH268350   3.073   1.158  15.849 -0.0081  0.3110  0.0627
15620TIP3    H168351   3.034   1.085  15.801  2.9406 -0.9208 -0.7425
15620TIP3    H268352   3.030   1.236  15.814 -1.5898 -0.8833 -0.7886
15621TIP3   OH268353   3.767   3.196  16.529  0.2181  0.0853 -0.4584
15621TIP3    H168354   3.844   3.249  16.552  0.4015 -0.3596 -0.0249
15621TIP3    H268355   3.792   3.107  16.554 -0.6624  0.0255  0.2342
15622TIP3   OH268356   1.379   6.300   4.375 -0.4202  0.0863 -0.0095
15622TIP3    H168357   1.419   6.386   4.372  1.7457 -0.8738 -0.6254
15622TIP3    H268358   1.436   6.245   4.321  0.2700 -2.4898  3.0440
15623TIP3   OH268359   0.226   0.932   5.854  0.0475 -0.4049  0.0293
15623TIP3    H168360   0.238   1.002   5.789 -0.7425  0.3664  0.6934
15623TIP3    H268361   0.174   0.972   5.923  0.8879 -1.2104  1.1625
15624TIP3   OH268362   1.669   2.075  15.344 -0.5983  0.6576  0.2773
15624TIP3    H168363   1.654   2.161  15.305 -0.6422  0.3745 -0.3471
15624TIP3    H268364   1.611   2.073  15.420 -0.8118  1.0671  0.1289
15625TIP3   OH268365   3.122   3.927  12.345 -0.1308  0.0233 -0.1653
15625TIP3    H168366   3.073   3.900  12.423  0.4434  0.0558  0.2127
15625TIP3    H268367   3.160   3.846  12.312 -1.2322 -0.1599 -1.0295
15626TIP3   OH268368   0.985   1.981  11.391 -0.5636  0.1024  0.0507
15626TIP3    H168369   0.897   1.952  11.417 -0.2014 -0.2587  0.9015
15626TIP3    H268370   1.044   1.914  11.424  0.2786  1.6909  1.9542
15627TIP3   OH268371   2.073   6.144   3.256 -0.0018 -0.0373 -0.2547
15627TIP3    H168372   2.166   6.126   3.273  0.3695  1.5864 -0.3928
15627TIP3    H268373   2.064   6.238   3.272 -1.8002 -0.3129  0.4870
15628TIP3   OH268374   3.372   2.149   5.739  0.2953  0.2238  0.0372
15628TIP3    H168375   3.293   2.134   5.792 -0.5152 -1.0848 -1.4602
15628TIP3    H268376   3.444   2.146   5.802 -0.5014 -2.7133  0.9570
15629TIP3   OH268377   5.766   3.192  16.290  0.1427 -0.3530  0.4662
15629TIP3    H168378   5.861   3.189  16.303 -0.0243 -0.9284  1.7418
15629TIP3    H268379   5.754   3.210  16.197  1.4923 -0.8511  0.1872
15630TIP3   OH268380   4.653   2.708  14.503 -0.4485  0.2149  0.4912
15630TIP3    H168381   4.587   2.754  14.452  0.2670 -1.5862 -2.2901
15630TIP3    H268382   4.726   2.695  14.443  0.7246 -1.5187  2.1529
15631TIP3   OH268383   4.492   4.028  15.307 -0.2141 -0.0411  0.0802
15631TIP3    H168384   4.511   3.976  15.230 -1.0752  0.7148 -0.6650
15631TIP3    H268385   4.402   4.003  15.331 -0.6156  1.0374 -0.2552
15632TIP3   OH268386   2.817   0.353   1.707  0.1280 -0.0185  0.2150
15632TIP3    H168387   2.758   0.351   1.631  0.6782  0.4209 -0.2290
15632TIP3    H268388   2.801   0.438   1.747  0.2184 -0.0387  0.2940
15633TIP3   OH268389   0.663   5.393  14.369 -0.0622  0.3908  0.1935
15633TIP3    H168390   0.644   5.322  14.430  0.3881 -1.3006 -1.5252
15633TIP3    H268391   0.578   5.429  14.347 -0.3649 -0.0856  0.5599
15634TIP3   OH268392   5.978   0.308   1.626  0.2825  0.3621 -0.3886
15634TIP3    H168393   6.057   0.302   1.572  0.3049 -2.1696 -0.1967
15634TIP3    H268394   5.912   0.259   1.577 -0.7117  1.0829  0.2071
15635TIP3   OH268395   4.807   1.554  14.037  0.3791 -0.4349  0.0889
15635TIP3    H168396   4.761   1.535  13.955 -0.3667  0.0117  0.3971
15635TIP3    H268397   4.764   1.498  14.102 -0.4771  0.7632  0.5929
15636TIP3   OH268398   2.619   3.188  13.802  0.0848  0.1927 -0.1785
15636TIP3    H168399   2.556   3.170  13.732  0.6491  2.6409 -1.4466
15636TIP3    H268400   2.702   3.200  13.757  1.1144 -1.0493  1.2713
15637TIP3   OH268401   1.560   5.712   0.949  0.2646  0.4828  0.2241
15637TIP3    H168402   1.493   5.686   0.885 -0.6920  0.7111  1.1103
15637TIP3    H268403   1.569   5.635   1.006  2.2994 -0.3540 -1.0819
15638TIP3   OH268404   1.726   1.192   3.925 -0.3406 -0.4607  0.0765
15638TIP3    H168405   1.817   1.175   3.949  0.0075 -0.9734 -1.5446
15638TIP3    H268406   1.688   1.105   3.913 -1.1326 -0.2573  1.0022
15639TIP3   OH268407   5.396   3.221  17.196 -0.0163 -0.4404 -0.0967
15639TIP3    H168408   5.435   3.234  17.283  0.4430 -0.4524 -0.2982
15639TIP3    H268409   5.386   3.126  17.188 -3.3294 -0.3710  1.3563
15640TIP3   OH268410   2.124   4.903   2.344  1.0141 -0.4819 -0.1397
15640TIP3    H168411   2.192   4.917   2.278  0.5894 -0.1139 -0.5077
15640TIP3    H268412   2.088   4.817   2.323  1.2819 -0.6246 -0.0200
15641TIP3   OH268413   3.552   5.391  13.135 -0.4788 -0.1379  0.3008
15641TIP3    H168414   3.603   5.316  13.105  1.3271  1.0131  0.2954
15641TIP3    H268415   3.511   5.425  13.056  3.2915  2.1708 -0.9534
15642TIP3   OH268416   2.458   4.022  13.046  0.5940  0.2919  0.1976
15642TIP3    H168417   2.395   4.043  12.976 -0.8232  0.0464  1.3449
15642TIP3    H268418   2.532   3.983  13.000 -1.0827 -1.6198 -1.0505
15643TIP3   OH268419   3.779   3.983  14.880 -0.1831 -0.4470 -0.2331
15643TIP3    H168420   3.720   4.048  14.917  1.5393  2.5720 -2.3501
15643TIP3    H268421   3.730   3.945  14.807 -0.8017 -0.7129  0.3130
15644TIP3   OH268422   0.926   3.442  12.689 -0.1314 -0.3591 -0.4444
15644TIP3    H168423   0.868   3.479  12.755  0.0611 -0.2947 -0.3078
15644TIP3    H268424   0.989   3.512  12.670 -0.4065 -0.2494 -0.9691
15645TIP3   OH268425   4.416   6.237  10.847 -0.4701  0.3574  0.0802
15645TIP3    H168426   4.338   6.221  10.795 -0.6423 -1.0273  0.7184
15645TIP3    H268427   4.475   6.165  10.825  0.3464  0.9870  0.1459
15646TIP3   OH268428   2.790   3.927  16.767  0.1221  0.0708 -0.6020
15646TIP3    H168429   2.770   3.999  16.708  1.2375  1.1803  0.3129
15646TIP3    H268430   2.882   3.940  16.790 -0.7492  0.8939  2.9430
15647TIP3   OH268431   5.272   4.035  12.716 -0.0591 -0.2305  0.0801
15647TIP3    H168432   5.252   3.977  12.643 -1.5615  0.9591 -0.5094
15647TIP3    H268433   5.366   4.049  12.711 -0.2166  0.4144 -2.1235
15648TIP3   OH268434   4.942   1.319  14.364 -0.3383 -0.2769 -0.1813
15648TIP3    H168435   5.014   1.311  14.301 -0.0184 -0.7525  0.2343
15648TIP3    H268436   4.929   1.413  14.374 -0.1774 -0.1939 -0.7166
15649TIP3   OH268437   1.893   0.110   1.573 -0.3189  0.6158  0.4241
15649TIP3    H168438   1.813   0.115   1.624 -0.4542  1.3745  0.1553
15649TIP3    H268439   1.866   0.076   1.488  0.0314 -1.4379  1.0789
15650TIP3   OH268440   1.382   5.044  10.701  0.1054  0.2840  0.2091
15650TIP3    H168441   1.291   5.019  10.685  0.4146 -0.7458  0.0528
15650TIP3    H268442   1.408   4.994  10.778  0.2281  1.3691  0.9014
15651TIP3   OH268443   5.505   4.278  12.862  0.4681 -0.6400 -0.1952
15651TIP3    H168444   5.445   4.255  12.791 -0.1406 -0.5240  0.2652
15651TIP3    H268445   5.571   4.334  12.822  0.8990 -1.6437 -0.9474
15652TIP3   OH268446   0.097   5.413  11.517  0.3456  0.5041  0.1104
15652TIP3    H168447   0.014   5.460  11.532  0.3882  0.7431 -0.3929
15652TIP3    H268448   0.090   5.334  11.570 -0.5344  0.1342 -0.5368
15653TIP3   OH268449   2.372   2.390  15.322  0.1756  0.2026 -0.2393
15653TIP3    H168450   2.360   2.304  15.283 -1.0817  0.1034  0.3082
15653TIP3    H268451   2.290   2.407  15.368  1.0093  0.9942  1.0194
15654TIP3   OH268452   6.729   4.657   5.046  0.4700 -0.3193  0.0053
15654TIP3    H168453   6.723   4.716   4.971  0.0953 -0.6411 -0.2200
15654TIP3    H268454   6.795   4.697   5.103 -0.6842  1.0325  0.4762
15655TIP3   OH268455   4.131   3.471   5.317 -0.3892  0.4158  0.3252
15655TIP3    H168456   4.114   3.388   5.271 -1.2114  0.1854  1.0142
15655TIP3    H268457   4.171   3.444   5.400 -0.0974  0.7507  0.2948
15656TIP3   OH268458   2.012   3.962   2.191  0.4949 -0.3074  0.1101
15656TIP3    H168459   2.044   4.045   2.154 -0.2539 -0.1195 -0.1218
15656TIP3    H268460   1.998   3.906   2.115 -1.0646  0.0858  0.0770
15657TIP3   OH268461   0.802   1.628  13.040 -0.1474  0.8126  0.2262
15657TIP3    H168462   0.769   1.538  13.042 -1.3125  1.2062  2.5744
15657TIP3    H268463   0.751   1.671  12.972  0.4114 -0.2695 -0.9125
15658TIP3   OH268464   4.461   5.867  15.153  0.0741 -0.0634 -0.4796
15658TIP3    H168465   4.497   5.941  15.105 -1.4962 -0.1863 -1.9354
15658TIP3    H268466   4.428   5.904  15.234 -1.1279  0.9696 -1.3987
15659TIP3   OH268467   2.323   6.110   5.558 -0.4541 -0.3392 -0.0543
15659TIP3    H168468   2.371   6.177   5.606 -1.0775  0.1597 -0.1180
15659TIP3    H268469   2.274   6.063   5.626 -0.3487 -0.4634 -0.0616
15660TIP3   OH268470   0.244   6.651  16.588 -0.7879  0.3296  0.4450
15660TIP3    H168471   0.188   6.576  16.567 -2.1891  1.3964  0.2354
15660TIP3    H268472   0.299   6.620  16.661 -1.7869 -0.6956  0.7893
15661TIP3   OH268473   5.900   1.501   3.667 -0.3199  0.4706  0.3262
15661TIP3    H168474   5.918   1.537   3.580 -1.4237 -2.3138 -1.1543
15661TIP3    H268475   5.810   1.469   3.661 -0.0858 -0.6368  2.1993
15662TIP3   OH268476   3.112   2.223   4.650 -0.0651 -0.0872  0.7007
15662TIP3    H168477   3.056   2.199   4.575 -0.1771  0.2980  0.6603
15662TIP3    H268478   3.186   2.269   4.611 -0.1937  0.2389  0.8365
15663TIP3   OH268479   3.249   6.502   1.233 -0.1112 -0.5706  0.6614
15663TIP3    H168480   3.225   6.411   1.218  1.0242 -0.7400 -0.2336
15663TIP3    H268481   3.319   6.520   1.170  0.6687  0.4923  1.7697
15664TIP3   OH268482   5.861   6.000  10.380 -0.3238  0.0676 -0.4861
15664TIP3    H168483   5.881   6.082  10.426  0.6331 -1.0169  1.1557
15664TIP3    H268484   5.939   5.945  10.395 -1.1990 -1.3620 -0.9814
15665TIP3   OH268485   2.965   4.625  11.081  0.2397  0.0310 -0.1551
15665TIP3    H168486   2.988   4.532  11.075 -0.8334 -0.3027  0.6484
15665TIP3    H268487   2.897   4.637  11.015 -0.6097 -0.0859  0.6865
15666TIP3   OH268488   6.634   6.133  14.474 -0.3852  0.2831  0.2051
15666TIP3    H168489   6.645   6.203  14.410  2.3533 -1.3075 -1.2244
15666TIP3    H268490   6.584   6.066  14.428 -1.7390  0.6147  1.0992
15667TIP3   OH268491   4.378   6.742  16.898  0.2927 -0.0838 -0.2048
15667TIP3    H168492   4.429   6.819  16.873  1.0805 -0.4959  0.1140
15667TIP3    H268493   4.288   6.774  16.904  0.4399  0.5678 -1.1583
15668TIP3   OH268494   4.242   0.107  15.046  0.0360 -0.3643  0.2388
15668TIP3    H168495   4.289   0.025  15.059  2.2942  0.4032 -2.1027
15668TIP3    H268496   4.214   0.133  15.134  3.3698 -1.3405  1.7561
15669TIP3   OH268497   4.864   5.408   5.632 -0.6259  0.3963 -0.3239
15669TIP3    H168498   4.785   5.365   5.600 -0.4912 -0.5382  0.5585
15669TIP3    H268499   4.933   5.377   5.573 -0.1930 -2.1312  1.3368
15670TIP3   OH268500   1.376   4.020   1.706  0.5160 -0.1613  0.7537
15670TIP3    H168501   1.415   3.940   1.670  0.5952  0.1852  0.0436
15670TIP3    H268502   1.364   4.001   1.799 -1.6689 -1.8887  0.2084
15671TIP3   OH268503   5.897   3.226  15.085 -0.4292  0.2839 -0.2619
15671TIP3    H168504   5.811   3.237  15.044 -1.2808 -2.4272  0.6380
15671TIP3    H268505   5.885   3.158  15.151  2.2966  0.2035  0.2929
15672TIP3   OH268506   3.885   1.414   5.169  0.6658 -0.1137 -0.1995
15672TIP3    H168507   3.952   1.439   5.106 -0.0903 -0.8893 -1.3466
15672TIP3    H268508   3.808   1.466   5.145  0.5584  0.0481  0.4816
15673TIP3   OH268509   3.991   4.456  12.794 -0.0236  0.4714  0.2759
15673TIP3    H168510   4.050   4.381  12.792 -1.3271 -0.6000  0.2295
15673TIP3    H268511   3.994   4.487  12.885 -0.0855 -0.1655  0.5030
15674TIP3   OH268512   4.129   0.151  14.394  0.7780 -0.1374  0.9100
15674TIP3    H168513   4.107   0.071  14.345 -1.3387  0.8070  0.1934
15674TIP3    H268514   4.045   0.195  14.405  1.9361  2.1578  0.9951
15675TIP3   OH268515   2.834   3.974  14.374  0.0379 -0.0669  0.0003
15675TIP3    H168516   2.785   3.897  14.401 -0.0350  0.8208  2.7474
15675TIP3    H268517   2.789   4.005  14.295 -1.9583 -0.9872  0.7148
15676TIP3   OH268518   5.475   5.993   1.875 -0.2010 -0.0480 -0.0193
15676TIP3    H168519   5.488   5.930   1.947  2.3464  1.3387  0.8433
15676TIP3    H268520   5.509   6.075   1.909 -0.1726  0.9822 -2.3898
15677TIP3   OH268521   5.957   0.885  12.102  0.3099  0.2193 -0.3698
15677TIP3    H168522   5.901   0.944  12.051  0.9511  1.5772  0.4456
15677TIP3    H268523   6.013   0.843  12.036  0.0683  0.7761 -0.9423
15678TIP3   OH268524   5.785   0.664  11.529  0.3206 -0.4026 -0.0292
15678TIP3    H168525   5.717   0.628  11.585  1.4212 -0.2409  1.4644
15678TIP3    H268526   5.797   0.754  11.560  1.2076 -0.4284 -0.2575
15679TIP3   OH268527   4.419   4.772  11.625  0.2195 -0.6884 -0.6397
15679TIP3    H168528   4.396   4.712  11.553  2.2960 -0.7654 -1.3052
15679TIP3    H268529   4.380   4.855  11.600 -1.2563 -1.3330 -0.5585
15680TIP3   OH268530   4.848   6.801  15.359 -0.0627 -0.5300 -0.5453
15680TIP3    H168531   4.773   6.752  15.326 -0.4093 -0.4531  0.1067
15680TIP3    H268532   4.880   6.850  15.283 -0.8914 -0.2916 -0.7473
15681TIP3   OH268533   1.836   2.150  14.471  0.0241  0.9965 -0.6346
15681TIP3    H168534   1.922   2.180  14.502  0.6417 -0.8977 -0.4219
15681TIP3    H268535   1.856   2.085  14.404 -1.0450 -2.5432  2.1599
15682TIP3   OH268536   1.617   1.221   1.326 -0.5584 -0.4101  0.5473
15682TIP3    H168537   1.690   1.161   1.309  0.1404  1.0242 -1.8392
15682TIP3    H268538   1.624   1.241   1.420  0.6532 -2.1172  0.8653
15683TIP3   OH268539   2.994   2.264  15.821  0.1896 -0.1170  0.3112
15683TIP3    H168540   2.933   2.334  15.799  1.4414 -0.0470 -3.5828
15683TIP3    H268541   3.038   2.296  15.901  0.8235  3.7286 -1.3535
15684TIP3   OH268542   2.955   4.595  13.726 -0.2343 -0.5249  0.1960
15684TIP3    H168543   3.019   4.547  13.779 -0.4866 -1.2879 -0.1735
15684TIP3    H268544   2.870   4.566  13.759 -0.5209 -3.7908 -2.8577
15685TIP3   OH268545   2.712   3.119  10.527  0.0721 -0.4902 -0.1073
15685TIP3    H168546   2.656   3.048  10.495 -0.7687  0.6094 -1.2201
15685TIP3    H268547   2.759   3.149  10.449  1.5290 -0.7793  0.6404
15686TIP3   OH268548   3.366   6.727  15.377 -0.2318 -0.2146 -0.1813
15686TIP3    H168549   3.303   6.704  15.308  0.0803  1.8162 -1.2050
15686TIP3    H268550   3.447   6.684  15.350 -0.7151 -1.5023  0.2955
15687TIP3   OH268551   6.374   3.393   5.879  1.0292  0.0955 -0.3342
15687TIP3    H168552   6.382   3.468   5.821  0.2045  0.8323  0.4519
15687TIP3    H268553   6.463   3.372   5.904  1.2307  1.4414  0.1775
15688TIP3   OH268554   3.337   0.147  12.722 -0.2412  0.0916  0.2737
15688TIP3    H168555   3.373   0.235  12.733  1.0363 -0.4949  0.9660
15688TIP3    H268556   3.403   0.099  12.673 -1.1493 -0.3677 -0.5472
15689TIP3   OH268557   5.225   4.556  11.224 -0.2620 -0.1585 -0.5272
15689TIP3    H168558   5.177   4.638  11.209  0.9470  0.3678 -1.7586
15689TIP3    H268559   5.217   4.508  11.142  1.2476 -0.0778 -0.7434
15690TIP3   OH268560   5.244   2.570   3.964 -0.2865 -0.8158  0.3382
15690TIP3    H168561   5.335   2.577   3.992 -0.5378  0.0427  0.9763
15690TIP3    H268562   5.197   2.633   4.019 -0.9676  0.1976 -1.3286
15691TIP3   OH268563   0.234   2.689  15.920  0.3522 -0.0943 -0.4396
15691TIP3    H168564   0.241   2.747  15.844 -0.1913 -0.0592 -0.4612
15691TIP3    H268565   0.308   2.628  15.909  0.8266  0.4774 -0.5049
15692TIP3   OH268566   1.209   3.814  14.974  0.4052  0.3252  0.4857
15692TIP3    H168567   1.298   3.808  14.940  0.0785 -0.6903 -0.2624
15692TIP3    H268568   1.201   3.739  15.034 -0.3232 -0.3687 -0.4375
15693TIP3   OH268569   6.329   0.643   4.497 -0.0540  0.1926  0.5838
15693TIP3    H168570   6.336   0.735   4.473 -1.5231  0.4622  1.0912
15693TIP3    H268571   6.376   0.636   4.580  0.0581  0.4797  0.5457
15694TIP3   OH268572   1.424   0.572   0.546  0.0097  0.1556  0.1242
15694TIP3    H168573   1.429   0.592   0.640 -0.0957  1.0214 -0.0469
15694TIP3    H268574   1.421   0.476   0.542 -0.0672  0.1131  1.0076
15695TIP3   OH268575   1.729   4.828   4.919 -0.0151  0.2953  0.1682
15695TIP3    H168576   1.636   4.808   4.913  0.3370 -1.4453 -0.0491
15695TIP3    H268577   1.759   4.781   4.996  0.6931  0.8183  0.2188
15696TIP3   OH268578   3.989   3.189  11.649  0.3814 -0.1924 -0.2469
15696TIP3    H168579   4.074   3.168  11.609  0.8500  1.0882  0.0163
15696TIP3    H268580   4.008   3.261  11.709 -0.8686  0.0091 -0.0628
15697TIP3   OH268581   5.010   0.239  16.520  0.5461 -0.1813  1.0225
15697TIP3    H168582   5.105   0.235  16.518  0.5446  0.0062 -0.2973
15697TIP3    H268583   4.986   0.291  16.443 -0.6046  0.1791  1.5994
15698TIP3   OH268584   4.356   5.704  11.266 -0.1574 -0.2777  0.7777
15698TIP3    H168585   4.331   5.702  11.358  1.7375 -1.1160  1.3201
15698TIP3    H268586   4.313   5.782  11.231  0.7111  1.2161  2.8666
15699TIP3   OH268587   1.565   2.843  11.514  0.0227 -0.0246 -0.1180
15699TIP3    H168588   1.517   2.860  11.433  1.2314  1.5659 -0.5384
15699TIP3    H268589   1.577   2.748  11.515 -1.8695 -0.3185 -0.6916
15700TIP3   OH268590   3.171   1.862   3.681 -0.6666  0.3840  0.5719
15700TIP3    H168591   3.152   1.769   3.695  0.5668  0.0320  0.0618
15700TIP3    H268592   3.097   1.908   3.721 -0.6455 -0.7740  2.0439
15701TIP3   OH268593   6.726   1.289  16.144  0.2898  0.1452  0.1370
15701TIP3    H168594   6.763   1.218  16.196 -1.7682 -0.5991  0.6668
15701TIP3    H268595   6.784   1.364  16.160  1.6206 -0.9894  0.7639
15702TIP3   OH268596   0.263   5.264  17.044 -0.0808 -0.0757  0.0562
15702TIP3    H168597   0.313   5.184  17.027  0.2071 -0.1149  1.0169
15702TIP3    H268598   0.320   5.335  17.013 -0.3264 -0.2275 -0.7750
15703TIP3   OH268599   5.105   3.144   4.062 -0.0158 -0.3880  0.3813
15703TIP3    H168600   5.180   3.110   4.111  2.1754  1.7049 -1.2698
15703TIP3    H268601   5.092   3.082   3.991  0.6587 -0.3877  0.2546
15704TIP3   OH268602   4.910   6.394  13.536 -0.5349 -0.5292  0.2113
15704TIP3    H168603   4.968   6.470  13.533 -0.5722 -0.5159 -0.9077
15704TIP3    H268604   4.949   6.336  13.601  0.0262  0.0365  0.3878
15705TIP3   OH268605   5.266   4.068  17.070 -0.2701  0.2147  0.1394
15705TIP3    H168606   5.221   4.020  17.140 -1.4280  1.4082  0.2639
15705TIP3    H268607   5.252   4.160  17.092 -0.5977  0.6202 -1.5983
15706TIP3   OH268608   3.561   0.157  12.221 -0.0229 -0.1146  0.1314
15706TIP3    H168609   3.470   0.162  12.251  0.4899  0.9663  1.6778
15706TIP3    H268610   3.583   0.064  12.225 -0.9864 -0.3666 -0.0830
15707TIP3   OH268611   6.587   3.397   0.275 -0.3746  0.1594 -0.5932
15707TIP3    H168612   6.535   3.382   0.195  0.2074 -0.5076 -0.8568
15707TIP3    H268613   6.569   3.321   0.329 -0.3214  0.3389 -0.3242
15708TIP3   OH268614   1.652   0.857  11.859  0.2378  0.1859  0.2852
15708TIP3    H168615   1.692   0.944  11.851  0.8000 -0.2587 -2.6088
15708TIP3    H268616   1.561   0.870  11.835  0.2873  0.0105 -0.0037
15709TIP3   OH268617   0.440   5.125  13.576 -0.2340 -0.1190 -0.4684
15709TIP3    H168618   0.449   5.155  13.486 -3.1640 -0.7504 -1.0541
15709TIP3    H268619   0.512   5.167  13.622  3.0661 -1.8149 -3.5173
15710TIP3   OH268620   2.011   3.649  11.235 -0.2041  0.2203 -0.9567
15710TIP3    H168621   2.011   3.726  11.178 -0.2906  0.7904 -0.2147
15710TIP3    H268622   1.927   3.608  11.221 -0.5707  0.8369 -0.6289
15711TIP3   OH268623   2.242   3.222   1.042 -0.2549  0.2540 -0.1706
15711TIP3    H168624   2.175   3.163   1.008 -1.0993 -0.5456  2.6014
15711TIP3    H268625   2.233   3.302   0.989 -1.7859 -0.6769 -1.3983
15712TIP3   OH268626   6.796   2.205   3.034 -0.1683 -0.1704  0.3056
15712TIP3    H168627   6.771   2.156   3.112 -1.0877  0.2614  0.2946
15712TIP3    H268628   6.891   2.198   3.030 -0.1383 -0.3749  1.3436
15713TIP3   OH268629   1.139   2.306  11.758  0.3876  0.5512 -0.2687
15713TIP3    H168630   1.157   2.231  11.701  1.9014  1.2824 -0.8119
15713TIP3    H268631   1.059   2.282  11.804 -0.9134 -0.0898 -2.6688
15714TIP3   OH268632   5.396   0.590   1.663  0.2087  0.4799  0.1038
15714TIP3    H168633   5.320   0.649   1.665  0.5295  0.9394 -0.6379
15714TIP3    H268634   5.450   0.618   1.736  0.9334  1.9223 -0.9210
15715TIP3   OH268635   4.128   6.388  15.661 -0.1973  0.7364 -0.1936
15715TIP3    H168636   4.191   6.459  15.645 -1.3792  1.2817 -3.2405
15715TIP3    H268637   4.182   6.309  15.663  0.7952  1.3638 -0.8289
15716TIP3   OH268638   1.494   5.423   4.583  0.0077 -0.0638  0.0878
15716TIP3    H168639   1.479   5.495   4.645  0.5694 -0.5757  0.8451
15716TIP3    H268640   1.482   5.344   4.635 -0.2202 -0.5148 -0.6445
15717TIP3   OH268641   1.472   4.535   2.270  0.4430 -0.1605  0.0930
15717TIP3    H168642   1.383   4.512   2.243 -0.0010 -0.4732  1.7619
15717TIP3    H268643   1.526   4.511   2.194 -1.0072  1.2871 -1.4783
15718TIP3   OH268644   5.290   2.548  15.066  0.5820  0.2182  0.1884
15718TIP3    H168645   5.246   2.554  15.150  0.9264  0.1937  0.3715
15718TIP3    H268646   5.238   2.487  15.015  0.7920 -0.3508  0.6441
15719TIP3   OH268647   1.915   0.539  11.369  0.1880  0.0619 -0.6576
15719TIP3    H168648   1.983   0.497  11.421  0.9065 -0.3190 -1.8700
15719TIP3    H268649   1.836   0.534  11.424  0.6396 -1.3848 -0.0909
15720TIP3   OH268650   1.761   5.887   3.927 -0.3352 -0.6362  0.1736
15720TIP3    H168651   1.724   5.846   3.849 -1.1414 -0.3302  0.3799
15720TIP3    H268652   1.768   5.816   3.991  1.8368 -1.2439 -0.6534
15721TIP3   OH268653   1.774   6.496  14.567 -0.0653 -0.4459 -0.1882
15721TIP3    H168654   1.868   6.498  14.584 -0.0335 -0.8548 -0.2977
15721TIP3    H268655   1.757   6.575  14.517  0.0146  0.2289  0.8279
15722TIP3   OH268656   4.212   2.726   2.260  0.7257  0.2724 -0.2964
15722TIP3    H168657   4.141   2.752   2.319 -0.1839  1.9171 -2.0078
15722TIP3    H268658   4.286   2.780   2.285  0.7203  0.0785  0.1352
15723TIP3   OH268659   0.990   6.114  13.031  0.2204  0.3843  0.7022
15723TIP3    H168660   1.022   6.188  12.979  0.5468 -1.4010 -1.8027
15723TIP3    H268661   1.069   6.076  13.069  0.5833 -0.9247 -1.2239
15724TIP3   OH268662   3.169   1.745  15.329 -0.0245  0.8278  0.3988
15724TIP3    H168663   3.218   1.749  15.247 -1.6135  2.1675 -0.5542
15724TIP3    H268664   3.200   1.819  15.380  2.9635 -1.5280  2.3217
15725TIP3   OH268665   3.907   2.591  12.334 -0.0845 -0.0240 -0.2375
15725TIP3    H168666   3.911   2.520  12.398 -1.3981 -1.2535 -1.4273
15725TIP3    H268667   3.841   2.651  12.368 -0.0254 -0.1329  0.0691
15726TIP3   OH268668   2.938   5.256   2.748 -0.5123 -0.1236 -0.2266
15726TIP3    H168669   2.888   5.265   2.829  0.3673  0.8565  0.2279
15726TIP3    H268670   2.889   5.191   2.697 -3.3831  2.1720 -0.6622
15727TIP3   OH268671   0.662   3.463   0.571  0.1886 -0.3349 -0.1283
15727TIP3    H168672   0.634   3.530   0.508  0.9134  0.5825  0.5021
15727TIP3    H268673   0.676   3.385   0.517 -0.0920  0.1769 -0.9707
15728TIP3   OH268674   2.475   6.454  15.409 -0.1823  0.1248 -0.4175
15728TIP3    H168675   2.523   6.372  15.424  1.3198  1.2066  0.9855
15728TIP3    H268676   2.528   6.502  15.346  0.0527  0.8770  0.3349
15729TIP3   OH268677   5.252   0.347  17.171 -0.1533 -0.0390 -0.2100
15729TIP3    H168678   5.222   0.426  17.215  0.4391 -1.1931  2.4923
15729TIP3    H268679   5.341   0.367  17.142 -0.0631  0.3369  0.3225
15730TIP3   OH268680   3.773   3.516  15.247 -0.2910 -0.4251  0.9502
15730TIP3    H168681   3.818   3.527  15.163  2.1978 -1.8022  2.0096
15730TIP3    H268682   3.743   3.426  15.247 -4.2337  0.7097 -0.1512
15731TIP3   OH268683   0.097   6.489  16.160 -0.6492  0.5322  0.2578
15731TIP3    H168684   0.109   6.418  16.223  1.7579 -0.2989 -1.0116
15731TIP3    H268685   0.169   6.550  16.178 -2.0069  2.0936  0.5768
15732TIP3   OH268686   4.149   2.371  12.470 -0.2845 -0.0707 -0.4059
15732TIP3    H168687   4.243   2.374  12.487 -0.1673  1.1844 -1.1333
15732TIP3    H268688   4.109   2.410  12.547 -0.0991  0.8271 -0.7572
15733TIP3   OH268689   6.102   3.408   5.825 -0.0684 -0.7034 -0.5768
15733TIP3    H168690   6.074   3.360   5.902  0.5464  0.5338  0.4542
15733TIP3    H268691   6.197   3.414   5.833 -0.0472 -0.0760 -1.1207
15734TIP3   OH268692   4.131   6.059   0.276  0.7271  0.0270 -0.1753
15734TIP3    H168693   4.201   6.119   0.303  0.3906 -0.2880  1.5760
15734TIP3    H268694   4.175   5.974   0.267  0.9817  0.2833 -1.4283
15735TIP3   OH268695   4.772   1.653   1.950 -0.1297  0.0453  0.7460
15735TIP3    H168696   4.841   1.634   1.886  0.1038 -0.0359  1.0204
15735TIP3    H268697   4.691   1.645   1.900 -0.0338 -1.5300  0.8014
15736TIP3   OH268698   0.222   3.854  10.566 -0.0697 -0.7572 -0.2951
15736TIP3    H168699   0.241   3.794  10.494  0.0472 -0.8704 -0.1731
15736TIP3    H268700   0.277   3.930  10.550 -0.5544 -0.4850 -0.6953
15737TIP3   OH268701   2.900   3.348  15.292  0.2579 -0.1499 -0.5452
15737TIP3    H168702   2.938   3.315  15.210 -1.4194 -0.7631 -1.1355
15737TIP3    H268703   2.825   3.290  15.308  0.8060 -0.3072  1.6762
15738TIP3   OH268704   2.604   4.463   2.399 -0.4369  0.5508  0.4806
15738TIP3    H168705   2.555   4.450   2.318  1.0221  1.0352 -0.5274
15738TIP3    H268706   2.662   4.387   2.404 -0.2214  0.7373  0.8302
15739TIP3   OH268707   1.919   5.725   1.801 -0.3420  0.3625 -0.0210
15739TIP3    H168708   1.922   5.794   1.736 -1.4754  1.1556  0.7304
15739TIP3    H268709   1.981   5.752   1.869 -2.5968  1.9877  1.5008
15740TIP3   OH268710   3.457   3.696   1.171  0.3522 -0.5667  0.2432
15740TIP3    H168711   3.447   3.725   1.080 -2.1526  0.9982  0.9084
15740TIP3    H268712   3.529   3.748   1.206  0.3404 -0.0902 -0.4406
15741TIP3   OH268713   1.366   3.593  16.805  0.4444 -0.4684 -0.5434
15741TIP3    H168714   1.376   3.622  16.714  0.5949 -1.2484 -0.7841
15741TIP3    H268715   1.359   3.674  16.855 -0.2071 -0.0341 -1.3080
15742TIP3   OH268716   1.943   3.103   4.290 -0.1967 -0.6578 -0.0909
15742TIP3    H168717   1.878   3.106   4.360 -0.2006  2.6318 -0.1041
15742TIP3    H268718   1.904   3.044   4.224 -2.4207 -0.0958  0.6149
15743TIP3   OH268719   1.905   1.471   2.778 -0.1397  0.5138 -0.6052
15743TIP3    H168720   1.961   1.524   2.722 -1.7346  0.6704 -2.1287
15743TIP3    H268721   1.878   1.530   2.849 -1.7577  1.7927 -2.1836
15744TIP3   OH268722   2.442   1.873  14.084  0.4616 -0.0632  0.2232
15744TIP3    H168723   2.405   1.959  14.106  0.5349 -0.5218  2.3633
15744TIP3    H268724   2.514   1.892  14.025  0.3873  1.3475  0.5449
15745TIP3   OH268725   3.106   3.590   3.345  0.4382 -0.0234 -0.0348
15745TIP3    H168726   3.034   3.602   3.407  0.8611  1.2315  0.2438
15745TIP3    H268727   3.106   3.669   3.292  1.7243  0.0952  0.1071
15746TIP3   OH268728   3.948   2.658  15.706  0.4100  0.1390 -0.7463
15746TIP3    H168729   3.870   2.657  15.650  0.9971  1.2120 -1.6229
15746TIP3    H268730   4.019   2.687  15.648  1.3405 -0.2019  0.1918
15747TIP3   OH268731   6.538   5.696  16.175 -0.6951 -0.5426  0.3259
15747TIP3    H168732   6.511   5.774  16.126  1.1803  0.1518  0.3289
15747TIP3    H268733   6.459   5.643  16.181 -1.6475  0.6657 -0.9935
15748TIP3   OH268734   6.684   6.577   4.759  0.2097  0.4885 -0.5104
15748TIP3    H168735   6.688   6.663   4.717 -1.3355  0.6770 -0.3197
15748TIP3    H268736   6.642   6.520   4.694  1.2691 -0.1591 -0.6576
15749TIP3   OH268737   4.793   2.317   1.819  0.6819 -0.4383 -0.4141
15749TIP3    H168738   4.807   2.277   1.905  2.5628 -0.7137 -0.8087
15749TIP3    H268739   4.773   2.244   1.761  0.1569 -0.3331 -0.3746
15750TIP3   OH268740   3.479   0.053   6.697 -0.1712  0.6678  0.2139
15750TIP3    H168741   3.546  -0.012   6.718  0.5898  0.7610 -1.7418
15750TIP3    H268742   3.441   0.076   6.782  2.5549  0.9191  1.4835
15751TIP3   OH268743   1.808   3.694  10.380  0.1721 -0.3958  0.0265
15751TIP3    H168744   1.851   3.616  10.344  0.8852 -0.2735  0.5977
15751TIP3    H268745   1.873   3.732  10.439  0.3318  1.3429 -1.1850
15752TIP3   OH268746   6.249   0.195  11.571 -0.0797  0.1091  0.1022
15752TIP3    H168747   6.286   0.206  11.659 -0.2074 -1.8469  0.4505
15752TIP3    H268748   6.176   0.135  11.583 -0.1098 -0.1817 -1.3494
15753TIP3   OH268749   4.032   1.864  12.027  0.0626  0.0336  0.2412
15753TIP3    H168750   3.989   1.946  12.050  1.0633  0.2789  1.3087
15753TIP3    H268751   4.117   1.890  11.990  0.3235 -0.5040  0.4416
15754TIP3   OH268752   1.633   0.883  11.461  0.5968  0.2959 -0.0379
15754TIP3    H168753   1.659   0.962  11.507  1.9038  0.6742 -1.3488
15754TIP3    H268754   1.539   0.894  11.445  0.1150  0.1958  2.3231
15755TIP3   OH268755   1.496   4.232  10.390  0.0362  0.3273 -0.4960
15755TIP3    H168756   1.522   4.303  10.448  1.5109 -0.7408  0.2160
15755TIP3    H268757   1.557   4.161  10.410 -1.5870 -1.2722 -0.9527
15756TIP3   OH268758   6.291   5.700  12.857  0.2933 -0.2270  0.0501
15756TIP3    H168759   6.254   5.740  12.935 -1.7177  0.8022 -1.3629
15756TIP3    H268760   6.306   5.773  12.797  0.5617 -1.1240 -1.0078
15757TIP3   OH268761   4.964   3.862  11.577 -0.3856  0.2030  0.3834
15757TIP3    H168762   4.902   3.868  11.650  0.8396 -0.4691  1.5160
15757TIP3    H268763   4.951   3.775  11.541 -0.4664  0.2528  0.2940
15758TIP3   OH268764   5.270   0.210  16.796  0.1955 -0.6398  0.1172
15758TIP3    H168765   5.236   0.295  16.823 -1.1811 -2.1558  3.6787
15758TIP3    H268766   5.267   0.213  16.700  1.5800  3.7653 -0.0174
15759TIP3   OH268767   6.328   4.887  12.762 -0.5870  0.3107 -0.0065
15759TIP3    H168768   6.269   4.849  12.827  0.5216  1.2059  1.5891
15759TIP3    H268769   6.318   4.982  12.772  0.4022  0.4669 -0.3621
15760TIP3   OH268770   0.803   4.844  11.737 -0.1274 -0.2184  0.2598
15760TIP3    H168771   0.860   4.920  11.721 -0.1343 -0.1447  0.5687
15760TIP3    H268772   0.801   4.836  11.833 -3.4553  1.9759  0.5493
15761TIP3   OH268773   2.400   0.037  13.786  0.1116 -0.0137  0.0375
15761TIP3    H168774   2.458  -0.031  13.750 -1.3802 -1.1423 -0.3257
15761TIP3    H268775   2.390   0.100  13.714  0.0195 -0.3848 -0.2779
15762TIP3   OH268776   5.840   0.475  12.976 -0.5416 -0.0133 -0.2731
15762TIP3    H168777   5.885   0.491  13.059  1.2157  0.4562 -1.2687
15762TIP3    H268778   5.833   0.380  12.970  1.4785 -0.1701 -0.6531
15763TIP3   OH268779   0.856   0.092   4.813  0.5727 -0.6747  0.5934
15763TIP3    H168780   0.948   0.075   4.833  1.4397  0.7932 -1.6842
15763TIP3    H268781   0.825   0.013   4.769  1.3369 -0.4999 -0.2937
15764TIP3   OH268782   2.476   4.968  16.026 -0.4431 -0.3204  0.2915
15764TIP3    H168783   2.522   4.884  16.027  1.7630  0.8230  0.4818
15764TIP3    H268784   2.527   5.023  15.966  0.4878  2.0720  3.0506
15765TIP3   OH268785   1.858   4.141   4.779 -0.1210  0.1130  0.0805
15765TIP3    H168786   1.921   4.209   4.756  1.8500 -0.8945  2.0526
15765TIP3    H268787   1.774   4.174   4.748  1.2336  1.8699 -2.0126
15766TIP3   OH268788   6.563   0.392  15.968 -0.1664  0.5607 -0.2679
15766TIP3    H168789   6.518   0.477  15.971 -1.4297 -0.1044  1.5935
15766TIP3    H268790   6.551   0.356  16.056  2.8503 -0.3032 -0.1081
15767TIP3   OH268791   6.272   3.873   4.483  0.2381  0.0676 -0.6440
15767TIP3    H168792   6.324   3.920   4.548  0.6926 -2.1116  0.6597
15767TIP3    H268793   6.335   3.836   4.422  0.1537 -1.2783  0.0471
15768TIP3   OH268794   3.994   4.624   0.462  0.2361  0.0215 -0.5144
15768TIP3    H168795   3.901   4.611   0.482  0.7414 -1.6362  1.0106
15768TIP3    H268796   4.039   4.606   0.545  2.0897 -1.6251 -1.8014
15769TIP3   OH268797   2.009   2.115   2.879 -0.0586 -0.1799  0.3772
15769TIP3    H168798   2.056   2.178   2.825  1.1399 -2.8013 -1.8332
15769TIP3    H268799   1.984   2.045   2.819 -0.2176 -2.4376  2.8952
15770TIP3   OH268800   2.222   6.515  15.538  0.1674 -0.0149 -0.6296
15770TIP3    H168801   2.304   6.496  15.492  0.7308 -0.2750  0.4556
15770TIP3    H268802   2.249   6.545  15.625 -0.8476  1.3655 -0.7607
15771TIP3   OH268803   4.016   3.722   0.055 -0.1629  0.2066  0.5605
15771TIP3    H168804   4.068   3.642   0.048  0.9307  1.0260 -2.4862
15771TIP3    H268805   3.937   3.704   0.004  0.5281  1.2628 -0.9877
15772TIP3   OH268806   2.535   3.978  12.227  0.0277  0.1042 -0.0525
15772TIP3    H168807   2.591   3.901  12.216  1.2964  0.9955  0.0100
15772TIP3    H268808   2.506   3.999  12.138 -1.8524 -1.5134  0.1160
15773TIP3   OH268809   5.471   0.996  14.351  0.1754  0.1600  0.3236
15773TIP3    H168810   5.412   1.038  14.414 -0.4281  0.2512 -0.2991
15773TIP3    H268811   5.435   1.017  14.265  0.4397 -0.7778 -0.0355
15774TIP3   OH268812   4.880   3.919  12.910  0.3183  0.0876  0.2764
15774TIP3    H168813   4.840   4.004  12.926 -0.5369 -0.3760  0.6782
15774TIP3    H268814   4.963   3.939  12.866 -0.9157  1.0361 -1.7770
15775TIP3   OH268815   1.740   2.859  16.891 -0.6043  0.3611  0.0938
15775TIP3    H168816   1.792   2.886  16.815  1.3995 -0.4055  1.1473
15775TIP3    H268817   1.729   2.938  16.943  1.1715  0.1772  0.7988
15776TIP3   OH268818   1.624   2.095  16.937  0.0408 -0.5197 -0.2253
15776TIP3    H168819   1.715   2.124  16.942  0.3819 -1.3902 -1.0419
15776TIP3    H268820   1.579   2.164  16.889 -0.1639  0.8346  1.8022
15777TIP3   OH268821   2.040   3.125  15.809 -0.3837 -0.1349 -0.2614
15777TIP3    H168822   2.021   3.153  15.899 -1.4360 -0.0148 -0.5166
15777TIP3    H268823   1.965   3.153  15.758 -0.0751 -0.7507 -1.0821
15778TIP3   OH268824   4.002   5.320  14.513  0.2311  0.2726 -0.2849
15778TIP3    H168825   4.018   5.281  14.599  1.0646  1.1901  0.0013
15778TIP3    H268826   4.088   5.318  14.470 -0.4067 -1.2213 -1.5592
15779TIP3   OH268827   0.661   5.610   3.287 -0.5948 -0.2599 -0.3443
15779TIP3    H168828   0.714   5.575   3.215 -0.6198  1.2432 -1.1451
15779TIP3    H268829   0.712   5.683   3.321 -1.0742 -0.2889  0.4591
15780TIP3   OH268830   4.839   5.121  11.451 -0.2622 -0.6596 -0.6162
15780TIP3    H168831   4.929   5.088  11.457  0.1231  0.4253 -0.1983
15780TIP3    H268832   4.788   5.046  11.420  0.0842 -2.5303  2.8714
15781TIP3   OH268833   5.147   1.909  16.741  0.3036 -0.3240 -0.2195
15781TIP3    H168834   5.069   1.902  16.796  0.1579 -1.5891 -0.5599
15781TIP3    H268835   5.123   1.972  16.673  1.3047  3.2721  2.4296
15782TIP3   OH268836   6.288   6.736   2.971  0.1773  0.4506 -0.0826
15782TIP3    H168837   6.329   6.669   3.025  4.1172  0.3297 -2.7642
15782TIP3    H268838   6.234   6.688   2.909  0.5418  0.0013 -0.0585
15783TIP3   OH268839   2.891   1.132  15.471 -0.4573 -0.7289  0.5409
15783TIP3    H168840   2.800   1.154  15.451  0.2521  0.1426 -2.1422
15783TIP3    H268841   2.898   1.038  15.454 -0.6552 -0.6136 -0.2076
15784TIP3   OH268842   4.606   6.430   2.325 -0.0096 -0.3554  0.9479
15784TIP3    H168843   4.683   6.487   2.330  0.9598 -1.5408  0.2100
15784TIP3    H268844   4.532   6.487   2.346  0.9946  0.9802  0.9783
15785TIP3   OH268845   1.824   5.044   5.064 -0.0882  0.2101 -0.2400
15785TIP3    H168846   1.874   5.112   5.018 -0.0353 -0.2781 -0.9291
15785TIP3    H268847   1.814   4.975   4.999 -4.6029  1.6125 -1.3445
15786TIP3   OH268848   0.340   6.133  12.982  1.0245  0.0916 -0.0628
15786TIP3    H168849   0.349   6.196  12.911  1.0003  1.4521  1.0867
15786TIP3    H268850   0.347   6.048  12.940 -0.1735  0.8169 -1.8562
15787TIP3   OH268851   2.230   0.084  12.337 -0.1525 -0.5651 -0.2428
15787TIP3    H168852   2.229   0.059  12.430 -0.5438  1.4137  0.3405
15787TIP3    H268853   2.142   0.120  12.322  0.2929  0.2303 -1.0351
15788TIP3   OH268854   2.564   5.260  14.433  0.3606 -0.2576  0.2009
15788TIP3    H168855   2.653   5.294  14.425 -0.6459  2.1229 -2.5169
15788TIP3    H268856   2.552   5.203  14.357 -1.4430  2.4081 -1.7346
15789TIP3   OH268857   3.822   6.048  12.368 -0.4546  0.5874 -0.8000
15789TIP3    H168858   3.917   6.057  12.377 -0.3835 -0.4707 -0.3799
15789TIP3    H268859   3.810   5.984  12.297 -0.8379  0.1319 -0.3279
15790TIP3   OH268860   2.269   2.812   0.037  0.2307  0.2319 -1.0714
15790TIP3    H168861   2.298   2.721   0.044 -1.4853 -0.2246  1.2400
15790TIP3    H268862   2.215   2.814  -0.042  2.4734 -0.0250 -2.6972
15791TIP3   OH268863   0.337   0.420  13.879 -0.0262  0.2266 -0.0564
15791TIP3    H168864   0.381   0.435  13.963  0.7181  2.3137 -0.7504
15791TIP3    H268865   0.389   0.470  13.816 -0.9810 -0.7169 -1.6537
15792TIP3   OH268866   2.000   3.779   2.398  0.3791  0.4992 -0.2371
15792TIP3    H168867   1.909   3.749   2.387  0.1378  1.3790 -0.7132
15792TIP3    H268868   1.999   3.869   2.367  1.1618  0.9160  0.9107
15793TIP3   OH268869   5.340   1.412   5.944  0.1172  0.4265 -0.5959
15793TIP3    H168870   5.330   1.483   5.880  1.1464  0.7726 -0.3942
15793TIP3    H268871   5.399   1.350   5.900 -2.3898 -1.3788 -1.6329
15794TIP3   OH268872   0.213   3.068  15.792  0.1155 -0.0402 -0.6849
15794TIP3    H168873   0.126   3.029  15.795 -0.4941  1.3082  1.1342
15794TIP3    H268874   0.224   3.096  15.701 -1.2464 -0.4377 -0.9937
15795TIP3   OH268875   3.850   5.116  16.875  0.2686 -0.3154  0.4356
15795TIP3    H168876   3.918   5.138  16.811  0.4983  0.1858  0.8452
15795TIP3    H268877   3.872   5.168  16.952 -0.9928  0.4040  0.3316
15796TIP3   OH268878   1.809   0.470   3.532  0.1880  0.4331 -0.1158
15796TIP3    H168879   1.734   0.455   3.474  0.3369  1.4891 -0.6123
15796TIP3    H268880   1.865   0.394   3.519 -0.5047 -0.0824 -0.1943
15797TIP3   OH268881   6.197   2.198  12.963  0.0386 -0.4567 -0.0500
15797TIP3    H168882   6.232   2.154  12.886  0.3155  0.3122 -0.3701
15797TIP3    H268883   6.121   2.246  12.931  2.4957  3.2938 -0.8163
15798TIP3   OH268884   2.484   3.280   4.017  0.0305  0.4920 -0.3865
15798TIP3    H168885   2.544   3.301   3.945  1.1073 -1.6696 -0.2018
15798TIP3    H268886   2.540   3.241   4.085 -1.5184 -1.7613 -0.2668
15799TIP3   OH268887   6.341   4.533   0.315 -0.2802  0.6368 -0.1339
15799TIP3    H168888   6.409   4.498   0.371 -0.3776 -0.0764 -0.4416
15799TIP3    H268889   6.324   4.621   0.348  0.2024  0.5086  0.4593
15800TIP3   OH268890   5.404   5.906   3.698  0.4374  0.4584 -0.1507
15800TIP3    H168891   5.385   5.896   3.605  0.2961 -0.1004 -0.0675
15800TIP3    H268892   5.345   5.975   3.728 -0.2147 -0.0359 -0.2708
15801TIP3   OH268893   6.026   0.051  11.567  0.1367  0.3010  0.0615
15801TIP3    H168894   5.959   0.074  11.502  0.7028  1.2691 -0.1985
15801TIP3    H268895   6.025  -0.044  11.570 -1.3405  0.2901  0.1529
15802TIP3   OH268896   4.803   4.688   3.732 -0.0842 -0.2134 -0.4698
15802TIP3    H168897   4.862   4.758   3.761  0.1663 -0.3703 -0.6010
15802TIP3    H268898   4.854   4.638   3.668 -0.1056 -0.7931 -0.0349
15803TIP3   OH268899   1.184   1.485   4.593 -0.5969  0.1170 -0.6551
15803TIP3    H168900   1.147   1.559   4.641  1.1859  0.9630 -0.5161
15803TIP3    H268901   1.256   1.523   4.543  0.7191 -1.6210 -0.1525
15804TIP3   OH268902   0.313   5.017  10.609 -0.4411 -0.3204 -0.2372
15804TIP3    H168903   0.269   4.954  10.552 -1.1809  0.6423 -0.7699
15804TIP3    H268904   0.387   5.049  10.556  0.4565 -1.3557  0.3592
15805TIP3   OH268905   4.949   1.135   3.435 -0.6502 -0.4711  0.2058
15805TIP3    H168906   4.975   1.212   3.485  0.1749 -0.0227 -0.8644
15805TIP3    H268907   5.023   1.119   3.376 -0.5123 -2.4951  0.8656
15806TIP3   OH268908   3.066   5.407   6.673 -0.2304 -0.0120  0.2404
15806TIP3    H168909   3.158   5.402   6.646 -0.5992  0.0825 -1.1419
15806TIP3    H268910   3.022   5.449   6.599 -1.3502  0.1670  0.9882
15807TIP3   OH268911   1.777   1.440   1.894 -0.4976  0.2448  0.2668
15807TIP3    H168912   1.787   1.412   1.985 -1.7788 -0.7126  0.1388
15807TIP3    H268913   1.816   1.369   1.843  2.7330  1.9876  0.0602
15808TIP3   OH268914   5.942   3.755  14.848  0.9530  0.2084 -1.2067
15808TIP3    H168915   5.849   3.734  14.859  0.6923  2.1364  1.5436
15808TIP3    H268916   5.947   3.801  14.764 -0.0843 -2.0377 -2.5712
15809TIP3   OH268917   4.337   2.917  11.812  0.5207  0.6027 -0.2626
15809TIP3    H168918   4.323   2.979  11.884 -1.6600  0.2535 -0.3296
15809TIP3    H268919   4.250   2.886  11.789  1.4117 -1.3580 -1.2669
15810TIP3   OH268920   4.627   6.542  15.775  0.7862  0.0590  0.2408
15810TIP3    H168921   4.615   6.529  15.681  0.5828  2.8900 -0.2187
15810TIP3    H268922   4.618   6.637  15.788 -0.3410 -0.3404  3.2942
15811TIP3   OH268923   5.505   4.397  11.162 -0.1669  0.2871 -0.1015
15811TIP3    H168924   5.564   4.466  11.131  0.5482  0.3907  1.4329
15811TIP3    H268925   5.419   4.424  11.129  0.4898  0.4888 -1.7784
15812TIP3   OH268926   3.202   2.541  16.641 -0.1428  0.4578 -0.1637
15812TIP3    H168927   3.182   2.514  16.731  1.1509  1.0916  0.3423
15812TIP3    H268928   3.236   2.630  16.650  0.4081  0.3698 -1.2335
15813TIP3   OH268929   5.964   2.673  16.473 -0.2617 -0.2486 -0.2676
15813TIP3    H168930   5.891   2.671  16.411 -0.5970  0.5048  0.0930
15813TIP3    H268931   6.001   2.585  16.468 -0.1465 -0.1520 -1.6916
15814TIP3   OH268932   4.012   0.332  15.716  0.0544  0.4733  0.0315
15814TIP3    H168933   4.103   0.357  15.702  0.1549 -0.3273 -0.8855
15814TIP3    H268934   3.966   0.361  15.637 -0.4818  0.8569  0.4804
15815TIP3   OH268935   1.119   1.593   6.418 -0.0188  0.4931  0.3234
15815TIP3    H168936   1.161   1.536   6.354  1.5280  1.3198  0.5503
15815TIP3    H268937   1.087   1.533   6.486  1.9114 -0.1366  0.7481
15816TIP3   OH268938   0.168   1.490  11.956  0.6888 -0.3425 -0.3625
15816TIP3    H168939   0.201   1.556  11.895  1.4829 -1.2039 -0.8805
15816TIP3    H268940   0.117   1.430  11.902 -1.2003  0.5508  0.3142
15817TIP3   OH268941   5.331   6.080  11.393  0.0010 -0.0143 -0.4593
15817TIP3    H168942   5.327   6.089  11.488 -0.0179 -0.5867 -0.4033
15817TIP3    H268943   5.247   6.041  11.369 -0.2426  0.6946 -0.7816
15818TIP3   OH268944   2.063   1.492  13.094 -0.7040 -0.1689  0.2213
15818TIP3    H168945   1.975   1.459  13.112 -0.4679 -0.9579 -0.0018
15818TIP3    H268946   2.117   1.455  13.165 -0.0402 -2.0887 -1.1888
15819TIP3   OH268947   3.890   4.847  16.894 -1.1701  0.5635  0.5953
15819TIP3    H168948   3.825   4.804  16.839 -0.0990 -0.2845 -0.0523
15819TIP3    H268949   3.878   4.940  16.877 -1.2727  0.3497 -0.6244
15820TIP3   OH268950   0.305   2.807  13.237  0.2211  0.0727 -0.1525
15820TIP3    H168951   0.348   2.759  13.167 -2.1482  0.7891 -2.2337
15820TIP3    H268952   0.363   2.797  13.313  1.9030 -2.4097 -1.6487
15821TIP3   OH268953   3.088   1.355   3.579  0.1133 -0.5017 -0.2744
15821TIP3    H168954   3.002   1.394   3.562  0.7716  0.5536 -1.3198
15821TIP3    H268955   3.110   1.311   3.497 -0.4656 -2.8855  0.7659
15822TIP3   OH268956   4.167   3.883   1.034 -0.4461 -0.2740  0.0618
15822TIP3    H168957   4.157   3.943   0.960  2.2011  0.6351  0.3229
15822TIP3    H268958   4.248   3.912   1.077  0.0481 -3.0254  1.1872
15823TIP3   OH268959   3.785   1.010  11.730  0.6925  0.6301  0.6712
15823TIP3    H168960   3.809   0.919  11.746 -0.4760  0.3062  0.6918
15823TIP3    H268961   3.844   1.039  11.661  0.0847 -0.6380 -0.4276
15824TIP3   OH268962   1.412   4.883   5.425 -0.3729 -0.2258 -0.3216
15824TIP3    H168963   1.325   4.861   5.459  0.5195  0.1298  2.5097
15824TIP3    H268964   1.421   4.977   5.443  0.1190  0.0388 -1.8222
15825TIP3   OH268965   1.184   5.201  16.269  0.3085  0.2905  0.2713
15825TIP3    H168966   1.131   5.140  16.321  0.7389 -0.3264  0.0025
15825TIP3    H268967   1.171   5.286  16.311  0.2224 -0.0987  1.0517
15826TIP3   OH268968   2.308   4.254  12.081 -0.0616  0.4362  0.1015
15826TIP3    H168969   2.372   4.210  12.025 -1.2712  0.8684 -1.7347
15826TIP3    H268970   2.241   4.286  12.020 -0.5329  2.5795  1.6017
15827TIP3   OH268971   6.748   2.763   1.430 -0.4923 -0.6166  0.1085
15827TIP3    H168972   6.783   2.768   1.519 -0.8946 -0.3897  0.2565
15827TIP3    H268973   6.813   2.712   1.381  0.8769  1.1618 -0.0396
15828TIP3   OH268974   6.367   1.947   1.279 -0.6259  0.2543 -0.2559
15828TIP3    H168975   6.420   2.021   1.250 -0.2073  0.5733  1.2269
15828TIP3    H268976   6.428   1.893   1.330 -0.9585 -1.0605 -1.1854
15829TIP3   OH268977   1.148   4.512   3.337  0.0360 -0.2396 -0.0504
15829TIP3    H168978   1.098   4.432   3.351 -0.6155 -0.5872 -3.4199
15829TIP3    H268979   1.081   4.580   3.327  0.2804 -0.2369 -2.0548
15830TIP3   OH268980   4.129   3.811  14.462  0.1382  0.0992  0.5293
15830TIP3    H168981   4.135   3.719  14.435 -2.1137 -0.7297  2.4627
15830TIP3    H268982   4.059   3.846  14.407  0.4995  0.4637  0.3013
15831TIP3   OH268983   4.476   1.819  11.888 -0.0895  0.3125 -0.1496
15831TIP3    H168984   4.529   1.740  11.889  2.0309  1.4608  4.2492
15831TIP3    H268985   4.521   1.877  11.826  0.7325 -0.5315 -0.3647
15832TIP3   OH268986   1.713   0.761   4.242 -0.2416 -0.5821 -0.2771
15832TIP3    H168987   1.734   0.712   4.162  1.0874 -0.1302 -0.2317
15832TIP3    H268988   1.784   0.739   4.303  1.4339  2.6614 -0.8284
15833TIP3   OH268989   1.902   3.708   0.377 -0.0091 -0.0190  0.4446
15833TIP3    H168990   1.838   3.757   0.326 -0.1685 -0.3767  0.3049
15833TIP3    H268991   1.913   3.760   0.457 -0.3990  0.0919  0.4275
15834TIP3   OH268992   3.778   4.253   0.705  0.6791  0.1633  0.3293
15834TIP3    H168993   3.750   4.258   0.613  0.2309  0.6715  0.4903
15834TIP3    H268994   3.867   4.217   0.700  0.6578  0.1767 -0.3063
15835TIP3   OH268995   0.005   0.903   2.696  0.1049  0.5730 -0.1462
15835TIP3    H168996   0.054   0.979   2.728  0.0851  0.5373 -0.0314
15835TIP3    H268997  -0.079   0.907   2.741  0.1918  0.3506  0.0438
15836TIP3   OH268998   3.268   6.798  13.394  0.1471  0.8335  0.3550
15836TIP3    H168999   3.263   6.799  13.298  2.1070  0.9231  0.2060
15836TIP3    H269000   3.303   6.884  13.417  1.9826 -0.0275  0.9487
15837TIP3   OH269001   3.436   0.525  17.001  0.0933 -0.0496 -0.1101
15837TIP3    H169002   3.486   0.459  16.952 -2.6145 -1.7658 -0.7576
15837TIP3    H269003   3.429   0.489  17.090  1.5878  1.1316  0.5234
15838TIP3   OH269004   1.474   6.700  11.869  0.5013  0.7631  0.2852
15838TIP3    H169005   1.462   6.780  11.819  0.7349  0.1027 -0.8627
15838TIP3    H269006   1.456   6.725  11.960 -1.3388  1.6571 -0.2843
15839TIP3   OH269007   2.726   6.695   1.468 -0.0204  0.0466 -0.0159
15839TIP3    H169008   2.674   6.697   1.387 -1.0409 -0.1437  0.6199
15839TIP3    H269009   2.694   6.769   1.519  1.7481  1.1527 -0.4480
15840TIP3   OH269010   1.069   2.285  16.226  0.3492  0.5519 -0.5047
15840TIP3    H169011   1.074   2.380  16.212 -1.2240  0.7761  0.1856
15840TIP3    H269012   1.067   2.248  16.137 -0.1274  1.2575 -0.7986
15841TIP3   OH269013   6.083   6.730  13.269 -0.3175  1.1351  0.3172
15841TIP3    H169014   6.157   6.707  13.324 -1.2880  1.0206  1.6242
15841TIP3    H269015   6.008   6.688  13.311 -0.8637 -0.7179 -2.2014
15842TIP3   OH269016   1.373   4.935  15.370  0.7305  0.0420 -0.0395
15842TIP3    H169017   1.448   4.898  15.417  0.3829  0.3806  0.8141
15842TIP3    H269018   1.304   4.869  15.380 -0.0279  1.0370  1.8608
15843TIP3   OH269019   4.327   2.653  10.687  0.1293  0.2096 -0.5612
15843TIP3    H169020   4.389   2.712  10.729  0.1525  0.8406 -1.4722
15843TIP3    H269021   4.243   2.698  10.694 -0.1615 -0.4152  0.2192
15844TIP3   OH269022   1.600   5.487  15.678 -0.8299 -0.1890 -0.3525
15844TIP3    H169023   1.667   5.418  15.679 -1.3385 -0.7028  1.1578
15844TIP3    H269024   1.518   5.441  15.695 -1.6843  0.3617 -2.7159
15845TIP3   OH269025   6.482   0.309  12.738 -0.6170 -0.3247  0.6496
15845TIP3    H169026   6.422   0.236  12.755  0.4927 -1.8062 -1.3605
15845TIP3    H269027   6.553   0.296  12.802 -0.9778 -0.3067  1.0618
15846TIP3   OH269028   3.012   4.731  16.510 -0.3112 -0.6016  0.0515
15846TIP3    H169029   2.967   4.680  16.442  0.8182 -0.1351 -1.0727
15846TIP3    H269030   2.966   4.815  16.511 -0.5246 -0.7174  0.0908
15847TIP3   OH269031   1.622   5.069   2.002  0.3079 -0.9218 -0.5241
15847TIP3    H169032   1.532   5.055   2.033  1.1025 -2.5299  1.2509
15847TIP3    H269033   1.640   4.996   1.944  1.2000 -1.9136  0.9520
15848TIP3   OH269034   3.600   2.677   0.797  0.1435 -0.0927 -0.2488
15848TIP3    H169035   3.571   2.736   0.867  1.0133  0.2719 -0.1831
15848TIP3    H269036   3.612   2.592   0.841 -2.2567 -0.6746 -0.5709
15849TIP3   OH269037   6.426   5.697   4.376  0.5425 -0.3294 -0.0197
15849TIP3    H169038   6.518   5.714   4.399  0.5074 -1.5262  1.1416
15849TIP3    H269039   6.395   5.638   4.445 -0.9860 -0.2775 -0.6322
15850TIP3   OH269040   1.571   6.625   3.155 -0.1354  0.2740 -1.1874
15850TIP3    H169041   1.528   6.652   3.074  0.1138 -2.1630 -2.2329
15850TIP3    H269042   1.499   6.612   3.217 -0.4553  0.7835 -1.4437
15851TIP3   OH269043   6.437   5.054   3.243 -0.1386 -0.0981  0.0967
15851TIP3    H169044   6.404   5.109   3.314  2.0412 -0.4905  1.5113
15851TIP3    H269045   6.369   4.989   3.229 -0.6730  0.0723  1.7569
15852TIP3   OH269046   3.969   5.783  16.410 -0.8077  0.2302 -0.2008
15852TIP3    H169047   3.945   5.845  16.341 -1.8816 -0.3489 -0.3694
15852TIP3    H269048   4.062   5.766  16.395 -0.6810  1.1895 -0.6314
15853TIP3   OH269049   1.285   1.488   5.242 -1.0379  0.1352 -0.2756
15853TIP3    H169050   1.233   1.409   5.230  0.7680 -1.0339 -0.8625
15853TIP3    H269051   1.371   1.456   5.271 -0.7856  2.0035  1.2718
15854TIP3   OH269052   1.490   4.650  12.382  0.5607  0.3728  0.0503
15854TIP3    H169053   1.515   4.591  12.453  0.6118  1.3655  0.8826
15854TIP3    H269054   1.458   4.728  12.426  0.8925  1.1443 -1.0309
15855TIP3   OH269055   0.967   1.962  14.351 -0.1147  0.3016  0.0796
15855TIP3    H169056   0.916   1.893  14.394 -1.6979  1.2381 -0.1941
15855TIP3    H269057   1.016   1.917  14.283 -0.6832 -0.6381  0.2763
15856TIP3   OH269058   2.495   2.555  15.805 -0.5754 -0.7029  0.2238
15856TIP3    H169059   2.426   2.544  15.739  0.0494 -1.8604 -0.2741
15856TIP3    H269060   2.564   2.604  15.760  0.3308 -2.4626 -0.3953
15857TIP3   OH269061   5.963   1.932   3.597 -0.1809 -0.2019  0.5442
15857TIP3    H169062   5.953   1.907   3.505  1.7705 -1.4691  0.6061
15857TIP3    H269063   6.038   1.881   3.627  1.5960  2.8890  1.8436
15858TIP3   OH269064   3.199   5.974   1.861  0.2821  0.1736  0.0381
15858TIP3    H169065   3.176   5.882   1.867 -0.1628  0.1489 -1.6164
15858TIP3    H269066   3.193   5.995   1.768 -3.4833  2.8279  0.6528
15859TIP3   OH269067   1.792   6.164  12.493  0.1329  0.4853  0.1185
15859TIP3    H169068   1.794   6.180  12.399  1.8624  0.1195  0.0556
15859TIP3    H269069   1.730   6.228  12.527 -3.1011 -1.4698 -1.5979
15860TIP3   OH269070   3.693   1.889  12.836  0.1141  0.0267  0.1318
15860TIP3    H169071   3.717   1.843  12.756  0.3704 -0.3482  0.4202
15860TIP3    H269072   3.602   1.867  12.851  0.4395 -0.9891  0.6674
15861TIP3   OH269073   0.829   1.881   5.502 -0.7018  0.3305  0.2050
15861TIP3    H169074   0.910   1.886   5.451 -0.3479 -0.1637  0.7057
15861TIP3    H269075   0.783   1.805   5.466  0.4589 -1.2368  1.8843
15862TIP3   OH269076   0.239   5.646  14.804  0.0318 -0.0766  0.2216
15862TIP3    H169077   0.318   5.663  14.856  0.4716 -0.3865 -0.3303
15862TIP3    H269078   0.212   5.732  14.772 -0.3033  0.1272  1.0488
15863TIP3   OH269079   4.850   4.100  12.383 -0.6838  0.3107 -0.2408
15863TIP3    H169080   4.839   4.005  12.384 -0.1504  0.2489  0.7761
15863TIP3    H269081   4.938   4.115  12.416 -0.4469  1.1317 -1.2004
15864TIP3   OH269082   0.955   2.555   5.069 -0.5007  0.3533 -0.2989
15864TIP3    H169083   0.904   2.635   5.079 -1.0146  0.1522 -1.2027
15864TIP3    H269084   1.033   2.582   5.021 -0.7788  0.2916 -0.8029
15865TIP3   OH269085   0.986   5.301  11.948  0.4610 -0.0546 -0.4274
15865TIP3    H169086   1.037   5.227  11.916 -2.3683 -2.8003  0.8793
15865TIP3    H269087   0.947   5.339  11.870  1.1781 -0.5641 -1.0467
15866TIP3   OH269088   0.952   3.380   3.545 -0.9038  0.1318 -0.3987
15866TIP3    H169089   0.947   3.294   3.588  1.1914 -0.8137 -1.8443
15866TIP3    H269090   1.045   3.404   3.552 -1.3558  2.0533 -0.5008
15867TIP3   OH269091   5.116   3.368   0.020 -0.2142 -0.1515 -0.8314
15867TIP3    H169092   5.149   3.347   0.108  0.0130  0.1516 -0.8452
15867TIP3    H269093   5.187   3.340  -0.039 -0.6162 -0.9245 -0.9633
15868TIP3   OH269094   3.301   1.535   1.498  0.1343 -0.5724  0.1905
15868TIP3    H169095   3.214   1.499   1.516  0.9732 -2.2131  1.0991
15868TIP3    H269096   3.286   1.630   1.494 -1.1363 -0.4335  3.9941
15869TIP3   OH269097   2.663   2.968  12.684 -0.0615 -0.2790  0.2719
15869TIP3    H169098   2.695   2.903  12.622 -1.1613 -1.3991  0.8375
15869TIP3    H269099   2.722   3.043  12.673  0.6633 -1.0100 -1.0497
15870TIP3   OH269100   6.089   2.216   4.578  0.0178 -0.2012  0.0156
15870TIP3    H169101   6.125   2.232   4.665  0.9754 -2.1193  0.0077
15870TIP3    H269102   6.055   2.302   4.551  2.2053  1.1091  1.1070
15871TIP3   OH269103   2.542   4.634  11.813 -0.4280  0.3388  0.3903
15871TIP3    H169104   2.593   4.614  11.735 -0.5115 -0.1437  0.4532
15871TIP3    H269105   2.606   4.654  11.880 -0.3377  0.2364  0.3349
15872TIP3   OH269106   0.856   3.278  17.016  0.2040 -0.0969 -0.6287
15872TIP3    H169107   0.943   3.239  17.013 -1.2082 -3.8764  1.6170
15872TIP3    H269108   0.813   3.247  16.937  0.0986 -0.3544 -0.4708
15873TIP3   OH269109   3.999   1.200   3.169  0.3315 -0.2920  0.2218
15873TIP3    H169110   3.949   1.165   3.242 -1.7424 -0.8140 -1.3449
15873TIP3    H269111   3.946   1.273   3.136  1.1198 -0.1753 -0.8649
15874TIP3   OH269112   5.073   2.916  14.488  0.1899 -0.4866  0.4524
15874TIP3    H169113   5.118   2.870  14.559  0.9306 -1.4204 -0.6048
15874TIP3    H269114   5.023   2.848  14.443 -0.8975  0.2326  0.5303
15875TIP3   OH269115   0.438   5.329  14.796 -0.1409 -0.1268  0.2019
15875TIP3    H169116   0.366   5.341  14.857 -0.1828  1.5046 -0.1210
15875TIP3    H269117   0.517   5.342  14.848 -0.1324 -0.2007  0.2075
15876TIP3   OH269118   4.848   6.721  14.244 -0.0739  0.3108  0.0928
15876TIP3    H169119   4.831   6.678  14.328  1.0258 -0.2344  0.0461
15876TIP3    H269120   4.920   6.782  14.262 -0.2118  0.6054 -0.3353
15877TIP3   OH269121   0.258   2.199   0.483 -0.4086  0.6326  0.5459
15877TIP3    H169122   0.208   2.280   0.470 -2.3401 -0.7497 -1.3471
15877TIP3    H269123   0.305   2.187   0.401  0.4732  0.1984  1.1000
15878TIP3   OH269124   6.335   4.287  13.124  0.0585  0.2892 -0.4689
15878TIP3    H169125   6.352   4.218  13.189  0.3197  0.4754 -0.3393
15878TIP3    H269126   6.414   4.340  13.125  0.1128  0.2202 -1.0340
15879TIP3   OH269127   6.115   4.756  16.375 -0.1164 -0.3661  0.6952
15879TIP3    H169128   6.147   4.758  16.284 -0.2652  0.8019  0.6512
15879TIP3    H269129   6.194   4.769  16.428  0.4240 -3.7610  0.9109
15880TIP3   OH269130   3.136   1.766   0.899  0.2632 -0.2161  0.6602
15880TIP3    H169131   3.135   1.674   0.870  1.5429  0.8350 -3.3414
15880TIP3    H269132   3.046   1.796   0.884 -0.0548 -0.6544  1.5887
15881TIP3   OH269133   6.024   6.306   2.784 -0.0808  0.6380 -0.2567
15881TIP3    H169134   6.003   6.217   2.813 -0.8452  0.1985 -2.0375
15881TIP3    H269135   6.084   6.294   2.710 -2.4050  1.4018 -2.3938
15882TIP3   OH269136   5.445   5.998   0.495 -0.2050  0.0937 -0.2207
15882TIP3    H169137   5.462   6.066   0.430 -2.1834  1.1914  0.3417
15882TIP3    H269138   5.350   5.982   0.489 -0.0216 -1.5620  0.6786
15883TIP3   OH269139   5.716   4.938   5.863 -0.4112  0.0420 -0.3550
15883TIP3    H169140   5.724   4.871   5.930  1.9607 -0.8408 -1.4070
15883TIP3    H269141   5.661   4.899   5.796  1.0142 -0.9417 -0.9939
15884TIP3   OH269142   0.163   5.733   5.116 -0.3100 -0.4689 -0.3311
15884TIP3    H169143   0.247   5.739   5.070  0.3832  1.3314  1.0513
15884TIP3    H269144   0.151   5.639   5.131  1.2575 -0.7899 -0.8905
15885TIP3   OH269145   1.414   4.294  15.409  0.0779  0.0880  0.6255
15885TIP3    H169146   1.331   4.339  15.420  0.2893 -0.0002  3.0991
15885TIP3    H269147   1.391   4.203  15.388 -0.5174 -0.1444  2.1659
15886TIP3   OH269148   3.600   0.526   3.835  0.5234 -0.0833 -0.1255
15886TIP3    H169149   3.540   0.601   3.830  2.2925  1.3365 -0.8646
15886TIP3    H269150   3.620   0.518   3.928 -0.1089  0.0036  0.0223
15887TIP3   OH269151   2.255   4.692  16.042  0.2775  0.1967 -0.4423
15887TIP3    H169152   2.259   4.786  16.022  1.8338  1.8447  5.5949
15887TIP3    H269153   2.162   4.670  16.036 -0.1298  2.0711 -1.9418
15888TIP3   OH269154   4.941   1.101   5.164 -0.0070  0.2567 -0.4468
15888TIP3    H169155   4.889   1.115   5.085  0.3345  0.5576 -0.6182
15888TIP3    H269156   4.997   1.026   5.143 -0.1060  0.1669 -0.3927
15889TIP3   OH269157   2.483   2.972  15.082  0.1491  0.1500 -0.4429
15889TIP3    H169158   2.573   2.938  15.081 -0.3919 -1.3535 -1.2421
15889TIP3    H269159   2.464   2.987  15.175  0.5165 -1.5897 -0.0415
15890TIP3   OH269160   0.615   1.522   6.066  0.1739 -0.1368 -0.0021
15890TIP3    H169161   0.564   1.579   6.009  0.2155 -0.3266 -0.2321
15890TIP3    H269162   0.653   1.580   6.132 -0.1332  0.0391  0.0198
15891TIP3   OH269163   5.599   6.459   2.036  0.1219 -0.0616  0.2133
15891TIP3    H169164   5.663   6.529   2.024  0.5964 -0.8909 -3.0734
15891TIP3    H269165   5.521   6.488   1.990  0.1124 -1.3659 -0.6634
15892TIP3   OH269166   3.703   0.393  15.964  0.0799 -0.1163 -0.3687
15892TIP3    H169167   3.623   0.442  15.949 -0.5524 -0.7640  0.7811
15892TIP3    H269168   3.773   0.456  15.950 -0.6179  0.4483 -1.4129
15893TIP3   OH269169   6.672   2.902   4.511  0.6279 -0.0891 -0.0712
15893TIP3    H169170   6.734   2.832   4.489  0.2774 -0.9243  1.4429
15893TIP3    H269171   6.710   2.943   4.589 -1.4600 -1.6822  1.9098
15894TIP3   OH269172   2.312   5.327   1.176  0.0368 -0.2789 -0.4192
15894TIP3    H169173   2.379   5.278   1.127  1.3846  0.3269  0.7337
15894TIP3    H269174   2.363   5.381   1.237 -1.3494  2.5030 -1.5283
15895TIP3   OH269175   3.084   5.292   5.253 -0.1305  0.2240 -0.1962
15895TIP3    H169176   3.147   5.228   5.221 -0.0056  0.6138 -0.7326
15895TIP3    H269177   3.045   5.330   5.175 -0.4484  0.5661  0.1204
15896TIP3   OH269178   6.143   2.378  14.428 -0.3250 -0.0334  0.6017
15896TIP3    H169179   6.169   2.403  14.339  0.5387  2.1567  1.4101
15896TIP3    H269180   6.182   2.291  14.439  1.9746  0.7928 -0.2343
15897TIP3   OH269181   3.771   0.483   4.665  0.2598 -0.0831  0.4717
15897TIP3    H169182   3.806   0.458   4.750 -0.5665 -2.4346  0.1834
15897TIP3    H269183   3.684   0.518   4.684  0.9822  1.6779  0.7642
15898TIP3   OH269184   3.872   2.952  11.455  0.6270 -0.5481 -0.7102
15898TIP3    H169185   3.790   3.002  11.467 -0.2942 -2.1073 -0.1477
15898TIP3    H269186   3.941   3.015  11.474 -0.4750  0.6057 -0.3635
15899TIP3   OH269187   4.810   5.431  12.713  0.1315  0.5151 -0.5520
15899TIP3    H169188   4.882   5.382  12.674  0.5527  0.3242  0.4506
15899TIP3    H269189   4.768   5.474  12.639  0.3366 -0.5868 -1.3395
15900TIP3   OH269190   2.771   6.073  14.969  0.9413 -0.6267  0.5318
15900TIP3    H169191   2.756   6.056  15.061  0.4377 -0.2082  0.5333
15900TIP3    H269192   2.707   6.018  14.923 -1.1391  1.5855  0.5577
15901TIP3   OH269193   2.650   3.401   4.439  0.3257 -0.0877 -0.0722
15901TIP3    H169194   2.696   3.481   4.466  1.1638 -0.9303  1.0559
15901TIP3    H269195   2.694   3.331   4.486 -1.8896 -0.9826  0.7597
15902TIP3   OH269196   3.845   5.393  15.054  0.3479  0.3442  0.0404
15902TIP3    H169197   3.818   5.483  15.038 -3.6344 -0.5534  0.7411
15902TIP3    H269198   3.795   5.341  14.991 -0.8915 -1.6561  2.4704
15903TIP3   OH269199   2.329   2.162  13.958  0.4368  0.0892  0.3194
15903TIP3    H169200   2.287   2.148  14.043 -2.3709  0.7652 -0.8602
15903TIP3    H269201   2.422   2.176  13.980  0.0527 -1.0113  3.1249
15904TIP3   OH269202   5.755   2.607  16.313  0.1629  0.4722  0.4594
15904TIP3    H169203   5.690   2.597  16.383  1.8984 -0.8000  2.0123
15904TIP3    H269204   5.751   2.524  16.266  2.0460 -0.5619  1.9390
15905TIP3   OH269205   3.350   6.704   6.274  0.3534  0.5446 -0.2624
15905TIP3    H169206   3.255   6.708   6.283  0.4100  1.0111  0.2296
15905TIP3    H269207   3.377   6.796   6.272  0.8620  0.4232  0.4572
15906TIP3   OH269208   0.443   4.821   6.453  0.1712 -0.6282 -0.2637
15906TIP3    H169209   0.451   4.893   6.516  2.2973 -0.6952 -0.3567
15906TIP3    H269210   0.390   4.755   6.498  0.2010  0.0312  0.7807
15907TIP3   OH269211   5.002   6.309  15.128  0.1040  0.4702 -0.2486
15907TIP3    H169212   5.011   6.384  15.187  0.3759 -0.7099  1.2972
15907TIP3    H269213   5.090   6.272  15.123 -0.5146 -1.3509  1.3092
15908TIP3   OH269214   5.767   6.038  14.219  0.0944 -0.0045  0.7335
15908TIP3    H169215   5.722   5.968  14.171 -0.0780  0.1193  0.7131
15908TIP3    H269216   5.700   6.105  14.231  0.8055  1.0786 -1.0691
15909TIP3   OH269217   1.765   1.856  17.057 -0.4162  0.6158  0.0966
15909TIP3    H169218   1.681   1.896  17.032  0.0879  2.5208  1.2747
15909TIP3    H269219   1.800   1.822  16.975 -2.0777  0.2468 -0.5083
15910TIP3   OH269220   0.942   2.637   3.107  0.2677 -0.2601  0.2851
15910TIP3    H169221   0.984   2.596   3.182 -1.5700 -1.3035  0.8101
15910TIP3    H269222   0.874   2.574   3.080  0.5239  0.3185 -1.9290
15911TIP3   OH269223   0.316   3.166   0.318 -0.3341  0.3952  0.0594
15911TIP3    H169224   0.233   3.213   0.327 -0.7375 -0.4348  0.8104
15911TIP3    H269225   0.337   3.137   0.407 -0.0923 -0.8216 -0.3798
15912TIP3   OH269226   3.803   5.124   0.495  0.1767 -0.3397 -0.2323
15912TIP3    H169227   3.890   5.165   0.492 -0.2239  0.4721 -0.8337
15912TIP3    H269228   3.743   5.195   0.517 -0.2870 -1.0049  0.7380
15913TIP3   OH269229   2.650   4.473  10.702  0.3098 -0.3471 -0.4346
15913TIP3    H169230   2.585   4.516  10.646 -1.0258 -1.7161  0.0017
15913TIP3    H269231   2.671   4.392  10.655  1.1131 -0.2819 -0.1876
15914TIP3   OH269232   2.247   2.424  12.495  0.2498  0.3138  0.0154
15914TIP3    H169233   2.187   2.483  12.448  0.0532 -0.9711 -1.4472
15914TIP3    H269234   2.318   2.480  12.525 -0.4121  1.4545 -0.4883
15915TIP3   OH269235   1.266   2.952   4.573  0.4134  0.0624 -0.1735
15915TIP3    H169236   1.223   2.906   4.645  1.2733  1.3135  1.1963
15915TIP3    H269237   1.216   2.926   4.495 -3.2680  1.8670  1.3239
15916TIP3   OH269238   3.715   5.984  10.573 -0.0905 -0.4803  0.8521
15916TIP3    H169239   3.767   6.045  10.521 -1.2672  0.1005  0.3108
15916TIP3    H269240   3.746   5.996  10.662  0.2591  0.3179  0.6334
15917TIP3   OH269241   1.655   2.268   1.946 -0.3185  0.5941  0.3004
15917TIP3    H169242   1.641   2.214   1.868  2.3429 -0.5609  0.5196
15917TIP3    H269243   1.694   2.349   1.912 -0.9358  0.8850  0.2801
15918TIP3   OH269244   0.032   5.020   2.222 -0.1430  0.1398  0.1488
15918TIP3    H169245   0.015   4.927   2.207 -0.7468  0.5561 -2.1596
15918TIP3    H269246   0.071   5.024   2.309 -0.2243 -2.2534  0.3494
15919TIP3   OH269247   5.206   4.849  15.591  0.1282  0.5601  0.4208
15919TIP3    H169248   5.197   4.943  15.575  0.0569  0.6321  0.8692
15919TIP3    H269249   5.296   4.829  15.563 -0.5597  0.3150 -1.7521
15920TIP3   OH269250   5.865   5.844   3.358 -0.2518 -0.7891  0.0198
15920TIP3    H169251   5.834   5.815   3.444 -0.1584  0.0257  0.3408
15920TIP3    H269252   5.815   5.924   3.341  0.4727 -0.3723 -0.2078
15921TIP3   OH269253   5.474   5.454  15.128  0.2299 -0.0622  0.4698
15921TIP3    H169254   5.491   5.365  15.157 -0.0385  0.0951  1.1216
15921TIP3    H269255   5.404   5.485  15.186 -1.5154 -0.3055 -1.3695
15922TIP3   OH269256   0.998   6.119  11.856 -0.6982 -0.4928  0.2749
15922TIP3    H169257   1.090   6.133  11.880 -0.0491  0.4402 -2.3837
15922TIP3    H269258   1.001   6.101  11.762 -3.3461  0.6623 -0.0940
15923TIP3   OH269259   0.404   1.236   5.190 -0.1376  0.3799  0.6196
15923TIP3    H169260   0.344   1.271   5.256 -1.1016 -0.1806  0.0617
15923TIP3    H269261   0.456   1.312   5.163 -2.8562  1.7688 -1.3048
15924TIP3   OH269262   5.451   2.684  12.735 -0.0248  0.2327 -0.0323
15924TIP3    H169263   5.484   2.772  12.717  0.0052  0.5864  1.6338
15924TIP3    H269264   5.439   2.645  12.648  0.3195  1.7354 -0.7889
15925TIP3   OH269265   1.451   6.579   4.707  0.6485  0.1152  0.4316
15925TIP3    H169266   1.437   6.624   4.791 -0.1106  1.2027 -0.2519
15925TIP3    H269267   1.364   6.575   4.667  1.4366  2.6639 -1.7951
15926TIP3   OH269268   2.458   2.994  17.200 -0.0362  0.3032 -0.7736
15926TIP3    H169269   2.413   2.917  17.235 -0.9565 -0.5054 -3.4302
15926TIP3    H269270   2.521   2.958  17.137  3.0564  1.5451  1.3654
15927TIP3   OH269271   0.861   6.319   2.614  0.5507 -0.7340 -0.0257
15927TIP3    H169272   0.794   6.381   2.643 -0.5919 -1.9916  0.1176
15927TIP3    H269273   0.933   6.375   2.584 -0.1886  0.6487  0.6386
15928TIP3   OH269274   1.820   6.170   2.565  0.3145 -0.9558  0.7707
15928TIP3    H169275   1.767   6.245   2.538  2.9966  1.4440  1.6544
15928TIP3    H269276   1.768   6.094   2.540 -1.6652  1.1106 -2.1258
15929TIP3   OH269277   1.287   0.917   2.097  0.2152 -0.2370  0.1992
15929TIP3    H169278   1.351   0.938   2.029 -3.1553  3.0910 -2.3960
15929TIP3    H269279   1.237   0.843   2.061  0.5933 -0.7614  0.7359
15930TIP3   OH269280   0.320   2.067  12.402 -0.5073  0.7243  0.5403
15930TIP3    H169281   0.225   2.070  12.409 -0.5162  1.6062  0.1598
15930TIP3    H269282   0.351   2.137  12.459 -0.0198 -0.2303  1.4965
15931TIP3   OH269283   1.905   5.797   2.619 -0.3641  0.3935 -0.7494
15931TIP3    H169284   1.970   5.829   2.682  0.0528 -1.9894  0.1507
15931TIP3    H269285   1.948   5.806   2.534 -0.3030  2.1607 -0.5655
15932TIP3   OH269286   5.217   4.542  16.952 -0.1626 -0.2444  0.0392
15932TIP3    H169287   5.277   4.552  16.878 -0.9776  0.6986 -0.5121
15932TIP3    H269288   5.170   4.625  16.957  0.5579  0.0932  2.2441
15933TIP3   OH269289   3.101   3.464  11.285 -0.1485  0.4853  0.6514
15933TIP3    H169290   3.055   3.432  11.208  1.2921 -0.6262  0.2193
15933TIP3    H269291   3.054   3.426  11.359  0.9543 -1.9360  0.1803
15934TIP3   OH269292   1.651   4.152   3.123  0.2171  0.5326 -0.1728
15934TIP3    H169293   1.556   4.163   3.134  0.1147 -0.5111  0.1007
15934TIP3    H269294   1.671   4.071   3.170  1.2965  0.9009  0.0079
15935TIP3   OH269295   6.298   3.208  11.677  0.9311 -0.9644  0.7710
15935TIP3    H169296   6.318   3.249  11.761  1.1982  0.8347 -0.1137
15935TIP3    H269297   6.383   3.203  11.633  0.4530  0.4350 -0.3559
15936TIP3   OH269298   5.110   4.108  12.465 -0.5844  0.7717 -0.2024
15936TIP3    H169299   5.143   4.029  12.422 -0.1272  0.4688  0.6658
15936TIP3    H269300   5.168   4.178  12.435  1.3392  0.1393  1.7807
15937TIP3   OH269301   5.926   4.788  11.650  0.1881  0.4928 -0.0115
15937TIP3    H169302   5.866   4.747  11.588 -0.8945 -1.9471  2.4277
15937TIP3    H269303   5.908   4.881  11.643  0.2998  0.3906 -3.4077
15938TIP3   OH269304   4.907   3.709  10.769  0.6085  0.1129 -0.6659
15938TIP3    H169305   4.820   3.670  10.783  0.4386  0.8425  0.3579
15938TIP3    H269306   4.893   3.803  10.782  1.5200  0.2539 -0.6962
15939TIP3   OH269307   3.750   3.825   1.943 -0.2374 -0.6080  0.5113
15939TIP3    H169308   3.808   3.749   1.957  0.6181 -1.1351 -4.2444
15939TIP3    H269309   3.671   3.788   1.905 -0.5365  0.7339 -0.2189
15940TIP3   OH269310   6.039   6.092  11.151  0.2081 -0.3493  0.4292
15940TIP3    H169311   5.972   6.063  11.212  0.0200  1.5006  1.1549
15940TIP3    H269312   5.992   6.145  11.087  0.5956 -1.2593 -0.6402
15941TIP3   OH269313   4.238   0.256   2.353  0.6973 -0.0327  0.0808
15941TIP3    H169314   4.264   0.232   2.442 -1.5352 -2.4962  0.2066
15941TIP3    H269315   4.297   0.208   2.296  1.0501  0.2120  0.2363
15942TIP3   OH269316   0.497   1.974   6.152  0.6004 -0.0461  0.1097
15942TIP3    H169317   0.511   1.987   6.245  0.5869 -2.0584  0.4326
15942TIP3    H269318   0.425   2.033   6.130 -0.5643 -0.7697  1.7610
15943TIP3   OH269319   2.571   5.594   3.869  0.0575  0.2735  0.1969
15943TIP3    H169320   2.573   5.651   3.946  0.8733 -0.7196  0.9429
15943TIP3    H269321   2.605   5.648   3.798  0.6641  0.7782  0.8548
15944TIP3   OH269322   5.858   2.115  16.337 -0.3284 -0.1515  0.5582
15944TIP3    H169323   5.825   2.201  16.310  0.9764  0.6074  1.2502
15944TIP3    H269324   5.803   2.091  16.412 -0.2460  0.4344  0.8167
15945TIP3   OH269325   6.485   0.892  12.484  0.4385  0.2827  0.0468
15945TIP3    H169326   6.554   0.838  12.444 -0.9436 -1.7059  0.2160
15945TIP3    H269327   6.444   0.937  12.410  2.2254  1.9380  0.0000
15946TIP3   OH269328   3.936   0.906   2.057  0.2620  0.0032  0.0002
15946TIP3    H169329   4.016   0.882   2.012  1.0282  1.6528  0.4036
15946TIP3    H269330   3.866   0.870   2.003  1.1737  1.0345 -1.9649
15947TIP3   OH269331   5.277   2.257   0.369  0.5380  0.0723 -0.0603
15947TIP3    H169332   5.237   2.328   0.320 -0.2228 -1.0678 -1.1266
15947TIP3    H269333   5.217   2.183   0.359  1.4883 -0.8427  0.7225
15948TIP3   OH269334   5.908   6.073   2.866  0.2364  0.1543 -0.4326
15948TIP3    H169335   5.864   5.990   2.884 -0.5892  0.4884 -0.8704
15948TIP3    H269336   5.840   6.139   2.875  0.7128  0.7162 -0.8609
15949TIP3   OH269337   3.046   0.372  14.307 -0.0538  0.0836 -0.0456
15949TIP3    H169338   3.014   0.385  14.396 -0.2562  1.8996 -0.3548
15949TIP3    H269339   2.967   0.361  14.254  0.0965 -2.5134  0.1643
15950TIP3   OH269340   6.509   0.555   0.993 -0.1791 -0.0635  0.2345
15950TIP3    H169341   6.446   0.617   0.956  1.0760  0.6780 -0.7843
15950TIP3    H269342   6.517   0.580   1.085 -4.1407 -2.5898  1.5300
15951TIP3   OH269343   5.817   4.033  16.812  0.1283  0.0808  0.0886
15951TIP3    H169344   5.880   4.100  16.840  0.4936 -0.1472 -0.1854
15951TIP3    H269345   5.734   4.062  16.849  0.3583  0.4822  0.2985
15952TIP3   OH269346   1.158   2.448  15.758 -0.0748 -0.1659 -0.1648
15952TIP3    H169347   1.194   2.536  15.751  0.7968 -0.5664 -0.8091
15952TIP3    H269348   1.136   2.424  15.668  0.8328 -1.0677 -0.1631
15953TIP3   OH269349   2.168   3.740  12.300 -0.5444  0.2388  0.6009
15953TIP3    H169350   2.180   3.708  12.211 -1.6006  0.4944  0.3480
15953TIP3    H269351   2.214   3.677  12.356  3.0323  1.8342 -0.2998
15954TIP3   OH269352   4.656   4.800  12.727 -0.0594 -0.5595 -0.0914
15954TIP3    H169353   4.668   4.774  12.636 -0.2098  0.4913 -0.4208
15954TIP3    H269354   4.597   4.733  12.764  1.6486 -2.1861 -0.1616
15955TIP3   OH269355   4.550   4.618  17.101  0.4303  0.4087 -0.6379
15955TIP3    H169356   4.642   4.593  17.106  0.1543 -0.8649 -1.3516
15955TIP3    H269357   4.511   4.581  17.180  0.4137  0.3518 -0.6726
15956TIP3   OH269358   2.381   3.487  10.215 -0.3409 -0.1597 -0.7275
15956TIP3    H169359   2.363   3.577  10.240 -0.9198 -0.4811  0.0807
15956TIP3    H269360   2.300   3.457  10.173 -0.1890 -0.3408 -0.8970
15957TIP3   OH269361   0.889   2.009   4.431 -0.1365  0.2642 -0.4499
15957TIP3    H169362   0.930   2.095   4.429  1.5950 -0.4102  1.5696
15957TIP3    H269363   0.959   1.950   4.459 -2.1692 -1.1128  2.2770
15958TIP3   OH269364   3.549   5.069   2.965 -0.9629 -0.1707  0.0884
15958TIP3    H169365   3.497   5.122   3.025 -1.7096  0.5094 -1.1282
15958TIP3    H269366   3.488   5.003   2.932 -0.4687 -0.7529  0.3198
15959TIP3   OH269367   1.522   1.233   3.621 -0.3975 -0.3583  0.4875
15959TIP3    H169368   1.590   1.165   3.624 -1.4697 -1.6668 -1.9188
15959TIP3    H269369   1.533   1.281   3.703  2.8374 -1.0478  0.6055
15960TIP3   OH269370   4.502   0.844  15.946  0.3222 -0.7604  0.2971
15960TIP3    H169371   4.561   0.809  16.013  0.8187 -1.5064 -0.5179
15960TIP3    H269372   4.560   0.880  15.879 -0.1615 -0.6074 -0.0428
15961TIP3   OH269373   6.209   5.651  13.367 -0.1376 -0.0178  0.2031
15961TIP3    H169374   6.244   5.612  13.287  0.6587  0.0647  0.5050
15961TIP3    H269375   6.286   5.673  13.418 -0.6021  1.1005  0.4465
15962TIP3   OH269376   0.006   3.695   5.408  0.7786  0.5928  0.1723
15962TIP3    H169377  -0.023   3.652   5.488  1.5849  0.6774  0.5225
15962TIP3    H269378  -0.035   3.782   5.412 -2.0450 -0.5457 -1.2464
15963TIP3   OH269379   0.652   3.677  13.683 -0.6545 -0.6899 -0.1196
15963TIP3    H169380   0.574   3.666  13.737 -1.3428 -3.0245 -1.4272
15963TIP3    H269381   0.619   3.705  13.598  0.1792  0.4876 -0.0816
15964TIP3   OH269382   3.440   5.547   0.381  0.1952 -0.1683 -0.0663
15964TIP3    H169383   3.391   5.468   0.356  0.2662 -0.4755  0.7493
15964TIP3    H269384   3.377   5.602   0.427  0.7685 -0.9110  1.6956
15965TIP3   OH269385   2.062   3.622   5.039 -0.1449  0.5737 -0.0491
15965TIP3    H169386   1.982   3.649   5.084  1.0188  1.8850  1.3496
15965TIP3    H269387   2.057   3.527   5.036 -1.9152  0.6505 -0.3135
15966TIP3   OH269388   4.158   1.288   3.986 -0.0987  0.2642  0.4892
15966TIP3    H169389   4.083   1.314   3.933  1.0565  1.7446 -0.4790
15966TIP3    H269390   4.172   1.196   3.964 -0.6698  0.4011 -0.5121
15967TIP3   OH269391   0.987   1.056   5.038 -0.0004  0.2515 -0.0185
15967TIP3    H169392   0.901   1.090   5.063  0.6659  2.9913 -1.1203
15967TIP3    H269393   0.988   1.060   4.943  1.9419  2.0775  0.0041
15968TIP3   OH269394   5.315   6.374  11.648 -0.0541  0.5635 -0.3858
15968TIP3    H169395   5.359   6.453  11.679  0.0916  0.3068  0.0768
15968TIP3    H269396   5.246   6.359  11.712  0.6722 -0.3515  0.2163
15969TIP3   OH269397   0.199   5.931  12.314 -0.0129 -0.2479  0.1209
15969TIP3    H169398   0.210   5.875  12.237  0.5306 -0.1206  0.0980
15969TIP3    H269399   0.198   6.020  12.279 -1.8642 -0.2630  0.0559
15970TIP3   OH269400   0.465   4.368   4.563  0.1583 -0.4312  0.6928
15970TIP3    H169401   0.455   4.378   4.469 -2.2705  2.5626  1.0787
15970TIP3    H269402   0.559   4.356   4.577  1.0545  2.2305 -1.9680
15971TIP3   OH269403   0.594   6.053   0.887  0.1074  0.9386 -0.1788
15971TIP3    H169404   0.518   6.015   0.842 -0.3134  0.4132  0.9349
15971TIP3    H269405   0.649   6.088   0.817 -0.9626  0.9522 -1.0329
15972TIP3   OH269406   3.964   4.709  17.173 -0.1634 -0.7910  0.1699
15972TIP3    H169407   4.059   4.721  17.183 -0.2584 -0.5042  0.7565
15972TIP3    H269408   3.941   4.647  17.242 -0.0141 -2.8141 -1.5073
15973TIP3   OH269409   1.220   2.103   0.861 -0.7712 -0.4311  0.3407
15973TIP3    H169410   1.176   2.152   0.791  2.4187 -0.1487 -1.6750
15973TIP3    H269411   1.293   2.160   0.887 -0.1939 -1.8085  1.8915
15974TIP3   OH269412   4.929   0.986   4.867 -0.0049 -0.0786  0.3992
15974TIP3    H169413   4.958   0.964   4.779 -0.7645 -0.6550  0.2770
15974TIP3    H269414   4.875   0.912   4.893  0.7550 -0.2308  1.6201
15975TIP3   OH269415   4.195   3.356  15.714  0.3127 -0.0679  0.2692
15975TIP3    H169416   4.238   3.438  15.737  1.6174 -0.1403 -1.5808
15975TIP3    H269417   4.259   3.288  15.738  0.4664 -0.3182 -0.7896
15976TIP3   OH269418   5.240   1.089   3.362  0.4918  0.4442  0.2613
15976TIP3    H169419   5.291   1.170   3.353 -0.4782  1.0070 -0.3859
15976TIP3    H269420   5.251   1.064   3.453  1.9354  0.5260  0.1381
15977TIP3   OH269421   3.796   2.179  10.565  0.0672  0.4660 -0.2341
15977TIP3    H169422   3.838   2.167  10.650 -2.8310 -1.7343  1.0758
15977TIP3    H269423   3.827   2.104  10.513  0.7311  1.0107 -0.6305
15978TIP3   OH269424   5.839   2.217   3.423  0.0666  0.3197 -0.3991
15978TIP3    H169425   5.863   2.247   3.335 -0.1527 -1.1737 -1.0128
15978TIP3    H269426   5.856   2.122   3.420 -0.3019  0.1950  1.0553
15979TIP3   OH269427   3.234   4.290   6.189 -0.3530  0.1730 -1.1553
15979TIP3    H169428   3.265   4.207   6.153 -1.1810 -0.4377 -0.5134
15979TIP3    H269429   3.175   4.325   6.122 -2.5020 -1.3360 -0.1656
15980TIP3   OH269430   6.616   3.283  11.173 -0.0110 -0.1222  0.1546
15980TIP3    H169431   6.688   3.220  11.180 -0.1708 -0.2688  0.4880
15980TIP3    H269432   6.656   3.367  11.196  1.7560  1.1257 -5.6844
15981TIP3   OH269433   2.336   6.722   1.732  0.2011  0.7996  0.1904
15981TIP3    H169434   2.352   6.635   1.769 -0.6495 -0.4163 -2.1041
15981TIP3    H269435   2.320   6.778   1.808 -0.6857 -1.3655  1.6931
15982TIP3   OH269436   1.592   5.845  17.116 -0.0279  0.2729 -0.1284
15982TIP3    H169437   1.646   5.907  17.167  0.2650  0.8077 -1.0623
15982TIP3    H269438   1.650   5.816  17.046 -1.6718  2.9351 -2.8199
15983TIP3   OH269439   3.902   2.870  14.188 -0.1071 -0.3290 -0.1198
15983TIP3    H169440   3.846   2.840  14.259  1.5726 -3.3097  0.1459
15983TIP3    H269441   3.855   2.847  14.108 -0.4472 -0.2876  0.0706
15984TIP3   OH269442   5.461   0.399   0.241  0.3788 -0.3213  0.3081
15984TIP3    H169443   5.426   0.352   0.316 -0.0920  0.8118  0.8203
15984TIP3    H269444   5.387   0.449   0.207  0.3519 -1.4900 -1.4842
15985TIP3   OH269445   4.710   3.842  12.628  0.0348  0.1534 -0.0499
15985TIP3    H169446   4.761   3.885  12.697 -0.9085  0.7663  0.2865
15985TIP3    H269447   4.735   3.750  12.634 -0.9752 -0.0390  1.9926
15986TIP3   OH269448   2.909   6.767  11.161  0.4542  0.3454  0.2403
15986TIP3    H169449   2.962   6.732  11.089  0.6623  1.6965 -0.2941
15986TIP3    H269450   2.865   6.843  11.123 -2.8489 -1.3448  0.2873
15987TIP3   OH269451   5.901   0.141  11.253 -0.4549 -0.3565 -0.0454
15987TIP3    H169452   5.963   0.068  11.244  0.2641 -0.0365  1.8311
15987TIP3    H269453   5.820   0.109  11.213 -0.1480 -2.1819  0.7006
15988TIP3   OH269454   0.156   0.339   1.063  0.1239 -0.3944  0.3161
15988TIP3    H169455   0.155   0.410   1.126  0.1906 -0.0245 -0.0927
15988TIP3    H269456   0.246   0.338   1.029  0.7886 -2.1373  1.9427
15989TIP3   OH269457   2.184   1.515   3.889  0.2668  0.1631 -0.5281
15989TIP3    H169458   2.250   1.572   3.851  0.7303  1.7198  2.2917
15989TIP3    H269459   2.232   1.465   3.955 -0.7786 -1.1467 -0.7184
15990TIP3   OH269460   0.005   4.025  10.095  0.5249  0.5169  0.1036
15990TIP3    H169461   0.100   4.022  10.095  0.7275 -5.4228 -0.7875
15990TIP3    H269462  -0.020   4.022  10.003 -0.3409 -0.8591  0.3467
15991TIP3   OH269463   1.861   1.016  11.110  0.1395 -0.1016  0.5124
15991TIP3    H169464   1.943   1.048  11.072 -0.8979  1.2922 -0.6239
15991TIP3    H269465   1.878   1.015  11.205  1.8203 -0.9240  0.2427
15992TIP3   OH269466   4.600   6.047   0.151 -0.4569  0.1502  0.2335
15992TIP3    H169467   4.595   6.140   0.131  1.2901  0.0695 -0.7498
15992TIP3    H269468   4.675   6.039   0.210 -0.6592 -0.6172  0.4009
15993TIP3   OH269469   3.768   5.101  14.897  0.2560 -0.4259 -0.0590
15993TIP3    H169470   3.738   5.028  14.842 -0.9250  0.7781 -1.0850
15993TIP3    H269471   3.705   5.171  14.879 -0.0378  0.1060  2.6900
15994TIP3   OH269472   1.116   0.230   3.976 -0.1557 -0.5337 -0.7160
15994TIP3    H169473   1.115   0.317   4.014  0.6144 -1.3387  1.3032
15994TIP3    H269474   1.025   0.200   3.980  0.1077 -1.1748  2.0714
15995TIP3   OH269475   4.125   2.286  10.994 -0.6417 -0.1160 -0.1076
15995TIP3    H169476   4.159   2.351  11.055  1.3103 -2.9809  2.1318
15995TIP3    H269477   4.135   2.326  10.908 -0.3022  2.7768  1.1656
15996TIP3   OH269478   0.666   0.144   0.516 -0.4698  0.4988 -0.6007
15996TIP3    H169479   0.693   0.052   0.521 -0.7936  0.4777  1.8595
15996TIP3    H269480   0.729   0.190   0.572 -1.8294  1.3613  0.2667
15997TIP3   OH269481   1.953   2.449   3.703 -0.3042 -0.6609 -0.4925
15997TIP3    H169482   1.934   2.406   3.620 -1.1832  0.4109 -0.8695
15997TIP3    H269483   2.005   2.385   3.752 -1.7372 -2.2195 -0.9244
15998TIP3   OH269484   0.934   1.989   3.893  0.2380 -0.0668 -0.0912
15998TIP3    H169485   0.937   1.896   3.870  1.8418 -0.6042  1.8767
15998TIP3    H269486   1.013   2.026   3.853  0.8328 -0.1111  0.9825
15999TIP3   OH269487   6.305   1.672   2.958 -0.1830  0.2883  0.1282
15999TIP3    H169488   6.353   1.754   2.970  0.3269 -0.3075  2.9426
15999TIP3    H269489   6.372   1.604   2.966 -0.7277 -0.4531 -1.3316
16000TIP3   OH269490   3.921   6.433  12.445 -0.5698  0.0927  0.2465
16000TIP3    H169491   3.988   6.428  12.513  0.8403  2.9063 -0.7732
16000TIP3    H269492   3.957   6.383  12.372 -0.2405  0.3818  0.2078
16001TIP3   OH269493   1.275   6.199  10.601  0.1585  0.4581 -0.5336
16001TIP3    H169494   1.276   6.131  10.534  2.4098  0.9667 -1.1155
16001TIP3    H269495   1.367   6.216  10.619 -0.3770  1.7009  1.3153
16002TIP3   OH269496   2.189   1.870   5.364  0.0061  0.2262 -0.4109
16002TIP3    H169497   2.180   1.890   5.457 -0.7345  1.5342 -0.7286
16002TIP3    H269498   2.207   1.776   5.361 -0.7613  0.0039  1.0062
16003TIP3   OH269499   5.949   4.928   1.418  0.0389 -0.0530  0.2553
16003TIP3    H169500   5.984   4.884   1.340 -0.2934 -0.8944  0.5675
16003TIP3    H269501   5.864   4.886   1.433 -0.3907  0.8601  0.4408
16004TIP3   OH269502   4.367   0.835   0.417  0.2854 -0.4336 -0.7142
16004TIP3    H169503   4.280   0.795   0.427  1.1723 -2.4393 -0.5105
16004TIP3    H269504   4.401   0.840   0.507  0.9622 -1.0660 -0.9281
16005TIP3   OH269505   3.250   1.602  13.395 -0.1603  0.2739 -0.2433
16005TIP3    H169506   3.163   1.563  13.407 -0.2538  0.6201  0.2327
16005TIP3    H269507   3.260   1.609  13.300 -0.2862 -0.5809 -0.3346
16006TIP3   OH269508   5.456   2.615   5.569 -0.3711  0.2369  0.0743
16006TIP3    H169509   5.514   2.630   5.495 -0.9841  0.0347 -0.4534
16006TIP3    H269510   5.509   2.636   5.646  0.5784 -0.4966 -0.3632
16007TIP3   OH269511   5.070   2.166  14.458  0.2091 -0.0520  0.2998
16007TIP3    H169512   5.160   2.142  14.439 -0.2936 -1.2320 -0.8005
16007TIP3    H269513   5.041   2.101  14.522  0.5179  1.1292  1.6671
16008TIP3   OH269514   2.635   1.515   5.599 -0.2538  0.0653 -0.1525
16008TIP3    H169515   2.636   1.481   5.509  0.2607 -0.7126  0.1401
16008TIP3    H269516   2.614   1.608   5.588 -0.0647  0.0149 -1.0894
16009TIP3   OH269517   5.296   0.270  13.208 -0.1871  0.9244  0.0846
16009TIP3    H169518   5.360   0.247  13.141 -1.6934 -0.6838 -0.8857
16009TIP3    H269519   5.260   0.355  13.179 -0.0878  0.7394 -0.5861
16010TIP3   OH269520   1.853   0.711   2.779 -0.5054 -0.2090  0.0879
16010TIP3    H169521   1.889   0.799   2.790  0.9519 -0.7061 -0.5399
16010TIP3    H269522   1.848   0.699   2.684  1.4310 -1.6206  0.1257
16011TIP3   OH269523   5.137   3.779   0.328  0.1389 -0.7262 -0.4045
16011TIP3    H169524   5.177   3.856   0.367  0.4217 -1.2337  0.3420
16011TIP3    H269525   5.205   3.742   0.272  0.4286 -1.0855  0.1661
16012TIP3   OH269526   4.648   2.835  14.732 -0.3046 -0.3865 -1.0080
16012TIP3    H169527   4.633   2.789  14.650  2.3802 -0.5262 -1.5141
16012TIP3    H269528   4.700   2.911  14.708 -1.0030  0.5677  0.3673
16013TIP3   OH269529   3.035   5.839  17.125 -0.5297 -0.1046  0.1790
16013TIP3    H169530   3.094   5.799  17.062  0.2519 -0.7807  1.3095
16013TIP3    H269531   3.076   5.922  17.147 -1.7157  0.9864 -1.5183
16014TIP3   OH269532   5.837   6.443  15.636 -0.1039 -0.7533  0.3115
16014TIP3    H169533   5.892   6.478  15.705  0.4724  0.8399 -0.8931
16014TIP3    H269534   5.894   6.380  15.590 -0.3483 -1.4843  0.9847
16015TIP3   OH269535   5.682   5.426   3.028  0.0240 -0.5741 -0.1565
16015TIP3    H169536   5.726   5.341   3.023  0.6798 -0.2260 -0.6758
16015TIP3    H269537   5.678   5.446   3.121 -0.0026 -1.1073 -0.0390
16016TIP3   OH269538   0.758   6.796   0.784 -0.3993  0.1002  0.1779
16016TIP3    H169539   0.807   6.877   0.766  0.2922 -0.3286  0.1095
16016TIP3    H269540   0.774   6.741   0.707 -2.9713  0.8485 -1.0381
16017TIP3   OH269541   2.599   3.193   5.585  0.1145  0.3275  0.4079
16017TIP3    H169542   2.624   3.107   5.552 -0.6675  1.0092 -2.2246
16017TIP3    H269543   2.669   3.252   5.554  0.8120  0.6488  2.4481
16018TIP3   OH269544   0.186   5.815   3.205 -0.2223  0.5353 -0.3714
16018TIP3    H169545   0.273   5.792   3.236 -0.5576  1.2313  1.1620
16018TIP3    H269546   0.174   5.906   3.232 -0.3718  1.3687 -3.0066
16019TIP3   OH269547   0.987   4.297  15.147 -0.1507 -0.2612 -1.0362
16019TIP3    H169548   1.069   4.296  15.195 -0.1606  0.0209 -1.0132
16019TIP3    H269549   0.958   4.388  15.150  1.0543  0.2959 -3.5948
16020TIP3   OH269550   4.748   6.383   4.809 -0.5100 -0.2946 -0.0104
16020TIP3    H169551   4.788   6.462   4.775  0.9842 -0.4463  1.2716
16020TIP3    H269552   4.748   6.322   4.736  0.6911  0.0601 -0.3186
16021TIP3   OH269553   0.220   4.266   1.304 -0.1140 -0.1934  0.0694
16021TIP3    H169554   0.169   4.261   1.385 -1.9077  0.8576 -0.9341
16021TIP3    H269555   0.234   4.174   1.279 -1.8621 -0.5434  0.2104
16022TIP3   OH269556   6.619   2.379  15.527 -0.0781 -0.4164 -0.6276
16022TIP3    H169557   6.687   2.359  15.462  1.8574  2.2461  0.3888
16022TIP3    H269558   6.557   2.434  15.481 -0.8860 -1.7432 -1.1917
16023TIP3   OH269559   6.724   6.110  15.400  0.0148  0.3067  0.4634
16023TIP3    H169560   6.785   6.074  15.336 -0.5094  1.3208 -0.6399
16023TIP3    H269561   6.638   6.091  15.364 -0.2946  0.6148  1.0309
16024TIP3   OH269562   4.119   3.287  12.290 -0.1193  0.0903  0.3932
16024TIP3    H169563   4.075   3.304  12.206 -2.9784  0.6063  1.8658
16024TIP3    H269564   4.131   3.374  12.328  0.3848 -0.1921  0.8880
16025TIP3   OH269565   3.400   4.378  12.954  0.4817 -0.0528  0.1904
16025TIP3    H169566   3.355   4.417  13.030 -0.2969  0.2441 -0.4031
16025TIP3    H269567   3.493   4.392  12.971  0.2974  0.3182  0.9322
16026TIP3   OH269568   4.475   5.113   0.034  0.0200 -0.4049  0.0665
16026TIP3    H169569   4.517   5.153  -0.042  0.0197  1.0167  0.7690
16026TIP3    H269570   4.422   5.184   0.071 -1.0913 -1.4782  0.5794
16027TIP3   OH269571   6.792   1.272  17.190  0.0521  0.5234 -0.6269
16027TIP3    H169572   6.888   1.272  17.191  0.0638 -0.5313  1.2411
16027TIP3    H269573   6.767   1.282  17.282 -1.6603  1.4863 -1.1534
16028TIP3   OH269574   5.744   5.903  13.367  0.7161  0.3937  1.0072
16028TIP3    H169575   5.837   5.880  13.371  0.6375 -0.1796 -0.0979
16028TIP3    H269576   5.702   5.824  13.333 -0.2182  0.5584  1.7540
16029TIP3   OH269577   5.814   0.592  12.732 -0.3009  0.2137  0.2244
16029TIP3    H169578   5.834   0.560  12.820 -0.9236  1.2840  0.7758
16029TIP3    H269579   5.865   0.535  12.673 -0.8358 -1.3279  1.1823
16030TIP3   OH269580   6.096   1.648   2.029  1.1640  0.3262 -0.0955
16030TIP3    H169581   6.141   1.732   2.020  0.8660  0.5285  0.2905
16030TIP3    H269582   6.149   1.587   1.977  2.8363  0.2005  1.6250
16031TIP3   OH269583   3.934   3.965  13.387 -0.6823 -0.3386  0.5892
16031TIP3    H169584   3.981   4.012  13.456  2.1245  0.0455 -1.4359
16031TIP3    H269585   3.889   4.034  13.338 -0.0632 -0.2293  0.1653
16032TIP3   OH269586   0.581   3.059   3.070  0.6784 -0.3715 -0.1155
16032TIP3    H169587   0.540   3.015   3.144  1.8490 -1.3139  0.0108
16032TIP3    H269588   0.673   3.033   3.075  1.8401  3.3370  0.8959
16033TIP3   OH269589   4.203   2.146  13.536 -0.0684  0.2277  0.1079
16033TIP3    H169590   4.267   2.091  13.583 -0.6395 -0.6792 -0.1448
16033TIP3    H269591   4.211   2.118  13.445 -0.7613  0.1660  0.0626
16034TIP3   OH269592   4.602   0.276  17.059 -0.0462  0.1819 -0.7398
16034TIP3    H169593   4.602   0.244  16.968  3.3230  1.3367 -1.2644
16034TIP3    H269594   4.688   0.315  17.071  0.3088 -1.4133  3.5286
16035TIP3   OH269595   5.233   5.283   4.325 -0.1476  0.0147 -0.0503
16035TIP3    H169596   5.266   5.370   4.349  2.3557 -0.7167 -0.6025
16035TIP3    H269597   5.175   5.259   4.397  1.7966  0.7584  1.8603
16036TIP3   OH269598   2.249   5.774   3.870 -0.5431 -0.7459 -0.5247
16036TIP3    H169599   2.246   5.679   3.881 -1.1882 -0.7177 -0.4118
16036TIP3    H269600   2.281   5.807   3.953 -1.4519 -0.7951 -0.1430
16037TIP3   OH269601   4.040   4.608   5.505 -0.4881  0.2697 -0.2299
16037TIP3    H169602   4.010   4.596   5.595  0.2963 -2.8170 -0.2531
16037TIP3    H269603   4.122   4.558   5.501  0.2119  1.4685 -2.3326
16038TIP3   OH269604   1.058   4.127   2.110 -0.0498 -0.0322  0.1754
16038TIP3    H169605   0.970   4.120   2.147 -0.2765 -1.0036 -0.5180
16038TIP3    H269606   1.115   4.135   2.187 -0.6573 -0.3687  0.6729
16039TIP3   OH269607   1.393   0.825   2.366 -0.0952 -0.6882 -0.8655
16039TIP3    H169608   1.437   0.764   2.307  0.1922 -0.9312 -0.3976
16039TIP3    H269609   1.332   0.872   2.309  0.4332 -0.6661 -1.4336
16040TIP3   OH269610   5.850   5.612   2.355  0.5831 -0.0891  0.0332
16040TIP3    H169611   5.934   5.609   2.309  1.0988  1.1524  0.8267
16040TIP3    H269612   5.872   5.590   2.446 -0.1821 -1.0562  0.0018
16041TIP3   OH269613   2.740   1.156   0.530 -0.1463 -0.5300  0.4470
16041TIP3    H169614   2.809   1.186   0.589  0.0648  3.0823 -1.3896
16041TIP3    H269615   2.783   1.089   0.477  0.2921 -2.2134  2.7429
16042TIP3   OH269616   1.414   5.808  13.979 -0.7499  0.1053 -0.2165
16042TIP3    H169617   1.428   5.740  13.914  0.4469 -1.1751  1.2761
16042TIP3    H269618   1.406   5.889  13.929 -0.9796 -0.9606 -1.9767
16043TIP3   OH269619   3.124   3.299   1.695  0.5428  0.4254  0.0924
16043TIP3    H169620   3.110   3.389   1.723 -2.1476  0.4488 -1.0235
16043TIP3    H269621   3.121   3.302   1.600  0.3703 -0.8299  0.0349
16044TIP3   OH269622   4.519   3.322   5.062 -0.3471  0.2642 -0.1706
16044TIP3    H169623   4.516   3.317   5.157  2.0869  1.8666  0.0914
16044TIP3    H269624   4.589   3.261   5.037 -1.0344 -0.2194 -0.9602
16045TIP3   OH269625   0.042   5.287  16.103 -0.1228 -0.0966  0.3274
16045TIP3    H169626  -0.021   5.358  16.097  0.4392  0.3118 -1.0135
16045TIP3    H269627   0.121   5.329  16.137  0.1874 -0.0904 -0.3964
16046TIP3   OH269628   6.497   2.608   3.557 -0.0978  0.2049  0.1296
16046TIP3    H169629   6.445   2.559   3.494  0.2799  0.1574 -0.1453
16046TIP3    H269630   6.433   2.654   3.611 -0.4080  0.4465 -0.4491
16047TIP3   OH269631   0.019   3.869   4.028  0.3458 -0.4324 -0.2555
16047TIP3    H169632   0.009   3.893   3.936 -1.0645  0.1663  0.0320
16047TIP3    H269633  -0.031   3.787   4.037 -0.1772 -0.0750  0.1395
16048TIP3   OH269634   0.781   4.116   3.041  0.0761  0.0620  0.2620
16048TIP3    H169635   0.842   4.058   3.086  0.0739  0.9497  1.4595
16048TIP3    H269636   0.833   4.194   3.019 -0.2248  0.1434 -0.1770
16049TIP3   OH269637   2.866   2.707  17.187 -0.0992  0.3312 -0.1890
16049TIP3    H169638   2.839   2.678  17.274 -1.4922 -0.3125 -0.8081
16049TIP3    H269639   2.802   2.775  17.164 -0.4270 -0.2988 -1.1620
16050TIP3   OH269640   2.984   3.703   5.379 -0.2944 -0.0715  0.2884
16050TIP3    H169641   3.040   3.660   5.444 -2.7466 -4.0770  0.1016
16050TIP3    H269642   2.896   3.692   5.413 -1.3885  1.0405 -1.9997
16051TIP3   OH269643   0.655   2.897   4.056  0.1301 -0.8459 -0.2266
16051TIP3    H169644   0.691   2.884   4.143 -3.0111 -1.1110  1.1553
16051TIP3    H269645   0.672   2.814   4.010  0.1712 -1.4128  0.7820
16052TIP3   OH269646   3.815   4.249  13.229 -0.5814  0.5013  0.7379
16052TIP3    H169647   3.813   4.338  13.262  0.9527  0.3962  1.2215
16052TIP3    H269648   3.890   4.247  13.169  0.8187 -0.9289  2.3752
16053TIP3   OH269649   1.492   2.499  17.064  0.4465 -0.7567 -0.0461
16053TIP3    H169650   1.564   2.562  17.072  0.0047 -0.2717  0.1393
16053TIP3    H269651   1.507   2.436  17.135  0.7650 -0.7400 -0.0964
16054TIP3   OH269652   2.679   6.535  16.003 -0.2042  0.3559 -0.4036
16054TIP3    H169653   2.646   6.467  16.062  1.7822  0.6256  1.1367
16054TIP3    H269654   2.640   6.514  15.918 -1.6082 -1.2186  0.5579
16055TIP3   OH269655   5.643   2.910  14.930  0.1915  0.6232 -0.3804
16055TIP3    H169656   5.562   2.859  14.936  0.4634 -0.0559 -1.9620
16055TIP3    H269657   5.668   2.927  15.021 -1.7571  0.9094  0.1452
16056TIP3   OH269658   4.481   0.768  14.162 -0.0042  0.0282  0.0370
16056TIP3    H169659   4.430   0.695  14.198  1.1026 -0.7816  0.0388
16056TIP3    H269660   4.545   0.726  14.105  3.0487  0.5823  2.7619
16057TIP3   OH269661   3.717   2.493  16.114 -0.0208 -0.4710 -0.1733
16057TIP3    H169662   3.700   2.469  16.023 -1.3863  1.8754 -0.6229
16057TIP3    H269663   3.635   2.477  16.159 -1.0239  3.0022 -0.5122
16058TIP3   OH269664   2.064   1.343   5.182 -0.4792 -0.1579  0.0222
16058TIP3    H169665   2.054   1.268   5.123 -0.9905 -0.7389  0.8261
16058TIP3    H269666   2.012   1.320   5.259 -2.9033  2.2034 -0.7759
16059TIP3   OH269667   1.375   6.482   3.983 -0.4007 -0.3809  0.1766
16059TIP3    H169668   1.423   6.528   3.914 -3.5373  3.7322  0.3927
16059TIP3    H269669   1.410   6.517   4.065 -1.3632  0.0271  0.4278
16060TIP3   OH269670   1.368   5.763  15.278  0.0260 -0.4447  0.2490
16060TIP3    H169671   1.447   5.781  15.329  1.1630 -1.5335 -1.0313
16060TIP3    H269672   1.401   5.742  15.190 -1.8153  0.9229 -0.8366
16061TIP3   OH269673   0.509   4.151   5.458  0.4991 -0.1588  0.3284
16061TIP3    H169674   0.420   4.157   5.423  0.4858  2.0967  0.6026
16061TIP3    H269675   0.500   4.178   5.549  1.2092 -1.7395  0.8950
16062TIP3   OH269676   2.432   5.366  15.590  0.2137 -0.1289 -0.1652
16062TIP3    H169677   2.483   5.439  15.556 -1.2335  0.1432 -1.9152
16062TIP3    H269678   2.441   5.373  15.685  0.9996  1.6678 -0.3209
16063TIP3   OH269679   4.605   4.752  12.457  0.7977 -0.3094 -0.3394
16063TIP3    H169680   4.519   4.761  12.415  1.7453  1.1894 -2.0811
16063TIP3    H269681   4.632   4.662  12.437 -1.3376 -1.6946  2.3430
16064TIP3   OH269682   4.145   2.336  12.769  0.1585 -0.3811 -0.1167
16064TIP3    H169683   4.225   2.382  12.796  0.5296 -0.6336 -0.7424
16064TIP3    H269684   4.177   2.254  12.730 -0.5072 -1.2964  1.2097
16065TIP3   OH269685   4.072   4.754  13.645  0.6294 -0.3531  0.3712
16065TIP3    H169686   4.058   4.841  13.609  1.9898  0.0834  0.8260
16065TIP3    H269687   4.022   4.753  13.727  0.0362 -0.2504  0.0066
16066TIP3   OH269688   2.512   2.023   0.249 -0.0524 -0.2374  0.4404
16066TIP3    H169689   2.515   1.964   0.325  3.9791  0.3562  0.9902
16066TIP3    H269690   2.591   2.002   0.200 -0.3237  2.3243 -1.2720
16067TIP3   OH269691   6.598   1.987   6.592 -0.3619  0.2927 -0.6983
16067TIP3    H169692   6.617   1.921   6.659 -0.8254 -1.8602 -2.5395
16067TIP3    H269693   6.523   2.035   6.626 -0.2890 -0.4224  0.5312
16068TIP3   OH269694   1.875   1.070  13.200 -0.1875  0.1641  0.3294
16068TIP3    H169695   1.945   1.010  13.174 -0.7302  0.1138 -1.1094
16068TIP3    H269696   1.805   1.013  13.230 -0.0519  0.1594  0.6379
16069TIP3   OH269697   4.582   0.533   4.074 -0.0017  0.1505  0.0094
16069TIP3    H169698   4.651   0.544   4.139 -0.8139  2.2906  0.6229
16069TIP3    H269699   4.562   0.622   4.046 -0.4059 -0.6499 -2.4346
16070TIP3   OH269700   4.540   2.095   3.137  0.1508  0.4907  0.2500
16070TIP3    H169701   4.504   2.133   3.217 -0.8484 -1.0139  0.5525
16070TIP3    H269702   4.482   2.023   3.116  0.0404  1.1973 -2.2020
16071TIP3   OH269703   2.332   2.282   5.554 -0.2434 -0.1811 -0.0955
16071TIP3    H169704   2.402   2.348   5.559 -0.5616  0.1300  0.3251
16071TIP3    H269705   2.295   2.280   5.642 -0.9749 -0.1142 -0.3944
16072TIP3   OH269706   2.126   4.349  11.897  0.0295 -0.3629 -0.2642
16072TIP3    H169707   2.122   4.271  11.841  1.6755 -0.9527  0.3776
16072TIP3    H269708   2.153   4.419  11.837  1.2280 -0.8770 -0.3695
16073TIP3   OH269709   1.673   1.027   3.302 -0.2850  0.1290  0.0050
16073TIP3    H169710   1.714   1.111   3.323 -0.9873 -0.2105  3.4352
16073TIP3    H269711   1.581   1.049   3.287 -0.7659 -0.0218  2.2562
16074TIP3   OH269712   1.915   3.884   1.960 -0.0694 -0.0929 -0.1923
16074TIP3    H169713   1.851   3.815   1.977 -0.1386 -0.0979 -0.4679
16074TIP3    H269714   1.873   3.941   1.897 -0.9399  1.5055  1.7229
16075TIP3   OH269715   4.739   5.766  12.737 -0.1003  0.0732 -0.1348
16075TIP3    H169716   4.755   5.764  12.642  0.4093 -1.0091 -0.0482
16075TIP3    H269717   4.645   5.782  12.745 -0.2218 -0.2136 -0.8454
16076TIP3   OH269718   5.263   4.167  13.922 -0.0922  0.1810 -0.6402
16076TIP3    H169719   5.325   4.128  13.983  1.8137  0.2647 -2.4015
16076TIP3    H269720   5.195   4.101  13.910  0.8546 -0.8624 -0.3638
16077TIP3   OH269721   5.852   1.489   5.652 -0.7554  0.3089 -0.5676
16077TIP3    H169722   5.772   1.437   5.654 -0.1572 -0.6043  0.7639
16077TIP3    H269723   5.878   1.489   5.560 -1.5858 -0.4484 -0.8169
16078TIP3   OH269724   3.388   0.602  11.132 -0.1051 -0.0338  0.1703
16078TIP3    H169725   3.465   0.556  11.100 -0.0655  0.6745 -0.7961
16078TIP3    H269726   3.419   0.650  11.209  0.0571 -0.9103  0.6622
16079TIP3   OH269727   5.383   4.448  14.270  0.3072 -0.3536 -0.3406
16079TIP3    H169728   5.479   4.454  14.272  0.3302 -0.7253  1.4944
16079TIP3    H269729   5.354   4.532  14.307 -0.0765 -0.2057 -0.9796
16080TIP3   OH269730   2.499   1.017  14.641  0.4682  0.1344 -0.1920
16080TIP3    H169731   2.492   0.981  14.552  0.5785  1.2012 -0.6546
16080TIP3    H269732   2.584   1.060  14.643  0.0351  1.0057  0.0834
16081TIP3   OH269733   6.518   4.626   4.455 -0.0213 -0.1184  0.6554
16081TIP3    H169734   6.521   4.580   4.539 -0.0702 -0.5116  0.4436
16081TIP3    H269735   6.475   4.565   4.396 -0.7672  0.4922  0.5503
16082TIP3   OH269736   2.800   2.542  16.921  0.4413 -0.2849 -0.1780
16082TIP3    H169737   2.727   2.536  16.860  0.0891 -2.1324  0.3625
16082TIP3    H269738   2.794   2.631  16.957 -2.0769 -0.6349  0.4700
16083TIP3   OH269739   0.478   6.582   5.623  0.6593 -0.3515 -0.5639
16083TIP3    H169740   0.469   6.495   5.586  2.4092 -0.6294 -0.4414
16083TIP3    H269741   0.509   6.567   5.712 -1.3507  0.3624  0.3251
16084TIP3   OH269742   1.119   3.656  14.689  0.8061 -0.6227  0.2266
16084TIP3    H169743   1.185   3.725  14.695  0.3273 -0.2290  1.0429
16084TIP3    H269744   1.047   3.697  14.641  0.3298 -0.3913  1.1208
16085TIP3   OH269745   5.407   5.193  11.044 -0.3737 -0.2253  0.3431
16085TIP3    H169746   5.386   5.285  11.027 -1.0387 -0.0640  1.8379
16085TIP3    H269747   5.492   5.179  11.002 -1.2651  0.4306 -1.8315
16086TIP3   OH269748   5.838   4.132  17.218  0.4345 -0.6856  0.4214
16086TIP3    H169749   5.915   4.143  17.272  1.0028  1.3217 -0.7102
16086TIP3    H269750   5.772   4.190  17.256  0.5213 -0.0019 -0.4404
16087TIP3   OH269751   2.113   4.680  12.660  0.4962  0.0209 -0.6904
16087TIP3    H169752   2.067   4.671  12.743  1.6288 -0.6463 -0.1143
16087TIP3    H269753   2.074   4.614  12.603  1.3660 -1.2352  0.1086
16088TIP3   OH269754   3.139   3.725  13.448 -0.1321  0.1315  0.2068
16088TIP3    H169755   3.097   3.744  13.364 -0.5312  1.3248  0.6545
16088TIP3    H269756   3.082   3.662  13.491 -0.6928  0.6141  0.1781
16089TIP3   OH269757   5.365   1.058   2.894 -0.2410 -0.0945  0.0542
16089TIP3    H169758   5.299   1.090   2.956  3.9413  0.7323  4.6863
16089TIP3    H269759   5.434   1.123   2.896  1.3496 -1.3766 -3.7395
16090TIP3   OH269760   1.010   0.611  14.975 -0.3182 -0.1460  0.8272
16090TIP3    H169761   0.920   0.582  14.965  0.0658 -0.9032 -0.7000
16090TIP3    H269762   1.055   0.538  15.017 -0.1522 -0.2791  0.4238
16091TIP3   OH269763   2.334   0.543   0.307 -0.0878  0.0876 -0.3593
16091TIP3    H169764   2.336   0.619   0.364 -1.0759  0.7252 -1.1432
16091TIP3    H269765   2.241   0.528   0.289  0.0920 -1.1830 -0.3834
16092TIP3   OH269766   4.112   4.981   6.067 -0.2216 -0.2545  0.2258
16092TIP3    H169767   4.051   4.997   6.139 -0.6772  0.3832 -0.2945
16092TIP3    H269768   4.083   4.899   6.028  1.3303 -1.8086  2.0827
16093TIP3   OH269769   0.575   5.900   1.616 -0.0782 -0.1105  0.1698
16093TIP3    H169770   0.629   5.892   1.695 -0.9862 -0.2738  0.7816
16093TIP3    H269771   0.563   5.810   1.586 -0.3840 -0.1063  0.2844
16094TIP3   OH269772   0.108   0.476   0.572  0.1931 -0.1701 -0.0177
16094TIP3    H169773   0.134   0.538   0.641  1.2525 -0.2637 -0.3050
16094TIP3    H269774   0.165   0.401   0.586  0.1837 -0.3265 -0.7869
16095TIP3   OH269775   5.877   1.246   3.456 -0.1476  0.0707 -0.3174
16095TIP3    H169776   5.883   1.321   3.397 -1.7494 -0.5025 -1.2584
16095TIP3    H269777   5.968   1.227   3.480  0.4235  1.1319 -1.5495
16096TIP3   OH269778   4.215   2.057   1.240  0.1212  0.4957  0.3207
16096TIP3    H169779   4.144   1.997   1.220 -0.5389  0.9447  1.2329
16096TIP3    H269780   4.208   2.072   1.334  0.0391  2.2506  0.0789
16097TIP3   OH269781   5.811   5.769   0.797  0.2039  0.0769  0.5260
16097TIP3    H169782   5.862   5.848   0.816 -0.7941  1.0300 -0.5921
16097TIP3    H269783   5.751   5.796   0.727 -1.5783 -1.0993  1.5255
16098TIP3   OH269784   2.311   3.229  12.967  0.0723 -0.3717  0.1931
16098TIP3    H169785   2.226   3.203  12.933 -0.0481 -0.5917  0.6604
16098TIP3    H269786   2.367   3.237  12.889 -0.3401 -0.3440 -0.1002
16099TIP3   OH269787   3.199   6.081   1.599 -0.0069  0.0126 -0.0707
16099TIP3    H169788   3.172   6.159   1.646  0.7480 -0.0482  0.4821
16099TIP3    H269789   3.268   6.111   1.539  0.6052 -0.2891  0.4631
16100TIP3   OH269790   6.430   5.226   2.461 -0.4693  0.2249 -0.1218
16100TIP3    H169791   6.495   5.189   2.401  2.3238  0.7395  2.3332
16100TIP3    H269792   6.386   5.149   2.498 -1.5270 -0.1267 -1.9843
16101TIP3   OH269793   4.140   5.713   2.609  0.4625 -0.0865 -0.1161
16101TIP3    H169794   4.122   5.786   2.550  2.1632 -0.0806 -0.6803
16101TIP3    H269795   4.069   5.650   2.592 -0.5554  1.0564 -0.2187
16102TIP3   OH269796   1.379   2.693   0.976 -0.2052 -0.0123 -0.1266
16102TIP3    H169797   1.379   2.625   1.044  1.8852 -0.7404 -0.7530
16102TIP3    H269798   1.364   2.775   1.022 -1.9608 -0.7917  0.7629
16103TIP3   OH269799   3.741   0.987  13.613 -0.1751  0.1633 -0.5167
16103TIP3    H169800   3.668   1.000  13.672 -2.2219 -3.5854 -1.8649
16103TIP3    H269801   3.806   1.052  13.639 -2.4959  1.2640  3.1562
16104TIP3   OH269802   2.526   6.007   3.562 -0.1576  0.0489  0.1817
16104TIP3    H169803   2.444   5.993   3.609  0.1226 -0.2330  0.5915
16104TIP3    H269804   2.509   5.974   3.474 -0.3288 -0.4739  0.4060
16105TIP3   OH269805   6.054   3.899   3.626  0.1672 -0.2683  0.1093
16105TIP3    H169806   6.017   3.833   3.567  1.1641  0.6112 -1.5731
16105TIP3    H269807   6.033   3.867   3.714 -0.4590 -2.1673 -0.6791
16106TIP3   OH269808   0.469   1.420   4.855  0.1693 -0.3506 -0.0167
16106TIP3    H169809   0.559   1.417   4.824 -0.5563  1.6338 -2.6853
16106TIP3    H269810   0.476   1.443   4.947  2.3705 -0.9670  0.0312
16107TIP3   OH269811   1.299   2.574  13.519 -0.3622  0.1947 -0.4536
16107TIP3    H169812   1.217   2.611  13.485  0.2082  1.2988 -0.6721
16107TIP3    H269813   1.271   2.518  13.591 -1.2275  1.6770  0.4197
16108TIP3   OH269814   3.888   0.067   2.688 -0.0920  0.2478  0.5734
16108TIP3    H169815   3.958   0.053   2.624 -0.6484  0.5981 -0.1175
16108TIP3    H269816   3.877  -0.019   2.729  0.2957  0.0247  0.2289
16109TIP3   OH269817   0.692   5.762   4.420  0.2302 -1.1383  0.4108
16109TIP3    H169818   0.729   5.759   4.508 -0.7806 -0.5246  0.8780
16109TIP3    H269819   0.619   5.700   4.423 -0.8362  0.0877  0.5205
16110TIP3   OH269820   5.153   0.592  15.918 -0.3450 -0.4666 -0.4674
16110TIP3    H169821   5.192   0.619  15.835  0.3010 -0.2626 -0.1024
16110TIP3    H269822   5.141   0.673  15.967  0.3855 -0.6951  0.1067
16111TIP3   OH269823   4.917   5.157   4.597 -0.2486  0.2928 -0.1353
16111TIP3    H169824   4.975   5.087   4.567 -0.3517 -0.1758  0.7322
16111TIP3    H269825   4.867   5.181   4.519  1.8656  1.5096 -1.2345
16112TIP3   OH269826   3.867   4.477  13.691  0.2419 -0.3681 -0.0076
16112TIP3    H169827   3.773   4.496  13.699  0.1338 -1.6153  2.9244
16112TIP3    H269828   3.904   4.504  13.775  2.7326  0.8662 -1.3969
16113TIP3   OH269829   5.937   4.979   5.680  0.2233 -0.1537  0.2904
16113TIP3    H169830   5.953   4.920   5.606 -0.5734  2.3018 -2.0210
16113TIP3    H269831   5.852   4.951   5.715  0.2862 -0.9488 -0.1652
16114TIP3   OH269832   1.758   5.047  16.099 -0.1424 -0.0931  0.2200
16114TIP3    H169833   1.667   5.026  16.119  0.2416 -1.8213  0.3010
16114TIP3    H269834   1.794   5.079  16.181 -1.0191  2.0751 -0.1673
16115TIP3   OH269835   2.973   5.248  11.618  1.1578  0.0756 -0.1642
16115TIP3    H169836   3.018   5.330  11.594  0.7245  1.2400  2.5831
16115TIP3    H269837   2.901   5.276  11.674  1.3950 -2.1970  1.4319
16116TIP3   OH269838   3.322   1.344  16.415 -0.1321 -0.2660  0.0710
16116TIP3    H169839   3.305   1.276  16.480  1.1397 -0.5945  0.0883
16116TIP3    H269840   3.244   1.344  16.359  0.0418 -2.1228 -0.2402
16117TIP3   OH269841   0.916   1.742  10.524 -0.0417  0.6668 -0.1672
16117TIP3    H169842   0.898   1.742  10.430  0.5729 -0.7868 -0.3001
16117TIP3    H269843   1.012   1.739  10.530 -0.1052 -0.9167  0.4724
16118TIP3   OH269844   6.382   2.179  16.815 -0.0124  0.7530  0.8869
16118TIP3    H169845   6.308   2.212  16.765  0.0851  1.7400  1.3718
16118TIP3    H269846   6.404   2.250  16.875  1.7239  0.7362  0.3291
16119TIP3   OH269847   6.438   1.040   1.148 -0.9285 -0.2752  0.1253
16119TIP3    H169848   6.355   1.070   1.185 -0.8522 -0.9778  0.8937
16119TIP3    H269849   6.414   0.964   1.095 -0.6985 -0.8889  0.8892
16120TIP3   OH269850   5.508   2.196   4.628  0.2119  0.0669  0.3847
16120TIP3    H169851   5.522   2.143   4.707  1.5968 -0.0057  0.1073
16120TIP3    H269852   5.426   2.243   4.646  0.3738 -0.1203  1.7677
16121TIP3   OH269853   4.175   3.133   4.012 -0.5300 -0.3315  0.0665
16121TIP3    H169854   4.119   3.055   4.009  0.5190 -1.1063 -0.1634
16121TIP3    H269855   4.248   3.107   4.068 -0.2248  0.5375  0.0844
16122TIP3   OH269856   6.525   5.290   4.800  0.0428  0.4433 -0.2505
16122TIP3    H169857   6.438   5.250   4.802 -0.1406  0.8635  0.7523
16122TIP3    H269858   6.523   5.348   4.724 -0.1098 -0.4984 -0.9842
16123TIP3   OH269859   2.324   0.653  10.528 -0.7151  0.0166 -0.4390
16123TIP3    H169860   2.233   0.655  10.558 -0.5330  0.2590  0.0970
16123TIP3    H269861   2.357   0.740  10.547  0.1600 -0.5979  1.0024
16124TIP3   OH269862   1.392   0.542  11.459 -0.1870  0.1407 -0.2496
16124TIP3    H169863   1.385   0.555  11.553 -1.5774 -3.0597  0.2466
16124TIP3    H269864   1.308   0.572  11.424 -1.4724 -2.4737  0.2592
16125TIP3   OH269865   0.248   0.208  15.293 -0.1161 -0.1569  0.1640
16125TIP3    H169866   0.328   0.259  15.281 -0.6299  0.9010  1.0271
16125TIP3    H269867   0.276   0.127  15.334  0.4296  0.5879  1.3163
16126TIP3   OH269868   0.410   4.369   3.268  0.4066  0.5077 -0.4718
16126TIP3    H169869   0.467   4.296   3.246  0.8498  0.8994 -0.6316
16126TIP3    H269870   0.448   4.445   3.223  0.0906  0.8875 -0.1157
16127TIP3   OH269871   5.245   6.803  15.533 -0.6630 -0.4119  0.7165
16127TIP3    H169872   5.188   6.731  15.562 -0.8383 -0.0365  1.3281
16127TIP3    H269873   5.189   6.880  15.538 -0.4925 -0.2316  0.0034
16128TIP3   OH269874   2.554   5.237   3.752  0.3138  0.1018  0.4284
16128TIP3    H169875   2.643   5.273   3.751  0.3580  0.1859  2.6835
16128TIP3    H269876   2.511   5.280   3.826 -1.3592 -0.5648 -0.0931
16129TIP3   OH269877   3.507   0.257   1.043  0.6047  0.0893 -0.0739
16129TIP3    H169878   3.585   0.304   1.071  1.3385 -1.1354 -0.0214
16129TIP3    H269879   3.504   0.270   0.948  1.2065 -0.3485 -0.1551
16130TIP3   OH269880   0.687   2.599   3.937  0.0480  0.1284 -0.1866
16130TIP3    H169881   0.759   2.557   3.983 -0.5642 -0.4485  0.2760
16130TIP3    H269882   0.696   2.570   3.846 -0.2839 -0.9333  0.0954
16131TIP3   OH269883   3.514   0.610   0.864  0.2787 -0.6951  0.1184
16131TIP3    H169884   3.453   0.573   0.928 -0.9594 -0.6571 -1.0030
16131TIP3    H269885   3.509   0.704   0.877  0.1773 -0.6998  0.1175
16132TIP3   OH269886   6.179   2.926   5.177 -0.1862 -0.3343  0.1971
16132TIP3    H169887   6.151   2.989   5.243  1.7664  1.1540 -0.3062
16132TIP3    H269888   6.230   2.977   5.114 -1.7244 -1.7316 -2.3634
16133TIP3   OH269889   0.905   0.682  10.786 -0.5156 -0.2136  0.1838
16133TIP3    H169890   0.891   0.759  10.732 -2.5371 -0.0210  0.8947
16133TIP3    H269891   1.000   0.676  10.795 -0.1665  0.4118 -2.3512
16134TIP3   OH269892   4.103   2.072   0.177  0.0155 -0.9352 -0.7753
16134TIP3    H169893   4.198   2.081   0.177 -0.0670  0.5161  0.4843
16134TIP3    H269894   4.072   2.144   0.122 -0.3944  0.2507  0.9242
16135TIP3   OH269895   4.495   2.579  12.720  0.4015  0.1079  0.2939
16135TIP3    H169896   4.416   2.632  12.727  1.0427  1.1053  0.2398
16135TIP3    H269897   4.505   2.539  12.806  1.1439  1.9165  1.1099
16136TIP3   OH269898   5.252   0.509  13.826  0.4368 -0.1456  0.3472
16136TIP3    H169899   5.171   0.552  13.853  2.0485  2.3833  1.5482
16136TIP3    H269900   5.295   0.484  13.908  1.4601 -0.2668 -0.2045
16137TIP3   OH269901   2.351   0.196   3.119 -0.0154  0.0145  0.7141
16137TIP3    H169902   2.357   0.289   3.095  1.6227 -0.2681 -0.1152
16137TIP3    H269903   2.357   0.196   3.214 -1.3116  0.8218  0.8273
16138TIP3   OH269904   5.670   5.069  14.391  0.4255 -0.0379 -0.5568
16138TIP3    H169905   5.615   5.002  14.348 -0.3936  0.3109 -0.0655
16138TIP3    H269906   5.622   5.093  14.469 -0.5733  2.9622 -1.9749
16139TIP3   OH269907   5.112   4.009  15.021  0.0072 -0.1917  0.1379
16139TIP3    H169908   5.034   4.008  14.966  1.1433  0.1719 -1.5472
16139TIP3    H269909   5.078   4.008  15.111 -1.9258  0.5787 -0.5383
16140TIP3   OH269910   1.184   2.845  15.307  0.1751  0.3128  0.6548
16140TIP3    H169911   1.192   2.926  15.357  0.4562  0.6906  0.0071
16140TIP3    H269912   1.233   2.780  15.358  0.8444  0.7985  0.6445
16141TIP3   OH269913   1.098   1.093  11.198  0.1703 -0.4569 -0.1512
16141TIP3    H169914   1.094   1.024  11.132 -2.1107  0.9628 -1.6312
16141TIP3    H269915   1.102   1.175  11.149  1.3202  0.5732  1.5400
16142TIP3   OH269916   5.022   2.846  15.360 -0.1414  0.2692  0.3446
16142TIP3    H169917   5.107   2.814  15.331 -0.6450 -0.3506 -0.4879
16142TIP3    H269918   4.965   2.769  15.357 -0.6898  0.6232  1.1013
16143TIP3   OH269919   4.275   0.486   0.829 -1.0433 -0.2052  0.2495
16143TIP3    H169920   4.206   0.436   0.786 -1.0942 -0.1990  0.3226
16143TIP3    H269921   4.255   0.479   0.922 -0.3467 -1.0922  0.3441
16144TIP3   OH269922   2.736   4.368  15.209 -0.0782 -0.4521  0.1497
16144TIP3    H169923   2.779   4.292  15.250 -1.3642 -0.5447  1.4047
16144TIP3    H269924   2.655   4.333  15.172 -0.0178  0.0723 -0.4878
16145TIP3   OH269925   1.506   6.806   4.463 -0.5967  0.0862 -0.0219
16145TIP3    H169926   1.540   6.812   4.552 -1.0148 -2.4549  0.3923
16145TIP3    H269927   1.571   6.850   4.409 -0.4085  1.8035  1.5189
16146TIP3   OH269928   3.730   5.899   5.342 -0.1753 -0.0847  0.2412
16146TIP3    H169929   3.639   5.870   5.345  0.9359 -4.2683  2.0494
16146TIP3    H269930   3.768   5.852   5.268  0.3953  2.5719 -1.2868
16147TIP3   OH269931   3.955   3.468  13.165 -0.5218 -0.2449 -0.2952
16147TIP3    H169932   4.008   3.402  13.119 -0.2502 -0.9633  0.9942
16147TIP3    H269933   3.870   3.426  13.177  0.0415 -0.9141  1.6717
16148TIP3   OH269934   5.070   6.478   1.804 -0.1712  0.2851 -0.4028
16148TIP3    H169935   4.995   6.533   1.778 -1.6824  0.0249  2.8682
16148TIP3    H269936   5.072   6.408   1.739 -0.4724  2.2038 -2.6047
16149TIP3   OH269937   2.929   2.705   4.233 -0.4549 -0.1340  0.0626
16149TIP3    H169938   2.937   2.800   4.230 -2.1443  0.1339  1.8131
16149TIP3    H269939   2.964   2.675   4.149 -0.3410  2.0650 -0.7369
16150TIP3   OH269940   2.617   2.306  12.955  0.2170 -0.3889  0.3250
16150TIP3    H169941   2.659   2.365  13.018 -0.1376 -0.0934  0.2898
16150TIP3    H269942   2.554   2.256  13.007  2.7948 -3.1838  1.0543
16151TIP3   OH269943   0.293   2.279  15.694 -0.5429  0.0424  0.2579
16151TIP3    H169944   0.252   2.248  15.613 -1.6114 -0.9951  1.1383
16151TIP3    H269945   0.380   2.238  15.695 -0.5407  0.0336 -0.3419
16152TIP3   OH269946   4.099   5.158  13.983  0.7689  0.1953 -0.2983
16152TIP3    H169947   4.143   5.215  14.046  0.8649  0.4269 -0.5733
16152TIP3    H269948   4.081   5.215  13.908  0.9274 -0.1558 -0.6025
16153TIP3   OH269949   0.817   6.747  16.143  0.2480 -0.2795 -0.0541
16153TIP3    H169950   0.728   6.713  16.144  0.0468  0.2330 -0.1391
16153TIP3    H269951   0.863   6.694  16.079 -0.9548  1.8122 -2.8794
16154TIP3   OH269952   5.906   4.393  11.949 -0.3479 -0.2574  0.2481
16154TIP3    H169953   5.920   4.452  12.023 -0.1947  0.4862 -0.3571
16154TIP3    H269954   5.945   4.311  11.976  0.5672  0.2884  0.6210
16155TIP3   OH269955   6.202   4.145  12.002  0.7680  0.6328 -0.1056
16155TIP3    H169956   6.270   4.205  12.033  0.0760  0.4197  1.9694
16155TIP3    H269957   6.196   4.078  12.069 -1.7260  0.8447 -0.0169
16156TIP3   OH269958   1.541   5.644   5.318 -0.0876  0.6947 -0.1040
16156TIP3    H169959   1.600   5.631   5.243  0.8786 -1.3705  0.9319
16156TIP3    H269960   1.502   5.730   5.303  2.8617  1.9991 -1.1015
16157TIP3   OH269961   2.582   2.706  14.804 -0.3135 -0.7080 -0.4755
16157TIP3    H169962   2.560   2.792  14.768 -1.2992 -0.3938  0.7971
16157TIP3    H269963   2.502   2.655  14.796  0.2184 -1.4695 -1.0632
16158TIP3   OH269964   5.091   3.773   4.906  0.5426  0.3161 -0.3075
16158TIP3    H169965   5.135   3.697   4.942  0.1417 -0.2612 -1.0043
16158TIP3    H269966   5.133   3.788   4.821  0.9945  1.2152  0.0618
16159TIP3   OH269967   1.306   5.201  14.606  0.5358 -0.1955  0.3016
16159TIP3    H169968   1.251   5.132  14.642 -1.5204  1.5192  0.6084
16159TIP3    H269969   1.327   5.257  14.681  1.4925 -0.0115 -0.0860
16160TIP3   OH269970   4.635   4.756  15.171 -0.3543  0.0608 -0.0050
16160TIP3    H169971   4.596   4.843  15.181 -0.6315  0.1114 -1.3196
16160TIP3    H269972   4.707   4.754  15.234 -1.9634  0.2505  1.9264
16161TIP3   OH269973   6.131   4.190  16.728  0.2163  0.1541 -0.3895
16161TIP3    H169974   6.208   4.164  16.778 -0.7028 -0.3169  0.8368
16161TIP3    H269975   6.067   4.216  16.794 -1.1001 -0.6504 -1.2924
16162TIP3   OH269976   3.655   5.306  12.263  0.3099 -0.7903  0.4366
16162TIP3    H169977   3.746   5.338  12.263 -0.2768  1.1101 -1.5362
16162TIP3    H269978   3.643   5.267  12.177 -1.6780  2.2085 -0.7925
16163TIP3   OH269979   5.053   6.607   2.063 -0.8913 -0.2495 -0.7041
16163TIP3    H169980   5.111   6.531   2.057 -0.1521  0.3374 -1.1863
16163TIP3    H269981   5.032   6.629   1.972  1.2136  1.8306 -0.7767
16164TIP3   OH269982   4.192   1.991   2.362  0.2355  0.3465 -0.3462
16164TIP3    H169983   4.275   1.951   2.387  0.3273  0.0438 -1.0886
16164TIP3    H269984   4.127   1.924   2.380  0.5537 -0.8145 -3.0282
16165TIP3   OH269985   1.229   3.783   3.030 -0.2967  0.5657 -0.9861
16165TIP3    H169986   1.162   3.719   3.006  1.3559 -0.9498 -1.7398
16165TIP3    H269987   1.213   3.857   2.971 -1.5992  0.4643 -0.7973
16166TIP3   OH269988   4.521   2.341  17.131 -0.3154  0.5299  0.4476
16166TIP3    H169989   4.500   2.402  17.202 -2.3685  0.0175  0.3530
16166TIP3    H269990   4.446   2.346  17.072 -0.2763 -1.6238  0.1268
16167TIP3   OH269991   5.340   0.240   3.242  0.4614 -0.1293 -0.2892
16167TIP3    H169992   5.380   0.166   3.196 -0.5418  0.3250 -1.9926
16167TIP3    H269993   5.270   0.270   3.183 -1.0802  0.3390  1.6783
16168TIP3   OH269994   4.307   2.554  15.161  0.2040  0.6286  0.5296
16168TIP3    H169995   4.219   2.586  15.140  0.8957  0.1969 -3.9623
16168TIP3    H269996   4.294   2.461  15.179 -0.2760  0.6069  0.1040
16169TIP3   OH269997   3.668   5.821  14.157  0.0786  0.1564 -0.0099
16169TIP3    H169998   3.587   5.860  14.191  0.3052  0.6990 -0.0762
16169TIP3    H269999   3.645   5.730  14.140 -0.2831  0.0847  0.7866
16170TIP3   OH270000   3.386   5.805   0.655 -0.8144 -0.1729  0.2746
16170TIP3    H170001   3.334   5.885   0.647  2.1154  1.7611 -0.9604
16170TIP3    H270002   3.465   5.832   0.700 -0.7027 -2.9730  1.9847
16171TIP3   OH270003   5.422   2.284   4.905 -0.1799  0.0209  0.3173
16171TIP3    H170004   5.411   2.218   4.973  0.0726  0.2723  0.6074
16171TIP3    H270005   5.494   2.339   4.936  1.2077 -0.9589 -1.0275
16172TIP3   OH270006   4.259   2.254   0.451 -0.0031  0.5024 -0.7316
16172TIP3    H170007   4.311   2.229   0.375 -0.3880 -1.8219 -0.2926
16172TIP3    H270008   4.189   2.309   0.415  1.8663  2.5747 -1.4921
16173TIP3   OH270009   4.182   6.497  12.500  0.2475 -0.2013  0.1197
16173TIP3    H170010   4.273   6.521  12.520  0.6214 -1.6874  0.4036
16173TIP3    H270011   4.177   6.497  12.405  1.3182 -2.4653 -0.0205
16174TIP3   OH270012   3.241   6.190   0.458 -0.4330 -0.7375  0.0793
16174TIP3    H170013   3.227   6.112   0.512 -3.0726 -0.8300 -0.6377
16174TIP3    H270014   3.206   6.262   0.510  1.7594  0.0237  0.6236
16175TIP3   OH270015   0.928   3.353   1.474 -0.6103  0.2502 -0.2691
16175TIP3    H170016   0.847   3.304   1.492  0.6477 -0.9128  3.1575
16175TIP3    H270017   0.993   3.286   1.455  0.4026  0.7813  1.1542
16176TIP3   OH270018   4.636   5.319  13.434 -0.3286  0.7825 -0.0708
16176TIP3    H170019   4.638   5.402  13.387 -0.4339  0.1588 -1.2027
16176TIP3    H270020   4.636   5.252  13.366  0.4929 -0.1717  0.8214
16177TIP3   OH270021   3.097   4.064   2.900  0.3434  0.5474  0.4973
16177TIP3    H170022   3.061   4.116   2.972 -1.2944 -1.0544  0.9064
16177TIP3    H270023   3.053   4.098   2.822 -0.6355 -0.1143  0.7474
16178TIP3   OH270024   0.610   0.319   0.158  0.4279 -0.6426  0.0727
16178TIP3    H170025   0.686   0.286   0.110 -0.7843 -1.3500 -1.4914
16178TIP3    H270026   0.607   0.412   0.137 -1.1135 -1.2253 -2.9568
16179TIP3   OH270027   0.026   1.214  16.683 -0.1076  0.4913  0.5738
16179TIP3    H170028  -0.018   1.202  16.767 -0.8306 -1.9466 -0.0667
16179TIP3    H270029  -0.036   1.179  16.619  1.6026 -0.3779 -0.6712
16180TIP3   OH270030   4.147   4.446   5.208  0.5503 -0.2064  0.4034
16180TIP3    H170031   4.183   4.407   5.288 -0.8475  0.3317  1.3300
16180TIP3    H270032   4.208   4.517   5.186  0.9919 -0.4174  0.9274
16181TIP3   OH270033   2.300   2.622  13.787  0.4780 -0.1762 -0.6667
16181TIP3    H170034   2.379   2.668  13.758  0.8672  0.0313  0.6358
16181TIP3    H270035   2.333   2.546  13.834 -0.1018 -0.3028 -0.4575
16182TIP3   OH270036   0.597   3.122  11.607  0.2894 -0.1723  0.6220
16182TIP3    H170037   0.532   3.087  11.547  0.2604  0.2013  0.4294
16182TIP3    H270038   0.644   3.045  11.640 -0.1084 -0.4238  0.6003
16183TIP3   OH270039   5.497   2.470  13.158  0.5308  0.1405 -0.4990
16183TIP3    H170040   5.525   2.481  13.067  0.2302 -2.3302 -0.9548
16183TIP3    H270041   5.434   2.398  13.156 -0.1511  0.6055  1.5616
16184TIP3   OH270042   5.126   4.086  13.324  0.0379  0.3192  0.3898
16184TIP3    H170043   5.141   3.991  13.327  0.6143  0.2296 -2.3549
16184TIP3    H270044   5.196   4.122  13.378  1.0656 -0.7569 -0.1704
16185TIP3   OH270045   4.802   3.067  13.677 -0.0247 -0.0569 -0.2734
16185TIP3    H170046   4.760   3.127  13.739 -0.0853 -1.2029  0.8442
16185TIP3    H270047   4.838   2.998  13.732 -1.6183 -2.0866 -1.6223
16186TIP3   OH270048   1.360   5.170   2.578  0.5550 -0.2138  0.1859
16186TIP3    H170049   1.358   5.261   2.551  1.2486 -0.2632 -0.0601
16186TIP3    H270050   1.336   5.171   2.671 -1.3522  0.0108 -0.2667
16187TIP3   OH270051   0.233   5.717  12.123  0.5655 -0.1010  0.2055
16187TIP3    H170052   0.260   5.733  12.032  0.7390  2.2996  0.6174
16187TIP3    H270053   0.153   5.664  12.114 -0.3801  1.4666 -1.4682
16188TIP3   OH270054   3.558   0.434   6.140 -0.4094 -0.0236  0.3883
16188TIP3    H170055   3.503   0.431   6.062  0.8657  1.3155 -0.6160
16188TIP3    H270056   3.497   0.445   6.212 -1.5272  0.2847 -0.5755
16189TIP3   OH270057   3.983   4.320  12.415  0.1449  0.3254  0.2514
16189TIP3    H170058   3.909   4.378  12.397  0.2496  0.4562  0.2466
16189TIP3    H270059   4.035   4.320  12.335  0.6499  0.9685  0.5650
16190TIP3   OH270060   3.761   6.669   4.555  0.2139  0.8087 -0.2937
16190TIP3    H170061   3.811   6.737   4.600 -0.6295  0.0850  1.8217
16190TIP3    H270062   3.804   6.587   4.581  1.2576  0.4453 -2.8560
16191TIP3   OH270063   0.056   4.775  11.261 -0.1050 -0.6168  0.3313
16191TIP3    H170064  -0.020   4.808  11.310  0.9535  0.3725  1.3472
16191TIP3    H270065   0.119   4.846  11.263  1.6186 -2.0932  1.1905
16192TIP3   OH270066   6.792   5.077   3.594  0.2261 -0.2531 -0.4433
16192TIP3    H170067   6.730   5.035   3.653  2.5148 -0.2027  2.2036
16192TIP3    H270068   6.835   5.005   3.548 -0.3102 -0.3885 -0.7458
16193TIP3   OH270069   3.952   1.716  12.248  0.2129 -1.4020  0.5467
16193TIP3    H170070   3.931   1.772  12.173  1.1783 -0.1646  1.1732
16193TIP3    H270071   4.047   1.701  12.241  0.4297 -0.7674  1.8374
16194TIP3   OH270072   2.238   6.264   4.850  0.3003  0.9355  0.6093
16194TIP3    H170073   2.194   6.343   4.820 -0.0693  0.9196  1.0991
16194TIP3    H270074   2.236   6.269   4.946  0.1694  0.2808  0.6481
16195TIP3   OH270075   4.322   3.888   4.205 -0.3357  0.1722  0.5656
16195TIP3    H170076   4.231   3.894   4.234 -0.2457 -0.0374  0.8913
16195TIP3    H270077   4.329   3.953   4.135 -0.7365  0.1864  0.5370
16196TIP3   OH270078   3.742   3.983   4.635  0.1329 -0.0223  0.2314
16196TIP3    H170079   3.726   3.925   4.561 -1.3276  1.5497 -0.7151
16196TIP3    H270080   3.716   3.931   4.711  1.9450 -1.7693 -0.2434
16197TIP3   OH270081   5.796   4.158   4.805 -0.4538  0.1028  0.1012
16197TIP3    H170082   5.882   4.120   4.787 -0.3407  0.6738 -0.6063
16197TIP3    H270083   5.740   4.082   4.825 -0.0848 -0.3814 -0.6539
16198TIP3   OH270084   4.237   6.229  13.010  0.5191 -0.4351  0.4411
16198TIP3    H170085   4.165   6.186  13.055  1.7126 -2.6648  0.3670
16198TIP3    H270086   4.288   6.270  13.080  0.2069 -0.4843  0.6987
16199TIP3   OH270087   0.300   6.590   4.370  0.4808 -0.9759  0.1347
16199TIP3    H170088   0.222   6.535   4.383  0.4906 -0.8691  0.6495
16199TIP3    H270089   0.354   6.574   4.447 -0.9108  2.0907  1.9501
16200TIP3   OH270090   4.944   2.797  12.371 -0.5063  0.1786  0.5829
16200TIP3    H170091   4.952   2.843  12.288  0.5761  0.0385  0.5946
16200TIP3    H270092   4.857   2.758  12.368  0.0112 -0.9775 -1.1018
16201TIP3   OH270093   0.839   3.093   1.006 -0.3377  0.0621 -0.3423
16201TIP3    H170094   0.806   3.066   1.092  0.4229  0.9754  0.2655
16201TIP3    H270095   0.829   3.188   1.006 -0.8842  0.0258 -1.5235
16202TIP3   OH270096   1.430   1.646   5.727  0.2550  0.3729 -0.3297
16202TIP3    H170097   1.516   1.621   5.694  1.0557 -0.4827  2.1319
16202TIP3    H270098   1.444   1.732   5.768  0.0642  0.0808  0.3783
16203TIP3   OH270099   1.948   5.896   4.498  0.0743 -0.0559  0.1107
16203TIP3    H170100   2.010   5.960   4.463 -0.6718  0.3711 -0.4662
16203TIP3    H270101   1.862   5.938   4.488 -0.2819 -0.4519  1.3018
16204TIP3   OH270102   6.013   4.563  12.268  0.0327  0.3962 -0.2283
16204TIP3    H170103   6.048   4.551  12.356  0.2194 -1.2559 -0.4847
16204TIP3    H270104   5.918   4.554  12.278  0.1313 -1.0425 -0.3318
16205TIP3   OH270105   6.797   2.038  12.667  0.2445 -0.0119 -0.1557
16205TIP3    H170106   6.765   2.053  12.577 -1.5807  1.3964  0.6517
16205TIP3    H270107   6.876   1.986  12.656  1.0566  1.5602 -2.6957
16206TIP3   OH270108   4.467   5.239  14.653  0.0249  0.1325  0.3312
16206TIP3    H170109   4.416   5.316  14.678  0.1023  0.6238 -0.9527
16206TIP3    H270110   4.543   5.275  14.607 -0.0072 -0.7126 -0.3996
16207TIP3   OH270111   1.378   4.515  15.012  0.1473 -0.3655  0.5045
16207TIP3    H170112   1.452   4.570  14.986 -0.4098  0.7411  1.1973
16207TIP3    H270113   1.415   4.427  15.019  1.0922 -0.0706 -0.4578
16208TIP3   OH270114   0.672   2.696  13.972  0.1178 -0.1539  0.6496
16208TIP3    H170115   0.597   2.677  14.028 -0.2251  0.6648  0.4756
16208TIP3    H270116   0.698   2.785  13.996 -0.9514  0.8134 -1.5068
16209TIP3   OH270117   0.041   0.283   2.789 -0.8213 -0.6252  0.6342
16209TIP3    H170118   0.047   0.366   2.742 -1.0396 -0.6226  0.6096
16209TIP3    H270119  -0.027   0.297   2.855 -0.9998 -0.8436  0.5017
16210TIP3   OH270120   3.011   5.924  15.576  0.0187 -0.0160 -0.1631
16210TIP3    H170121   3.047   5.854  15.521  2.3707  1.0250 -0.0803
16210TIP3    H270122   3.038   5.900  15.665  2.9663  2.0375 -0.3612
16211TIP3   OH270123   2.275   5.735  14.168  0.0962 -0.2638 -0.3502
16211TIP3    H170124   2.222   5.655  14.172 -1.3508  0.6816 -0.1013
16211TIP3    H270125   2.340   5.717  14.100 -1.3045 -1.0096 -1.5503
16212TIP3   OH270126   4.484   4.270   1.261  0.2919  0.3837 -0.1630
16212TIP3    H170127   4.571   4.242   1.232  0.3697  0.8833 -0.4165
16212TIP3    H270128   4.500   4.345   1.318  0.0285  0.4709 -0.2005
16213TIP3   OH270129   3.320   4.916  14.086 -0.5912  0.1768 -0.2269
16213TIP3    H170130   3.326   4.829  14.124 -1.0936  0.1601 -0.1784
16213TIP3    H270131   3.393   4.920  14.023  0.3512  0.2700  0.8488
16214TIP3   OH270132   2.370   6.192  16.494  0.4304  0.6880  0.2758
16214TIP3    H170133   2.313   6.264  16.468 -0.1703  0.3971  0.7750
16214TIP3    H270134   2.406   6.219  16.579 -0.7379 -0.1191  1.0468
16215TIP3   OH270135   6.635   0.493  14.443 -0.1933 -0.4828  0.0961
16215TIP3    H170136   6.689   0.463  14.517  0.9854  1.3871  0.0831
16215TIP3    H270137   6.559   0.435  14.443  1.4606 -2.7720  0.5833
16216TIP3   OH270138   3.400   4.509   6.607  0.3726  0.3671  0.3798
16216TIP3    H170139   3.463   4.449   6.647  1.9223  0.7638 -1.3075
16216TIP3    H270140   3.432   4.596   6.631 -0.6357  0.5688  1.0441
16217TIP3   OH270141   3.526   0.661   5.265  0.4483 -0.0030 -0.5550
16217TIP3    H170142   3.469   0.591   5.230  1.1915  0.1250 -2.1017
16217TIP3    H270143   3.600   0.614   5.304 -0.4579 -0.1531  1.0979
16218TIP3   OH270144   4.562   1.645   0.481 -0.0578  0.0184 -0.1231
16218TIP3    H170145   4.559   1.561   0.435 -0.1495 -1.1353  1.8820
16218TIP3    H270146   4.471   1.676   0.481  0.0246  0.2967 -1.1316
16219TIP3   OH270147   2.781   3.167   2.311  0.5286 -0.1917  0.2311
16219TIP3    H170148   2.821   3.088   2.276 -0.9673 -0.5685 -0.7026
16219TIP3    H270149   2.772   3.225   2.235 -0.5920 -0.0793  0.4434
16220TIP3   OH270150   2.566   1.966   1.834 -0.2030 -0.2081  0.0372
16220TIP3    H170151   2.508   2.042   1.842  1.8496  1.4954 -0.3003
16220TIP3    H270152   2.563   1.943   1.741 -2.1171 -1.6931  0.4090
16221TIP3   OH270153   6.174   4.948   5.371  0.0078  0.0356  0.1290
16221TIP3    H170154   6.208   4.894   5.443 -0.2294 -1.5706 -0.9217
16221TIP3    H270155   6.080   4.954   5.388 -0.1950 -1.0900 -0.4760
16222TIP3   OH270156   5.394   1.627   2.245  0.0627  0.5062 -0.0781
16222TIP3    H170157   5.478   1.596   2.281 -0.3227  0.1303  0.5165
16222TIP3    H270158   5.343   1.651   2.321 -1.1268 -1.2121 -0.2853
16223TIP3   OH270159   6.716   2.232  16.950  0.3266  0.2580  0.1317
16223TIP3    H170160   6.648   2.287  16.912 -0.6719 -0.4613  0.8390
16223TIP3    H270161   6.691   2.143  16.925 -0.0920 -0.1971  2.0274
16224TIP3   OH270162   4.749   2.962   1.053  0.2117 -0.2892 -0.2608
16224TIP3    H170163   4.678   3.009   1.098  0.4040  0.2975 -0.5518
16224TIP3    H270164   4.807   3.032   1.022 -0.7690 -0.5090 -2.8773
16225TIP3   OH270165   1.726   6.748   5.627 -0.7449  0.0207  0.2052
16225TIP3    H170166   1.690   6.808   5.692  0.3209 -0.7360  1.5399
16225TIP3    H270167   1.817   6.776   5.617 -0.4677 -0.8613  0.2340
16226TIP3   OH270168   5.412   1.375   3.959 -0.8795 -0.2077  0.3500
16226TIP3    H170169   5.441   1.371   4.050  0.9743  0.0124 -0.2041
16226TIP3    H270170   5.466   1.443   3.919 -2.8232  0.8955 -0.5481
16227TIP3   OH270171   1.149   1.585  12.166 -0.2729  0.0957  0.8330
16227TIP3    H170172   1.055   1.593  12.183 -0.6559 -1.2606 -0.3870
16227TIP3    H270173   1.180   1.675  12.157 -1.5580  0.5458  0.7390
16228TIP3   OH270174   3.755   5.625  16.327  0.4681 -0.3957  0.2692
16228TIP3    H170175   3.772   5.628  16.233  2.2917 -0.4737  0.5697
16228TIP3    H270176   3.825   5.677  16.366  0.9847 -2.0791  1.7245
16229TIP3   OH270177   3.170   4.934  16.699 -0.5325  0.7717 -0.2716
16229TIP3    H170178   3.082   4.948  16.733 -1.4024 -1.0938 -1.5721
16229TIP3    H270179   3.170   4.843  16.669  2.8312 -0.3516  2.4909
16230TIP3   OH270180   3.895   0.162  11.740  0.2716  0.2596  0.1133
16230TIP3    H170181   3.983   0.193  11.718  0.3682  1.6896  2.2908
16230TIP3    H270182   3.896   0.150  11.835 -0.9967 -2.7150 -0.1155
16231TIP3   OH270183   6.237   3.678  16.246 -0.5035 -0.3144 -0.1080
16231TIP3    H170184   6.150   3.719  16.243 -0.1207  0.6166  0.6568
16231TIP3    H270185   6.222   3.594  16.290 -1.3513 -1.1975 -1.9620
16232TIP3   OH270186   0.363   6.399   1.430 -0.5417  0.3290  0.5345
16232TIP3    H170187   0.312   6.467   1.386 -0.1637  0.2024 -0.1220
16232TIP3    H270188   0.452   6.434   1.433  0.1263 -0.9401 -1.7153
16233TIP3   OH270189   3.699   6.691  10.959  0.2244  0.4917  0.6881
16233TIP3    H170190   3.683   6.783  10.978  0.1443  1.0812 -1.9149
16233TIP3    H270191   3.786   6.689  10.919 -0.8684 -0.0810 -1.8862
16234TIP3   OH270192   6.203   4.083   5.124 -0.5710  0.1930 -0.0608
16234TIP3    H170193   6.122   4.090   5.073 -0.5997  0.8566  0.0568
16234TIP3    H270194   6.211   3.991   5.145 -0.7446 -0.0448 -0.9756
16235TIP3   OH270195   0.204   4.385  15.467  0.0509 -0.4697  0.3199
16235TIP3    H170196   0.206   4.305  15.414 -2.3811 -0.7384  0.5267
16235TIP3    H270197   0.188   4.455  15.404 -0.3766 -0.4856  0.4055
16236TIP3   OH270198   3.138   5.012  14.515  0.2075 -0.1674  0.1172
16236TIP3    H170199   3.177   4.986  14.432 -0.0865  1.0112 -0.4158
16236TIP3    H270200   3.051   5.045  14.492  0.5902  1.3481  0.6997
16237TIP3   OH270201   4.628   0.381  14.137 -0.1077  0.6089 -0.0931
16237TIP3    H170202   4.556   0.402  14.197 -0.5081 -0.0854 -0.3250
16237TIP3    H270203   4.704   0.423  14.176  0.1828 -1.8397  2.2780
16238TIP3   OH270204   0.192   0.517   3.456 -0.0913 -0.3345  0.3135
16238TIP3    H170205   0.130   0.461   3.501  1.6478 -2.9665 -0.3594
16238TIP3    H270206   0.278   0.485   3.484  0.9922  1.0175 -1.2711
16239TIP3   OH270207   4.643   5.227   5.572 -0.3992 -0.7031 -0.3826
16239TIP3    H170208   4.656   5.164   5.642 -0.1369 -2.2893 -1.7996
16239TIP3    H270209   4.592   5.180   5.506  0.7522  0.1904 -1.9752
16240TIP3   OH270210   3.739   1.602  16.901 -0.2009 -0.2085 -0.2565
16240TIP3    H170211   3.678   1.528  16.908  0.7136 -0.8847  0.8848
16240TIP3    H270212   3.686   1.677  16.927 -1.1903 -0.4045 -1.5867
16241TIP3   OH270213   2.510   6.801   2.213  0.2416  0.4646  0.5712
16241TIP3    H170214   2.569   6.872   2.188  0.3835 -0.8424 -3.4472
16241TIP3    H270215   2.568   6.729   2.238  0.1942  0.6231  1.1486
16242TIP3   OH270216   3.798   2.376   5.847  0.1919  0.2142  0.1844
16242TIP3    H170217   3.785   2.367   5.941 -0.6331 -3.6302 -0.1640
16242TIP3    H270218   3.712   2.361   5.809  0.6216  1.1574 -1.2554
16243TIP3   OH270219   3.785   5.333   1.865  0.3090  0.1839  0.4766
16243TIP3    H170220   3.759   5.318   1.774 -0.2034  0.9333  0.4860
16243TIP3    H270221   3.750   5.420   1.886  0.0967 -0.1349  1.5087
16244TIP3   OH270222   5.490   5.611   5.367  0.1625 -0.6939  0.0907
16244TIP3    H170223   5.488   5.527   5.413  2.0152  0.1118  1.7729
16244TIP3    H270224   5.429   5.667   5.416 -1.2315 -1.0718 -1.1530
16245TIP3   OH270225   0.459   4.195   0.931 -0.4292  0.0367 -0.8178
16245TIP3    H170226   0.535   4.191   0.872 -0.2375  1.8473 -0.7648
16245TIP3    H270227   0.412   4.113   0.915  1.1895 -0.8483 -1.3108
16246TIP3   OH270228   0.413   2.264   1.164 -0.3699  0.1918  0.0510
16246TIP3    H170229   0.350   2.195   1.141  0.0970 -0.0389 -0.5437
16246TIP3    H270230   0.408   2.270   1.260 -0.7630 -0.3306  0.0659
16247TIP3   OH270231   3.795   4.139   0.256  0.4799  0.3710  0.2272
16247TIP3    H170232   3.795   4.124   0.161 -1.6169 -0.7977  0.3494
16247TIP3    H270233   3.887   4.143   0.280  1.0491  1.2260 -1.9312
16248TIP3   OH270234   5.695   0.039   2.551  0.6173 -0.1636 -0.3201
16248TIP3    H170235   5.741   0.116   2.518 -0.5849  1.5014  1.6244
16248TIP3    H270236   5.753   0.005   2.620  0.5730 -0.2290 -0.3153
16249TIP3   OH270237   5.729   5.550  11.762  0.2335  0.2350  0.3259
16249TIP3    H170238   5.792   5.576  11.695  0.2832 -0.6238  0.0365
16249TIP3    H270239   5.700   5.633  11.800  1.7271  0.6510  0.6483
16250TIP3   OH270240   5.746   1.295  14.225  0.9990 -0.4175  0.2486
16250TIP3    H170241   5.727   1.385  14.199 -0.6585  0.0645  2.7919
16250TIP3    H270242   5.670   1.245  14.196  0.4170 -0.3575  1.5661
16251TIP3   OH270243   4.411   4.601  14.593  0.0270  0.0902  0.1123
16251TIP3    H170244   4.432   4.580  14.684 -0.0935  0.5375  0.2499
16251TIP3    H270245   4.338   4.544  14.571 -0.3561  0.4154  0.5048
16252TIP3   OH270246   5.823   2.706  12.780 -0.8245  0.1090 -0.1622
16252TIP3    H170247   5.895   2.769  12.771  0.8298 -1.8230 -1.1600
16252TIP3    H270248   5.792   2.719  12.869  1.1717  0.6237  0.5245
16253TIP3   OH270249   5.204   5.905   1.010  0.0973  0.4174  0.5637
16253TIP3    H170250   5.268   5.905   1.081 -0.9961 -0.0250  1.5673
16253TIP3    H270251   5.143   5.836   1.032 -1.1107  1.2564 -0.0452
16254TIP3   OH270252   0.317   5.159  11.666  0.1337  0.2586  0.5901
16254TIP3    H170253   0.330   5.116  11.750 -0.8675 -1.8148 -0.2375
16254TIP3    H270254   0.224   5.178  11.663  0.2333  0.6954  0.1328
16255TIP3   OH270255   5.884   3.990   0.385  0.8727  0.6875 -0.0361
16255TIP3    H170256   5.874   3.898   0.358  0.6869  0.6486  0.1537
16255TIP3    H270257   5.951   4.025   0.328  1.2731  0.3034  0.1917
16256TIP3   OH270258   0.665   5.229  10.288  0.1258 -0.2932 -0.4218
16256TIP3    H170259   0.680   5.232  10.194 -1.1117  1.8510 -0.5999
16256TIP3    H270260   0.751   5.206  10.325  1.6268  2.4528 -1.8787
16257TIP3   OH270261   3.706   0.425   1.159  0.6220 -0.1476 -0.0203
16257TIP3    H170262   3.750   0.498   1.116 -1.5348  1.3488  0.1624
16257TIP3    H270263   3.717   0.442   1.253  0.2459 -0.1264  0.0220
16258TIP3   OH270264   6.128   0.231   4.333  0.1845  0.4406 -0.1580
16258TIP3    H170265   6.067   0.159   4.316  2.1586 -1.2219 -0.7112
16258TIP3    H270266   6.132   0.237   4.428 -0.4691  0.2234 -0.1136
16259TIP3   OH270267   4.207   6.611  13.418 -0.8872 -0.1954 -0.0853
16259TIP3    H170268   4.140   6.572  13.473 -0.3829 -1.0211 -0.0363
16259TIP3    H270269   4.167   6.690  13.382 -0.9058  0.9079  2.2111
16260TIP3   OH270270   1.879   2.115   6.340  0.0074 -0.0896 -0.2097
16260TIP3    H170271   1.813   2.082   6.401  0.3439 -1.0650 -0.3557
16260TIP3    H270272   1.841   2.099   6.253  0.7559 -1.4287 -0.3208
16261TIP3   OH270273   6.764   4.494  10.521 -0.1008 -0.0832  0.1448
16261TIP3    H170274   6.730   4.409  10.495 -0.1903 -0.2449  0.7775
16261TIP3    H270275   6.792   4.535  10.439 -1.6084 -0.0307 -0.3764
16262TIP3   OH270276   0.907   0.034  14.743  0.2691  0.1068 -0.4044
16262TIP3    H170277   0.981   0.088  14.714  1.7821 -1.9128 -0.4892
16262TIP3    H270278   0.942  -0.055  14.746 -1.8983 -0.7714  0.5759
16263TIP3   OH270279   0.957   6.471  15.217  0.2226 -0.1730  0.4101
16263TIP3    H170280   0.998   6.480  15.303 -0.4491 -0.2624  0.7492
16263TIP3    H270281   0.910   6.554  15.205  3.3695  1.5354 -1.5796
16264TIP3   OH270282   3.418   0.975  14.107 -0.4095  0.0054 -0.1210
16264TIP3    H170283   3.496   1.012  14.149 -0.5524  0.9128 -0.6179
16264TIP3    H270284   3.363   0.946  14.180 -0.7409  1.7216  0.3673
16265TIP3   OH270285   4.480   3.073  12.627  0.4628  0.1435  0.0533
16265TIP3    H170286   4.536   3.000  12.653 -1.4984 -1.1747  0.8268
16265TIP3    H270287   4.446   3.108  12.709 -1.5264 -0.5348 -0.4118
16266TIP3   OH270288   0.132   2.142  16.860 -0.2386  0.7893  0.2306
16266TIP3    H170289   0.198   2.162  16.926 -0.5815  1.5995  0.3475
16266TIP3    H270290   0.048   2.159  16.904 -0.4832  0.9318 -0.2812
16267TIP3   OH270291   3.596   3.673   1.786  0.8253 -0.1810  0.2443
16267TIP3    H170292   3.565   3.588   1.819  0.7620 -0.7889 -1.2565
16267TIP3    H270293   3.538   3.691   1.711  3.5195 -0.9915 -2.2118
16268TIP3   OH270294   0.105   4.387   5.062 -0.4916  0.2350 -0.3175
16268TIP3    H170295   0.196   4.392   5.032 -0.2354 -0.2861  0.3378
16268TIP3    H270296   0.057   4.348   4.989 -0.5224  2.0671 -1.3221
16269TIP3   OH270297   0.421   1.115   0.632 -0.0941  0.6771 -0.3645
16269TIP3    H170298   0.428   1.143   0.723  0.0914  1.8956 -0.7480
16269TIP3    H270299   0.497   1.058   0.619  0.2429  1.0273  0.0531
16270TIP3   OH270300   2.895   5.957   1.511 -0.2747 -0.1781  0.0494
16270TIP3    H170301   2.818   5.914   1.548 -0.2362 -1.8034 -1.6231
16270TIP3    H270302   2.918   6.025   1.575  0.0993 -3.0621  3.2710
16271TIP3   OH270303   4.996   3.169  12.678 -0.2969 -0.1771 -0.0037
16271TIP3    H170304   5.086   3.137  12.690  0.8792  1.7835 -2.5121
16271TIP3    H270305   4.966   3.125  12.598 -0.7745  0.6736 -0.3044
16272TIP3   OH270306   4.345   4.781   2.163 -0.3173  0.1195 -0.2759
16272TIP3    H170307   4.382   4.749   2.081  0.7506 -1.9296  0.9174
16272TIP3    H270308   4.251   4.783   2.147 -0.1456 -0.4613 -1.4784
16273TIP3   OH270309   5.404   0.608  13.622  0.2688  0.5508  0.3429
16273TIP3    H170310   5.357   0.680  13.580 -1.9283 -0.2512  1.2940
16273TIP3    H270311   5.345   0.578  13.691  1.4380 -1.6770  0.4521
16274TIP3   OH270312   4.861   6.609   1.665 -0.2398 -0.1312  0.4770
16274TIP3    H170313   4.896   6.586   1.579  0.7985 -2.1433  1.3864
16274TIP3    H270314   4.769   6.629   1.649  0.3588  1.4425 -1.3649
16275TIP3   OH270315   4.959   3.868  15.516  0.3839  0.1816  0.5790
16275TIP3    H170316   4.881   3.924  15.518  0.6144  0.4857  1.2016
16275TIP3    H270317   5.014   3.901  15.587  0.2721 -1.2135  1.3373
16276TIP3   OH270318   2.958   1.570  16.739  0.0418  0.3041 -0.5908
16276TIP3    H170319   2.863   1.568  16.755  0.0032 -3.4627 -0.4997
16276TIP3    H270320   2.967   1.548  16.646  0.8059 -0.9379 -0.2434
16277TIP3   OH270321   3.730   4.129  15.713 -0.1739  0.1794  0.1120
16277TIP3    H170322   3.804   4.135  15.652 -0.4061  0.2689 -0.1639
16277TIP3    H270323   3.739   4.042  15.753 -0.1239  0.0457 -0.1856
16278TIP3   OH270324   5.502   5.180   5.022  0.3817 -0.5026 -0.0316
16278TIP3    H170325   5.590   5.151   5.043 -0.4956 -1.4174  2.8809
16278TIP3    H270326   5.497   5.269   5.056  0.2470 -0.3823 -0.3641
16279TIP3   OH270327   4.790   0.238   0.490 -0.6160  0.2679  0.3627
16279TIP3    H170328   4.792   0.174   0.561 -1.8210  0.9214  1.0240
16279TIP3    H270329   4.699   0.267   0.487 -0.7850 -0.2884 -1.9679
16280TIP3   OH270330   2.959   6.523  16.051  0.1664 -0.2182  0.6002
16280TIP3    H170331   2.881   6.560  16.008  0.6747 -0.2202 -0.3240
16280TIP3    H270332   3.019   6.504  15.980  0.8950 -0.5215  1.2924
16281TIP3   OH270333   6.075   5.454   1.421 -0.1659 -0.2039  0.1511
16281TIP3    H170334   6.033   5.475   1.338  0.3638  1.8169  0.3404
16281TIP3    H270335   6.082   5.358   1.421 -1.2387 -0.3221 -1.5820
16282TIP3   OH270336   4.712   3.281  16.446  0.0988  0.3041  0.0032
16282TIP3    H170337   4.767   3.294  16.523 -0.8287 -0.6777  0.8522
16282TIP3    H270338   4.772   3.250  16.378  0.3753 -2.7431  1.4707
16283TIP3   OH270339   6.130   1.847  16.320 -0.1013  0.9056  0.3592
16283TIP3    H170340   6.164   1.787  16.386  0.5050  1.0744  0.2129
16283TIP3    H270341   6.162   1.933  16.347  0.8274  0.8801 -0.5529
16284TIP3   OH270342   1.035   5.428   4.308 -0.2513 -0.0692  0.2474
16284TIP3    H170343   1.048   5.469   4.223 -0.0825  0.1168  0.3588
16284TIP3    H270344   1.117   5.446   4.356 -0.3758 -0.1012  0.4752
16285TIP3   OH270345   3.806   2.613  15.066 -0.4835  0.1954 -0.2817
16285TIP3    H170346   3.892   2.654  15.075 -0.5732  0.7951 -1.9025
16285TIP3    H270347   3.821   2.520  15.085  0.1380  0.5784  1.2791
16286TIP3   OH270348   2.620   3.362   3.797  0.1602  0.2701  0.3622
16286TIP3    H170349   2.715   3.368   3.782 -0.0844  0.8217 -1.1326
16286TIP3    H270350   2.584   3.439   3.753 -1.1909 -1.1102 -1.0880
16287TIP3   OH270351   2.448   2.617  11.711 -0.0560  0.3433  0.0180
16287TIP3    H170352   2.368   2.664  11.685 -0.1071  0.7730  0.9017
16287TIP3    H270353   2.441   2.610  11.806 -1.2026 -3.5553 -0.1803
16288TIP3   OH270354   3.643   2.666  16.368 -0.7652 -0.3490  0.0878
16288TIP3    H170355   3.636   2.675  16.463  1.2451  1.4543  0.1232
16288TIP3    H270356   3.589   2.736  16.332  1.3041  1.3389  0.0482
16289TIP3   OH270357   6.349   2.231   4.349  0.1279 -0.1804 -0.2764
16289TIP3    H170358   6.344   2.288   4.425  0.7293 -1.2781  0.6075
16289TIP3    H270359   6.436   2.190   4.355  0.6261  0.4809 -2.1226
16290TIP3   OH270360   4.070   0.986  13.839 -0.5977  0.6107  0.1617
16290TIP3    H170361   4.122   0.934  13.900 -0.6218  1.2352  0.7192
16290TIP3    H270362   4.030   0.921  13.781 -1.7928 -0.1139  1.7411
16291TIP3   OH270363   1.671   1.771  11.437 -0.0347 -0.5803  0.1664
16291TIP3    H170364   1.692   1.826  11.361  1.3687 -0.5109  0.5688
16291TIP3    H270365   1.648   1.686  11.399  0.1913 -0.4116 -0.3615
16292TIP3   OH270366   2.994   6.773   3.431 -0.0950  0.1534  0.0802
16292TIP3    H170367   2.970   6.857   3.472 -0.8421  0.6785 -1.3890
16292TIP3    H270368   2.910   6.729   3.416  0.1195  0.1408 -1.1936
16293TIP3   OH270369   1.899   2.487  14.502 -0.3356  0.1826 -0.0379
16293TIP3    H170370   1.845   2.450  14.432 -0.5036  1.0935 -0.4067
16293TIP3    H270371   1.988   2.487  14.466 -0.2799 -0.1582  0.0924
16294TIP3   OH270372   5.705   2.606   1.628 -0.3097  0.9793  0.4424
16294TIP3    H170373   5.693   2.650   1.543 -2.3023  1.8098  1.0982
16294TIP3    H270374   5.796   2.578   1.627 -0.2564  0.9934 -1.9650
16295TIP3   OH270375   0.001   3.710  17.024 -0.4785  0.4316 -0.1037
16295TIP3    H170376  -0.012   3.723  17.118 -1.0779 -0.2902 -0.0777
16295TIP3    H270377  -0.057   3.773  16.983 -1.9253 -0.7626  0.0230
16296TIP3   OH270378   4.782   3.793   3.376  0.1537  0.7174  0.1081
16296TIP3    H170379   4.828   3.867   3.337 -0.1326 -0.0784 -1.8665
16296TIP3    H270380   4.695   3.795   3.336 -0.2347 -0.0235  0.8838
16297TIP3   OH270381   5.220   2.932  16.559 -0.5076 -0.5297  0.0023
16297TIP3    H170382   5.314   2.948  16.561 -0.5221 -0.4085 -0.2923
16297TIP3    H270383   5.199   2.901  16.648 -0.0528 -1.3443 -0.1654
16298TIP3   OH270384   0.220   2.881  15.416 -0.1939  0.5850 -0.3539
16298TIP3    H170385   0.269   2.950  15.372 -0.0382 -0.8556 -2.6180
16298TIP3    H270386   0.137   2.922  15.439 -1.4267  0.8736 -4.5084
16299TIP3   OH270387   1.776   5.807  14.248 -0.2821 -0.0323 -0.1568
16299TIP3    H170388   1.777   5.741  14.318 -0.8231 -1.1013 -1.1169
16299TIP3    H270389   1.865   5.842  14.247 -0.4830  0.5825  1.5846
16300TIP3   OH270390   1.776   4.732  12.727 -0.7950 -0.3410 -0.2572
16300TIP3    H170391   1.781   4.713  12.821 -1.4376 -1.5455 -0.4487
16300TIP3    H270392   1.737   4.819  12.722  0.0765  0.1169  0.6109
16301TIP3   OH270393   4.369   3.491  14.092 -0.1142 -0.0331 -0.0048
16301TIP3    H170394   4.451   3.450  14.121 -1.2835 -1.4387  1.5781
16301TIP3    H270395   4.345   3.443  14.013  0.5119  0.3124 -0.4161
16302TIP3   OH270396   5.045   5.707  13.805  0.0175  0.4489 -0.3746
16302TIP3    H170397   5.134   5.719  13.772  0.7823 -1.2785  0.9419
16302TIP3    H270398   5.055   5.683  13.897 -1.9101  1.8195  0.2776
16303TIP3   OH270399   1.914   3.136   0.483  0.0645  0.2370 -0.1302
16303TIP3    H170400   1.874   3.050   0.468  2.5729 -1.0696  0.2185
16303TIP3    H270401   1.853   3.197   0.442 -1.9125 -1.6581 -0.2177
16304TIP3   OH270402   4.848   1.343   4.653 -0.5132 -0.3957 -0.3495
16304TIP3    H170403   4.755   1.366   4.641  0.2699  2.5878 -1.5196
16304TIP3    H270404   4.882   1.412   4.710  2.2036  2.3112 -4.6439
16305TIP3   OH270405   4.501   3.267  12.004 -0.0171 -0.0561 -0.0033
16305TIP3    H170406   4.583   3.222  11.983 -0.4814 -0.7459 -0.3847
16305TIP3    H270407   4.478   3.313  11.924 -0.3465 -0.4161 -0.1186
16306TIP3   OH270408   4.551   2.130   1.608 -0.6163 -0.6716 -0.0156
16306TIP3    H170409   4.487   2.199   1.593  0.7481  0.0930 -3.1758
16306TIP3    H270410   4.506   2.049   1.586 -0.6311 -0.1601 -2.0167
16307TIP3   OH270411   3.893   6.465   1.110 -0.1648  0.6886  0.1548
16307TIP3    H170412   3.983   6.459   1.144 -0.3483 -0.1868  0.5273
16307TIP3    H270413   3.896   6.416   1.028 -0.7756 -1.2635  1.2351
16308TIP3   OH270414   0.259   1.885   5.213  0.6325 -0.9572  0.2824
16308TIP3    H170415   0.258   1.861   5.121  1.4283 -2.1119  0.5615
16308TIP3    H270416   0.301   1.971   5.216 -0.1112 -0.5489 -0.4891
16309TIP3   OH270417   3.045   3.891  13.146 -0.1628  0.1363 -0.1119
16309TIP3    H170418   3.080   3.819  13.094 -0.1004  0.6293 -0.7606
16309TIP3    H270419   3.121   3.923  13.196  0.3056  1.1252 -1.4261
16310TIP3   OH270420   3.657   1.190  12.481  0.2206  0.5855 -0.3666
16310TIP3    H170421   3.683   1.195  12.389  0.2225 -1.1095 -0.4900
16310TIP3    H270422   3.717   1.127  12.520 -1.3279 -0.6123  0.2046
16311TIP3   OH270423   6.645   3.417   1.218 -0.1856  0.0364  0.1448
16311TIP3    H170424   6.649   3.331   1.260 -1.2883  0.0432  0.3062
16311TIP3    H270425   6.636   3.479   1.290  0.7588  0.3029  0.0360
16312TIP3   OH270426   6.769   2.327  15.272 -0.3304  0.2939 -0.1120
16312TIP3    H170427   6.759   2.405  15.217  0.7584 -0.0028 -0.7357
16312TIP3    H270428   6.809   2.262  15.215  2.5192  0.5320  1.4582
16313TIP3   OH270429   5.802   5.707  16.448 -0.5414  0.4250  0.3105
16313TIP3    H170430   5.725   5.664  16.410  0.7289 -0.3211 -1.5445
16313TIP3    H270431   5.841   5.640  16.505 -1.5918  1.0408  1.8431
16314TIP3   OH270432   3.397   3.024  16.693 -0.2820  0.3971 -0.1333
16314TIP3    H170433   3.411   3.035  16.599  0.0520  1.4127  0.0319
16314TIP3    H270434   3.457   3.086  16.735 -0.6573  0.1878  0.7500
16315TIP3   OH270435   5.485   5.481  10.344 -0.5063  0.0831 -0.0567
16315TIP3    H170436   5.421   5.419  10.309  0.0262 -1.7887  2.0551
16315TIP3    H270437   5.453   5.501  10.432  0.6793  0.7916  0.2302
16316TIP3   OH270438   4.827   0.072   1.700 -0.0802 -0.3741  0.2975
16316TIP3    H170439   4.868   0.106   1.621 -1.3608  2.8817  0.8987
16316TIP3    H270440   4.884  -0.000   1.727  1.8537  0.1164 -2.1100
16317TIP3   OH270441   2.337   5.480   3.200  0.7115  0.2372  0.3103
16317TIP3    H170442   2.267   5.414   3.194  0.6575  0.2616  0.6529
16317TIP3    H270443   2.322   5.536   3.124  0.8256 -0.2066 -0.0481
16318TIP3   OH270444   4.166   2.590   1.420  0.6000 -0.3615  0.2078
16318TIP3    H170445   4.229   2.545   1.363 -0.8405 -0.2847 -1.5418
16318TIP3    H270446   4.214   2.664   1.455  1.4101 -0.0732 -1.4055
16319TIP3   OH270447   4.969   5.482   4.346 -0.1208  0.5249  0.0826
16319TIP3    H170448   4.910   5.523   4.409  0.4964  0.9270  0.4017
16319TIP3    H270449   4.967   5.389   4.369  0.7852  0.7798  1.2787
16320TIP3   OH270450   0.647   6.407  14.473 -0.3318  0.4535 -0.2300
16320TIP3    H170451   0.631   6.493  14.513 -2.9307 -1.2658  2.9703
16320TIP3    H270452   0.716   6.369  14.527 -0.9086 -0.3247 -0.0222
16321TIP3   OH270453   5.497   0.832   4.942 -0.1182  0.1717 -0.7436
16321TIP3    H170454   5.489   0.905   5.003 -2.1246 -0.2088 -0.4805
16321TIP3    H270455   5.571   0.781   4.975  0.5375  1.4220 -0.2297
16322TIP3   OH270456   3.617   1.439   2.000  0.4164  0.2550 -0.2364
16322TIP3    H170457   3.653   1.526   2.018  0.8296  0.0762 -0.1872
16322TIP3    H270458   3.579   1.410   2.083 -2.8719  1.8207 -1.0384
16323TIP3   OH270459   5.362   1.532   1.148  0.8213  0.4624  0.4802
16323TIP3    H170460   5.288   1.583   1.116  1.0647  1.0415  0.8285
16323TIP3    H270461   5.438   1.589   1.135  1.2339 -0.1824 -0.0111
16324TIP3   OH270462   4.620   3.725  13.911  0.0623  0.5082  0.6873
16324TIP3    H170463   4.688   3.755  13.851  0.4306  0.3752  1.0271
16324TIP3    H270464   4.540   3.767  13.880 -0.2962 -1.5709 -1.4813
16325TIP3   OH270465   0.267   0.140  13.293  0.4032 -0.2750 -0.2091
16325TIP3    H170466   0.282   0.105  13.205  3.3076  1.3626 -0.5130
16325TIP3    H270467   0.334   0.099  13.347 -1.7411 -1.7417  1.4793
16326TIP3   OH270468   3.286   1.691   3.935 -0.2834  0.1042  0.4438
16326TIP3    H170469   3.292   1.647   3.850 -0.0710  1.4648 -0.2661
16326TIP3    H270470   3.192   1.693   3.955 -0.4038  0.5300 -0.1651
16327TIP3   OH270471   6.349   4.082  16.866  0.2077 -0.0382  0.0414
16327TIP3    H170472   6.291   4.031  16.923 -0.2762  0.7986  0.3100
16327TIP3    H270473   6.434   4.080  16.909  0.1251 -0.3704  0.1950
16328TIP3   OH270474   0.340   5.253   4.071  0.3835 -0.5407 -0.1850
16328TIP3    H170475   0.311   5.231   4.160 -0.0515  0.8178  0.0253
16328TIP3    H270476   0.270   5.219   4.015  0.1747 -0.5249  0.0604
16329TIP3   OH270477   0.285   2.007  13.681  0.3502  0.4121  0.4180
16329TIP3    H170478   0.332   2.036  13.602 -1.3056  1.0933 -0.3614
16329TIP3    H270479   0.193   2.019  13.660 -0.1699 -0.1795  2.1798
16330TIP3   OH270480   4.401   0.564  13.194  0.3492 -0.0604  0.0049
16330TIP3    H170481   4.489   0.590  13.167  1.2318 -0.7126  2.0501
16330TIP3    H270482   4.392   0.473  13.164  0.2552  0.0807 -0.4093
16331TIP3   OH270483   3.229   5.890   1.203  0.4132  0.0293  0.0577
16331TIP3    H170484   3.224   5.850   1.290  2.5741 -1.0929 -0.2822
16331TIP3    H270485   3.303   5.951   1.209  0.3234  0.2403 -0.8853
16332TIP3   OH270486   0.792   5.054  14.002 -0.3559  0.3840 -0.1159
16332TIP3    H170487   0.846   4.986  14.041 -0.3131 -0.9366 -2.3308
16332TIP3    H270488   0.848   5.131  14.001  0.3371 -0.0920  0.5032
16333TIP3   OH270489   2.531   5.921  14.252 -0.2771 -0.2803  0.9969
16333TIP3    H170490   2.588   5.945  14.325 -0.7114 -0.8473  1.5388
16333TIP3    H270491   2.546   5.989  14.186  1.1349 -0.4953  1.0589
16334TIP3   OH270492   0.339   6.608  14.377 -0.0237 -0.2653 -0.5723
16334TIP3    H170493   0.405   6.603  14.446  0.5315  0.6478 -1.0151
16334TIP3    H270494   0.278   6.676  14.406 -0.2974 -0.5100 -0.5658
16335TIP3   OH270495   4.440   4.912  13.014 -0.1956  0.5626  0.1449
16335TIP3    H170496   4.433   4.831  12.964  0.2953  1.8379 -2.1318
16335TIP3    H270497   4.534   4.922  13.030 -0.3019  0.4344  0.8878
16336TIP3   OH270498   3.605   3.855  14.695 -0.9336 -0.5695 -0.3442
16336TIP3    H170499   3.649   3.845  14.611  0.2314  3.5990 -0.4743
16336TIP3    H270500   3.526   3.906  14.675 -1.7172 -1.2580  0.8671
16337TIP3   OH270501   0.322   0.282   0.628  0.3522 -0.1406  0.5872
16337TIP3    H170502   0.272   0.206   0.658 -0.8862  0.4493  0.1131
16337TIP3    H270503   0.360   0.254   0.544 -1.6301  0.3000 -0.5350
16338TIP3   OH270504   1.260   4.002   2.854 -0.4775 -0.0083  0.3880
16338TIP3    H170505   1.249   3.946   2.777  1.2435  0.1516 -0.0289
16338TIP3    H270506   1.265   4.090   2.819  0.3655  0.0612  0.6638
16339TIP3   OH270507   4.241   5.985  13.148  0.9450 -0.1058  0.3079
16339TIP3    H170508   4.236   5.935  13.066 -0.7837  2.2055 -1.1384
16339TIP3    H270509   4.150   5.991  13.178  1.2420  1.1796  1.0287
16340TIP3   OH270510   4.636   4.851  13.633 -0.0414 -0.2672  0.3550
16340TIP3    H170511   4.571   4.798  13.588  2.0809  0.3097 -3.9915
16340TIP3    H270512   4.595   4.937  13.643 -0.7100 -0.4841 -0.4115
16341TIP3   OH270513   4.690   1.003  10.549 -0.4174  0.2168  0.3125
16341TIP3    H170514   4.768   1.055  10.567  0.0337 -0.8820  1.7276
16341TIP3    H270515   4.722   0.912  10.547 -1.7962 -0.3650  2.0669
16342TIP3   OH270516   6.495   0.596   0.696  0.3602  0.0651 -0.4956
16342TIP3    H170517   6.428   0.644   0.648 -0.5073  0.5715  1.1269
16342TIP3    H270518   6.530   0.533   0.633 -0.8290  0.5665 -1.7105
16343TIP3   OH270519   3.672   5.015  14.665 -0.2729 -0.1000 -0.2734
16343TIP3    H170520   3.727   4.943  14.634  2.2124  0.3525  2.6039
16343TIP3    H270521   3.587   4.974  14.682 -0.2350 -1.3464 -2.7246
16344TIP3   OH270522   4.399   3.779  12.482 -0.3855 -0.1859 -0.5226
16344TIP3    H170523   4.490   3.766  12.512 -0.6997  0.0435  0.5897
16344TIP3    H270524   4.351   3.708  12.522 -0.9502  0.5391  0.1173
16345TIP3   OH270525   1.666   3.993   0.864  0.2121  0.1241  0.2136
16345TIP3    H170526   1.609   4.059   0.827  0.9602  0.1141 -1.0026
16345TIP3    H270527   1.688   3.935   0.791 -1.3773 -2.2238  1.4575
16346TIP3   OH270528   3.182   5.530  12.117  0.3238 -0.9163  0.1368
16346TIP3    H170529   3.093   5.560  12.139  0.2763 -1.1739  0.2948
16346TIP3    H270530   3.239   5.596  12.155  0.2055 -0.8188  0.1472
16347TIP3   OH270531   6.571   1.392  13.803 -0.5330  0.7806 -0.2821
16347TIP3    H170532   6.506   1.452  13.767 -1.9680 -0.4054  0.2518
16347TIP3    H270533   6.549   1.385  13.896  0.2484  0.2194 -0.1289
16348TIP3   OH270534   2.070   6.186  14.789  0.3050  0.6093 -0.6772
16348TIP3    H170535   2.142   6.205  14.848  0.6607 -1.2474 -0.4422
16348TIP3    H270536   1.991   6.195  14.843  0.7067 -3.0668  0.8224
16349TIP3   OH270537   4.927   6.702  16.493  0.1455  0.1812 -0.1593
16349TIP3    H170538   5.013   6.709  16.536  0.2237 -0.3801 -0.2199
16349TIP3    H270539   4.941   6.740  16.406  0.7830 -1.4009 -0.7832
16350TIP3   OH270540   0.936   4.995   4.045  0.1042  0.2748 -0.4750
16350TIP3    H170541   0.963   5.034   3.963  0.0148 -1.3481 -1.3187
16350TIP3    H270542   0.895   5.066   4.094  0.9936  1.4750 -1.4362
16351TIP3   OH270543   0.413   6.539   3.924 -0.2938 -0.1266 -0.2700
16351TIP3    H170544   0.425   6.447   3.900  0.3345 -0.2600  0.5132
16351TIP3    H270545   0.442   6.544   4.016  0.7649  1.0799 -0.6445
16352TIP3   OH270546   5.020   2.806  13.698  0.3487 -0.6438 -0.1244
16352TIP3    H170547   4.975   2.728  13.666  0.8542 -0.9196 -0.1752
16352TIP3    H270548   5.085   2.773  13.760  1.8036 -0.4498 -1.4842
16353TIP3   OH270549   4.107   3.940  15.152  0.0759  0.6296  0.1339
16353TIP3    H170550   4.026   3.992  15.147  0.4328  1.1373 -0.4538
16353TIP3    H270551   4.169   3.986  15.095  0.0641 -1.0775 -1.3498
16354TIP3   OH270552   2.582   5.694  11.333  0.3482  0.0412  0.6265
16354TIP3    H170553   2.582   5.712  11.427  1.0038  2.3849  0.2432
16354TIP3    H270554   2.493   5.713  11.305  0.4408  0.4151  0.5898
16355TIP3   OH270555   1.924   3.080  16.363 -0.5974 -0.4926  0.4787
16355TIP3    H170556   1.966   2.994  16.360 -1.5684 -1.0576  1.9432
16355TIP3    H270557   1.983   3.134  16.416 -1.1160 -0.9453  1.5354
16356TIP3   OH270558   6.143   3.629   3.293  0.2598  0.7066  0.0329
16356TIP3    H170559   6.167   3.537   3.306 -1.3629 -0.0459 -1.8043
16356TIP3    H270560   6.092   3.651   3.371  1.0206  0.1837  0.6882
16357TIP3   OH270561   6.001   1.182   3.695  0.4327  0.8970  0.4939
16357TIP3    H170562   5.964   1.257   3.741  0.0370  1.5103 -0.7836
16357TIP3    H270563   6.084   1.213   3.659 -0.2737  1.1236 -1.0368
16358TIP3   OH270564   1.728   6.277  11.650  0.1046  0.6490  1.3219
16358TIP3    H170565   1.823   6.288  11.654  0.0173  2.5482 -0.1380
16358TIP3    H270566   1.693   6.362  11.676 -1.1829  0.2101  1.1151
16359TIP3   OH270567   4.622   0.866   1.483  0.0232  0.0718 -0.5362
16359TIP3    H170568   4.669   0.945   1.510 -0.0817  0.3251 -1.0693
16359TIP3    H270569   4.638   0.804   1.553 -0.6664  0.8671  0.3439
16360TIP3   OH270570   1.838   1.355  11.193 -0.5895  0.0836 -0.4302
16360TIP3    H170571   1.897   1.430  11.190  0.6624 -0.8728 -0.5436
16360TIP3    H270572   1.885   1.291  11.247 -0.8595 -1.2488 -1.7265
16361TIP3   OH270573   4.992   3.560   6.601  0.1152  0.4968 -0.3366
16361TIP3    H170574   5.002   3.627   6.670 -2.8030  2.1274 -1.3268
16361TIP3    H270575   5.005   3.477   6.647  1.1078  1.6025  1.5386
16362TIP3   OH270576   6.788   0.600   1.980 -0.1554 -0.2696 -0.0251
16362TIP3    H170577   6.834   0.532   1.932  0.0879  0.7124 -1.2129
16362TIP3    H270578   6.785   0.568   2.070  1.9939 -0.7950 -0.1010
16363TIP3   OH270579   2.165   1.277   2.330  0.8737 -0.0090  0.0212
16363TIP3    H170580   2.198   1.356   2.374  2.0266 -1.2838  1.5359
16363TIP3    H270581   2.166   1.299   2.237  2.4643  1.3041  0.3118
16364TIP3   OH270582   0.864   1.703   3.330  0.2730  0.0127 -0.1022
16364TIP3    H170583   0.923   1.752   3.389 -0.8849  0.3639  0.8012
16364TIP3    H270584   0.819   1.771   3.280  1.6892 -0.2983 -1.9012
16365TIP3   OH270585   3.562   4.814   2.796  0.1486 -0.2839  0.5598
16365TIP3    H170586   3.638   4.838   2.743  1.0597 -0.1400  1.8835
16365TIP3    H270587   3.577   4.722   2.817 -0.0828 -0.2713  0.7724
16366TIP3   OH270588   4.788   3.870  11.836 -0.1705  0.0498 -0.4213
16366TIP3    H170589   4.724   3.894  11.769 -0.2728 -2.6667 -1.4120
16366TIP3    H270590   4.747   3.799  11.885  1.7351 -1.2985 -0.6483
16367TIP3   OH270591   2.489   3.938  11.954 -0.2315 -0.3786  0.3134
16367TIP3    H170592   2.487   3.870  11.887  0.6562 -0.0075 -0.1009
16367TIP3    H270593   2.402   3.979  11.949  0.3791  0.8064 -1.8361
16368TIP3   OH270594   1.466   1.843  14.710 -0.4185 -0.6983  0.3000
16368TIP3    H170595   1.412   1.921  14.711  0.0834 -0.3505  0.4830
16368TIP3    H270596   1.498   1.837  14.619  0.6683  0.0995  0.6135
16369TIP3   OH270597   3.020   0.659  11.562 -0.1130 -0.6526 -0.2814
16369TIP3    H170598   3.016   0.616  11.647 -1.1025  0.0401  0.0347
16369TIP3    H270599   2.929   0.682  11.542  0.3467  1.0395 -0.5575
16370TIP3   OH270600   0.677   1.837  14.076 -0.1602  0.1440  0.2538
16370TIP3    H170601   0.646   1.791  14.154  0.9254 -1.1073 -0.0019
16370TIP3    H270602   0.651   1.928  14.089  0.5161  0.0947  2.3768
16371TIP3   OH270603   5.190   0.131   0.138 -0.2942  0.0712 -0.1208
16371TIP3    H170604   5.150   0.168   0.217  2.3431  3.3832 -0.1397
16371TIP3    H270605   5.231   0.205   0.095  3.1744 -2.4870 -1.6770
16372TIP3   OH270606   1.422   5.597  12.101 -0.3678  0.3999 -0.2647
16372TIP3    H170607   1.419   5.653  12.023 -0.8764  0.6893 -0.0464
16372TIP3    H270608   1.335   5.558  12.106 -0.4319  0.6015  0.3111
16373TIP3   OH270609   1.663   4.709  14.986 -0.0320 -0.0212 -0.2490
16373TIP3    H170610   1.717   4.634  15.012  0.5691  0.2146 -0.7966
16373TIP3    H270611   1.640   4.751  15.069  0.2613 -0.3754  0.0189
16374TIP3   OH270612   5.664   0.272   0.111  0.0705  0.0802 -0.0769
16374TIP3    H170613   5.687   0.245   0.200 -0.5323 -1.4978 -0.3725
16374TIP3    H270614   5.587   0.328   0.123 -1.3392 -1.8290  0.3050
16375TIP3   OH270615   1.120   3.155   1.488  0.0333  0.5499 -0.0088
16375TIP3    H170616   1.133   3.060   1.497 -1.5906  0.3795  1.1407
16375TIP3    H270617   1.208   3.192   1.491  0.8617 -1.0106 -2.3791
16376TIP3   OH270618   1.717   0.440  16.707  0.6385 -0.0203  0.7993
16376TIP3    H170619   1.711   0.381  16.782  0.9880 -1.7219 -0.4471
16376TIP3    H270620   1.810   0.444  16.687  0.4298 -1.0568 -0.5927
16377TIP3   OH270621   1.838   4.688   3.910  0.1254  0.1306 -0.2849
16377TIP3    H170622   1.857   4.762   3.968 -0.1786 -0.2091  0.2627
16377TIP3    H270623   1.856   4.611   3.964 -0.8746 -0.1946 -0.3907
16378TIP3   OH270624   3.449   4.659   4.297  0.1096 -0.4787  0.0766
16378TIP3    H170625   3.475   4.621   4.214  0.5535 -0.4280  0.1876
16378TIP3    H270626   3.361   4.695   4.282  0.2164 -0.4117 -0.3832
16379TIP3   OH270627   3.376   6.673  11.683 -0.0168 -0.3950  0.7595
16379TIP3    H170628   3.388   6.636  11.595  0.2215 -0.6294  0.8890
16379TIP3    H270629   3.290   6.716  11.679 -0.3704 -1.0797  0.6356
16380TIP3   OH270630   0.871   1.002  12.976  0.2996 -0.1675 -0.0156
16380TIP3    H170631   0.869   1.044  12.890 -0.3701 -0.6304 -0.2416
16380TIP3    H270632   0.889   0.910  12.957 -0.1845 -0.3354  0.3081
16381TIP3   OH270633   3.236   0.839  12.847 -0.3140 -0.1163  0.8041
16381TIP3    H170634   3.263   0.794  12.767 -1.1950  0.8847 -0.1038
16381TIP3    H270635   3.317   0.850  12.897  0.5647  0.6077 -0.6841
16382TIP3   OH270636   5.759   2.047   4.140 -0.0724 -0.5412  0.3985
16382TIP3    H170637   5.803   2.005   4.066 -0.5164 -2.3950  1.1289
16382TIP3    H270638   5.677   2.081   4.104 -0.5736 -1.9848  0.1349
16383TIP3   OH270639   1.394   0.199   5.644 -0.5306  0.3615  0.2189
16383TIP3    H170640   1.338   0.179   5.718 -0.8163  1.1220  0.2114
16383TIP3    H270641   1.334   0.229   5.575 -0.0950  1.7270  0.3955
16384TIP3   OH270642   0.519   6.230   0.325  0.4204 -0.4264 -0.3018
16384TIP3    H170643   0.481   6.144   0.308 -0.6419  0.3103 -1.9148
16384TIP3    H270644   0.581   6.216   0.396 -0.2333 -2.3816 -0.0794
16385TIP3   OH270645   2.045   0.578   4.185 -0.5967 -0.7771 -0.0996
16385TIP3    H170646   2.106   0.519   4.229 -0.2349  0.5567  1.2634
16385TIP3    H270647   2.101   0.645   4.147 -1.1644  0.2151  0.7810
16386TIP3   OH270648   1.476   6.601  15.891 -0.3802 -0.1603  0.4930
16386TIP3    H170649   1.407   6.667  15.886  0.9977  1.2482 -2.1219
16386TIP3    H270650   1.555   6.650  15.911  0.1342 -1.5956  2.2626
16387TIP3   OH270651   1.176   1.835   5.495 -0.5949  0.5062 -0.2599
16387TIP3    H170652   1.120   1.819   5.571 -1.5512 -0.1542 -1.0676
16387TIP3    H270653   1.143   1.774   5.428 -1.2038  2.5382 -1.9124
16388TIP3   OH270654   5.459   4.063  12.242 -0.0771 -0.1970  0.0523
16388TIP3    H170655   5.382   4.110  12.274 -0.0227 -0.0564 -0.0249
16388TIP3    H270656   5.425   3.976  12.220  0.0655 -0.5953  1.3588
16389TIP3   OH270657   3.742   6.809  16.764 -0.2299  0.1642 -0.6754
16389TIP3    H170658   3.650   6.805  16.740 -0.0837  0.5354 -1.3330
16389TIP3    H270659   3.773   6.891  16.726  0.1265  0.5677  0.4346
16390TIP3   OH270660   6.501   2.077  16.589  0.0481  0.4795 -0.3918
16390TIP3    H170661   6.479   2.103  16.679  1.7408  0.6611  0.0073
16390TIP3    H270662   6.466   2.148  16.534 -0.9601  0.3893  0.1206
16391TIP3   OH270663   1.361   1.163  13.325 -0.0810  0.2301 -0.2219
16391TIP3    H170664   1.316   1.191  13.405  0.1294  0.9869 -0.3613
16391TIP3    H270665   1.319   1.213  13.255  0.7203  0.6698 -0.4003
16392TIP3   OH270666   2.573   4.951   3.787  0.6444  0.0352  0.4585
16392TIP3    H170667   2.553   5.042   3.766 -2.3339 -0.9276 -1.4738
16392TIP3    H270668   2.621   4.956   3.870  0.1841  3.3208  0.6661
16393TIP3   OH270669   1.120   5.698  17.130  0.5682 -0.1154 -0.4366
16393TIP3    H170670   1.127   5.781  17.082 -0.3612  0.8756  1.0531
16393TIP3    H270671   1.049   5.651  17.087 -1.1362  1.3213  0.6666
16394TIP3   OH270672   3.029   3.627  13.728  0.0649 -0.7028 -0.5821
16394TIP3    H170673   2.984   3.681  13.663  1.2472  0.2582 -0.6533
16394TIP3    H270674   2.985   3.646  13.810 -0.5722 -0.8899 -0.8720
16395TIP3   OH270675   2.571   5.238   2.085  0.1951  0.0328  0.1301
16395TIP3    H170676   2.489   5.207   2.124  1.5394 -1.3059  2.0325
16395TIP3    H270677   2.627   5.161   2.084  1.7626  1.1477 -0.2535
16396TIP3   OH270678   1.583   3.995  11.194  0.0346 -0.3521  0.3092
16396TIP3    H170679   1.665   3.964  11.232 -0.0461  0.8963  1.5630
16396TIP3    H270680   1.520   3.925  11.214  0.3019 -0.3235  1.3213
16397TIP3   OH270681   4.393   5.141   0.332 -0.2734  0.1869 -0.1649
16397TIP3    H170682   4.312   5.192   0.332 -0.2720  0.2007  0.9431
16397TIP3    H270683   4.378   5.072   0.397  0.0559 -0.7131 -1.0115
16398TIP3   OH270684   6.007   5.070  12.659 -0.6399 -0.5870  0.1681
16398TIP3    H170685   6.001   4.980  12.627 -0.9200 -0.2766 -0.6925
16398TIP3    H270686   6.101   5.086  12.670 -0.6520 -1.5248  1.9801
16399TIP3   OH270687   6.795   1.635  11.647  0.2362  0.3153 -0.1952
16399TIP3    H170688   6.871   1.694  11.651  0.0566  0.5229  0.2890
16399TIP3    H270689   6.721   1.689  11.674  0.1565 -0.2665  0.8000
16400TIP3   OH270690   5.578   6.404  13.504 -0.0481  0.4536 -0.0043
16400TIP3    H170691   5.610   6.315  13.488 -0.2257  0.4886 -0.5898
16400TIP3    H270692   5.607   6.454  13.427 -0.4143  0.7739  0.0631
16401TIP3   OH270693   4.934   3.370   0.310 -0.3449 -0.2418  0.0220
16401TIP3    H170694   4.899   3.456   0.286 -0.3801 -0.1247  0.4801
16401TIP3    H270695   5.029   3.379   0.302 -0.3635 -0.2383 -0.1877
16402TIP3   OH270696   5.879   6.115  12.746 -0.2730 -0.0271 -0.0062
16402TIP3    H170697   5.847   6.027  12.767 -0.0006  0.4557  2.9167
16402TIP3    H270698   5.854   6.168  12.822  0.4253  2.2075 -1.2478
16403TIP3   OH270699   5.907   4.874  14.511  0.3309  0.2113 -0.0219
16403TIP3    H170700   5.897   4.968  14.500 -0.0354  0.2156  0.3125
16403TIP3    H270701   5.883   4.858  14.602  1.6329 -0.0362  0.3054
16404TIP3   OH270702   1.417   5.779  16.406 -0.4548 -0.1047 -0.2206
16404TIP3    H170703   1.378   5.694  16.383 -1.4106  0.1737  0.2892
16404TIP3    H270704   1.460   5.808  16.326 -2.2138  0.0363 -1.1765
16405TIP3   OH270705   2.069   6.202  14.267 -0.4519 -0.0032  0.0152
16405TIP3    H170706   2.054   6.192  14.361  2.2926  0.0271  0.5305
16405TIP3    H270707   2.040   6.119  14.228  1.4638 -1.3606  1.3493
16406TIP3   OH270708   5.003   1.141   2.741 -0.1306  0.2731  0.0888
16406TIP3    H170709   5.005   1.230   2.704  0.5513 -0.3649 -1.4931
16406TIP3    H270710   5.045   1.087   2.674  1.1748 -0.9627  1.8224
16407TIP3   OH270711   2.283   5.355   5.286 -0.8541  0.1964  0.1223
16407TIP3    H170712   2.280   5.449   5.304 -0.3588  0.9080 -2.9846
16407TIP3    H270713   2.196   5.323   5.310 -1.5821  1.7954 -0.2934
16408TIP3   OH270714   1.348   4.318   3.923  0.3233  0.1304  0.1215
16408TIP3    H170715   1.277   4.359   3.874 -0.1802 -1.4360 -0.5000
16408TIP3    H270716   1.304   4.278   3.999  0.5717 -0.6290 -0.1323
16409TIP3   OH270717   6.595   3.018  16.856  0.2920 -0.4084 -0.0535
16409TIP3    H170718   6.517   3.068  16.880 -0.0366 -0.6110 -0.6567
16409TIP3    H270719   6.563   2.953  16.792  0.8590 -0.8411  0.0930
16410TIP3   OH270720   4.545   5.263   6.086 -0.0907  0.1276  0.1122
16410TIP3    H170721   4.455   5.253   6.053  0.1370 -1.5850 -0.1014
16410TIP3    H270722   4.537   5.249   6.181  0.2073 -2.6915 -0.1679
16411TIP3   OH270723   5.317   1.223   5.058 -0.0691 -0.0664  0.2388
16411TIP3    H170724   5.370   1.254   4.985  2.1257 -1.3719  1.1799
16411TIP3    H270725   5.230   1.208   5.020  0.1043  2.3527 -1.3136
16412TIP3   OH270726   3.045   6.242   5.813  0.0630 -0.1136 -0.2473
16412TIP3    H170727   2.977   6.205   5.757 -0.2361  1.1787 -0.7774
16412TIP3    H270728   3.043   6.336   5.794  0.9533  0.1496  0.8687
16413TIP3   OH270729   0.541   2.277   2.939 -0.1549 -0.5727 -0.3886
16413TIP3    H170730   0.524   2.218   3.012 -0.3041 -1.3850 -1.0736
16413TIP3    H270731   0.484   2.353   2.956  0.9296 -0.0493  1.1286
16414TIP3   OH270732   2.087   1.042   2.456  0.5980  0.0374 -0.0696
16414TIP3    H170733   2.127   1.107   2.513  1.1309 -0.7298  0.4471
16414TIP3    H270734   2.137   1.047   2.374  0.7506  0.1616  0.0314
16415TIP3   OH270735   1.975   5.026   2.741  0.3575  0.6432 -0.3185
16415TIP3    H170736   1.911   4.956   2.759 -0.6838  0.5356 -3.6673
16415TIP3    H270737   1.944   5.100   2.792 -1.1048 -0.1019 -0.0483
16416TIP3   OH270738   5.822   4.189   2.096 -0.1722  0.1206  0.7958
16416TIP3    H170739   5.871   4.107   2.094  1.4925  1.0543 -2.0626
16416TIP3    H270740   5.755   4.179   2.029  0.3903  1.2485  0.0351
16417TIP3   OH270741   4.861   6.655   0.391 -0.4585  0.2957  0.5075
16417TIP3    H170742   4.891   6.684   0.305 -0.3598 -0.2089  0.3666
16417TIP3    H270743   4.941   6.636   0.439 -0.5213 -0.6465  0.2731
16418TIP3   OH270744   5.897   2.139  13.283 -0.3364  0.0267 -0.3240
16418TIP3    H170745   5.983   2.106  13.258 -1.3605 -2.5956 -0.7019
16418TIP3    H270746   5.907   2.161  13.376  1.1507  1.3765 -0.7661
16419TIP3   OH270747   0.902   4.696  11.285  0.1892 -0.4857  0.8709
16419TIP3    H170748   0.970   4.650  11.236  0.9750  1.9603 -0.4777
16419TIP3    H270749   0.820   4.673  11.241  0.6890  0.2112 -0.4688
16420TIP3   OH270750   1.356   3.586   0.002  0.0359  0.0972 -0.4565
16420TIP3    H170751   1.444   3.550  -0.004 -0.2615 -0.9239  0.9889
16420TIP3    H270752   1.366   3.666   0.054  0.2557  0.5485 -1.1835
16421TIP3   OH270753   5.053   6.799   3.779 -1.0547 -0.3714  0.0304
16421TIP3    H170754   4.987   6.801   3.711 -0.5805 -2.2147 -0.5445
16421TIP3    H270755   5.080   6.890   3.789 -1.9358  0.0812 -1.4373
16422TIP3   OH270756   2.358   5.496  11.190  0.7779 -0.0133  0.3935
16422TIP3    H170757   2.334   5.588  11.204  1.3315  0.1225  0.4759
16422TIP3    H270758   2.364   5.487  11.095  1.3804  0.2142  0.4043
16423TIP3   OH270759   2.075   0.697   0.521  0.1361  0.2088  0.1552
16423TIP3    H170760   2.022   0.669   0.596 -1.6989  0.4317 -1.0117
16423TIP3    H270761   2.016   0.748   0.467  2.4419  3.5537  0.4771
16424TIP3   OH270762   4.939   5.775   6.169 -0.2409 -0.3167  0.0084
16424TIP3    H170763   4.926   5.868   6.185  0.5441 -0.4520  1.6603
16424TIP3    H270764   4.852   5.736   6.179 -0.4444  0.1460  0.0223
16425TIP3   OH270765   2.354   1.760   1.329 -0.3280 -0.1526 -0.5092
16425TIP3    H170766   2.434   1.784   1.283  0.4002 -0.9255  0.3283
16425TIP3    H270767   2.343   1.829   1.395 -1.4886  1.0759 -1.8944
16426TIP3   OH270768   0.227   0.146   0.325 -0.2442 -0.2479 -0.2150
16426TIP3    H170769   0.307   0.184   0.361 -1.0453  0.5491  0.7577
16426TIP3    H270770   0.190   0.216   0.271 -0.1621 -0.7093 -0.8857
16427TIP3   OH270771   4.863   0.216   2.516 -0.4671  0.1321  0.1524
16427TIP3    H170772   4.882   0.291   2.572 -0.6014 -1.3035  2.2442
16427TIP3    H270773   4.907   0.142   2.558  0.8253 -0.7808 -2.5857
16428TIP3   OH270774   4.038   2.966  12.038 -0.0617 -0.3232 -0.0456
16428TIP3    H170775   4.011   2.970  12.130 -1.2097 -0.1379 -0.3770
16428TIP3    H270776   4.129   2.994  12.039  0.1405 -0.9346  1.1153
16429TIP3   OH270777   6.726   5.090  12.333 -0.1655 -0.4856  0.1427
16429TIP3    H170778   6.641   5.134  12.338  0.4268  0.5658  1.5105
16429TIP3    H270779   6.748   5.069  12.424  2.0255  1.2626  0.1042
16430TIP3   OH270780   6.753   1.973  16.489  0.2152 -0.4662 -0.5677
16430TIP3    H170781   6.789   2.040  16.430  0.6462 -1.2305 -1.1982
16430TIP3    H270782   6.706   2.023  16.556  1.5465  0.5253 -0.3230
16431TIP3   OH270783   1.701   0.179   2.201  0.0007 -0.1117  0.0453
16431TIP3    H170784   1.659   0.126   2.133 -0.9003  1.4746 -0.7014
16431TIP3    H270785   1.793   0.184   2.175 -0.1709 -0.2268 -0.5950
16432TIP3   OH270786   4.274   2.048  12.378 -0.7314 -0.5302 -0.0832
16432TIP3    H170787   4.229   2.063  12.296  0.2856 -3.6834 -1.3813
16432TIP3    H270788   4.366   2.067  12.359 -0.3991 -1.8653  0.0983
16433TIP3   OH270789   4.895   3.172   0.956  0.1532 -0.2845  0.4609
16433TIP3    H170790   4.889   3.267   0.947 -1.3733 -0.3130  0.9315
16433TIP3    H270791   4.850   3.138   0.879 -1.1604 -0.5961  1.3449
16434TIP3   OH270792   1.906   0.990   2.670 -0.1052  0.3838  0.0946
16434TIP3    H170793   1.953   0.964   2.591  2.3320 -1.6007  2.0370
16434TIP3    H270794   1.961   1.058   2.709 -0.1056 -0.2372  1.1995
16435TIP3   OH270795   4.914   1.000  15.831 -0.4033  0.3820  0.3241
16435TIP3    H170796   4.819   1.001  15.820 -0.1658  1.4003 -2.2192
16435TIP3    H270797   4.943   0.924  15.782  0.1107 -0.0349  1.2516
16436TIP3   OH270798   6.042   0.038   6.273  0.2145 -0.5888 -0.0727
16436TIP3    H170799   6.018  -0.055   6.265  0.5713 -0.8599  1.6052
16436TIP3    H270800   6.122   0.037   6.325 -0.2516  0.7133  0.6891
16437TIP3   OH270801   5.934   0.408  11.272  0.0128 -0.6676  0.0408
16437TIP3    H170802   5.882   0.330  11.292  0.5044 -1.4143 -1.5056
16437TIP3    H270803   5.961   0.397  11.181 -0.1114  1.4373 -0.2949
16438TIP3   OH270804   6.258   0.582  14.229  0.5148 -0.0243 -0.6507
16438TIP3    H170805   6.227   0.496  14.200  1.8722 -0.8433  0.2401
16438TIP3    H270806   6.327   0.605  14.166  2.1353 -0.9276  0.7339
16439TIP3   OH270807   3.121   3.149   4.599 -0.5835 -0.0567 -0.8597
16439TIP3    H170808   3.169   3.222   4.638 -0.1281  0.5101 -2.4313
16439TIP3    H270809   3.183   3.076   4.601 -1.1702 -0.5818  1.0779
16440TIP3   OH270810   2.819   2.927   4.996 -0.5051 -0.0230  0.6262
16440TIP3    H170811   2.838   2.874   5.073 -1.8682  0.2512  1.1852
16440TIP3    H270812   2.798   3.014   5.031  0.2927  0.5131 -0.1715
16441TIP3   OH270813   1.856   6.069   0.590  0.2422 -0.6518 -0.0571
16441TIP3    H170814   1.903   5.992   0.623  1.0634 -0.4018 -0.6108
16441TIP3    H270815   1.764   6.044   0.592  0.5346 -1.8512 -0.7099
16442TIP3   OH270816   1.223   5.221   1.947  0.7044 -0.0038  0.1168
16442TIP3    H170817   1.280   5.271   2.005  0.0640  1.5621 -0.5672
16442TIP3    H270818   1.220   5.271   1.865 -1.8312  0.1456  0.2015
16443TIP3   OH270819   6.505   3.536   5.629  0.1000 -0.0250 -0.6155
16443TIP3    H170820   6.477   3.620   5.593 -1.4902 -0.5754 -0.7314
16443TIP3    H270821   6.594   3.553   5.661 -0.5070  1.9428  0.2021
16444TIP3   OH270822   6.629   2.219  11.991 -0.0985 -0.2993  0.1934
16444TIP3    H170823   6.592   2.213  11.903  0.8957 -0.8735 -0.2032
16444TIP3    H270824   6.559   2.257  12.044 -0.6625  0.1833 -0.8704
16445TIP3   OH270825   2.358   3.174  12.169 -0.2956 -0.2605  0.1454
16445TIP3    H170826   2.352   3.138  12.257  0.0919 -1.6070 -0.3662
16445TIP3    H270827   2.400   3.259  12.181 -1.1593  0.0277  1.3576
16446TIP3   OH270828   2.994   4.084   5.056  0.6533  0.4431  0.0467
16446TIP3    H170829   2.932   4.011   5.053 -1.7948  2.4135  0.0235
16446TIP3    H270830   3.051   4.070   4.980 -1.6349  0.0867 -1.7176
16447TIP3   OH270831   5.473   6.689  13.570 -0.0258  0.0607 -0.1445
16447TIP3    H170832   5.549   6.654  13.523  1.0432  0.7450  1.0035
16447TIP3    H270833   5.467   6.780  13.541 -1.0584 -0.2672 -0.9985
16448TIP3   OH270834   1.071   3.203  14.551 -0.5650 -0.6563 -0.5942
16448TIP3    H170835   1.000   3.255  14.589  0.5484  0.6911 -0.2607
16448TIP3    H270836   1.054   3.114  14.580 -2.1343 -0.3758 -0.5562
16449TIP3   OH270837   6.432   1.150  16.296  0.1290 -0.0538 -0.2718
16449TIP3    H170838   6.385   1.207  16.235  0.1703 -0.9132 -1.1351
16449TIP3    H270839   6.483   1.210  16.351 -1.0216  0.8138 -0.1249
16450TIP3   OH270840   4.164   1.701   4.838 -0.1334  0.1302 -0.3002
16450TIP3    H170841   4.193   1.621   4.882 -1.6519  0.5075  1.5312
16450TIP3    H270842   4.236   1.763   4.852  0.2004 -0.3300  0.0589
16451TIP3   OH270843   1.022   5.204   0.218 -0.0870  0.0685 -0.2614
16451TIP3    H170844   1.072   5.189   0.137  2.2985  1.4250  0.8662
16451TIP3    H270845   0.942   5.248   0.189  0.0006 -0.8152 -1.9951
16452TIP3   OH270846   3.670   6.355   2.638  0.2585  0.1312 -0.0163
16452TIP3    H170847   3.766   6.358   2.637  0.2583  0.9564  0.8457
16452TIP3    H270848   3.648   6.283   2.579  1.4404 -0.6593  0.4577
16453TIP3   OH270849   2.723   5.570   6.542 -0.4616 -0.7982  0.7123
16453TIP3    H170850   2.647   5.584   6.485  0.6179  1.7652 -0.2312
16453TIP3    H270851   2.768   5.495   6.504 -1.9755 -1.7826  0.7562
16454TIP3   OH270852   4.133   2.961  14.040  0.3976  0.9550  0.2634
16454TIP3    H170853   4.212   2.914  14.013  0.0070  1.2813 -1.5628
16454TIP3    H270854   4.083   2.897  14.091  0.2114 -0.4133 -1.5626
16455TIP3   OH270855   1.736   4.873  13.481  0.1886  0.1836  0.3744
16455TIP3    H170856   1.823   4.852  13.446 -0.4054 -2.6236  0.3827
16455TIP3    H270857   1.740   4.849  13.573  0.4839  3.7056  1.4174
16456TIP3   OH270858   0.346   6.163  11.524  0.6153 -0.2661 -0.1685
16456TIP3    H170859   0.392   6.154  11.441  0.1857 -1.0949 -0.3332
16456TIP3    H270860   0.378   6.091  11.578 -1.6907 -1.9590 -0.8965
16457TIP3   OH270861   3.701   3.931   4.315  0.0092 -0.2540 -0.0473
16457TIP3    H170862   3.791   3.962   4.300 -0.2660 -0.2032 -1.8068
16457TIP3    H270863   3.702   3.840   4.285 -0.0455 -0.9245  1.8639
16458TIP3   OH270864   3.239   6.818   3.349 -0.2917 -0.0232 -0.1915
16458TIP3    H170865   3.149   6.803   3.377  0.5612 -0.5759  2.6561
16458TIP3    H270866   3.281   6.733   3.360  0.8768  0.5500 -0.0911
16459TIP3   OH270867   4.824   4.815  15.358  0.4497 -0.1251  0.0822
16459TIP3    H170868   4.803   4.889  15.415 -2.9635 -1.7767  1.1970
16459TIP3    H270869   4.853   4.746  15.418 -2.2265 -1.5583 -0.1274
16460TIP3   OH270870   4.452   0.296  13.061  0.3804  0.0732  0.6462
16460TIP3    H170871   4.514   0.252  13.004 -0.3213 -2.9684  2.0341
16460TIP3    H270872   4.469   0.259  13.148 -2.4911  0.0877  1.3102
16461TIP3   OH270873   6.407   2.687  12.909 -0.5723 -0.2281 -0.7242
16461TIP3    H170874   6.487   2.644  12.937 -0.5008  0.1859 -0.2692
16461TIP3    H270875   6.437   2.768  12.868 -0.6931 -0.6866 -1.7328
16462TIP3   OH270876   0.222   0.333  16.399  0.5070 -0.0091 -0.5910
16462TIP3    H170877   0.219   0.267  16.469  0.6763  0.1494 -0.4366
16462TIP3    H270878   0.314   0.339  16.376  0.4218 -0.2472 -1.0076
16463TIP3   OH270879   5.637   3.473  16.734  0.0637 -0.3044  0.5117
16463TIP3    H170880   5.668   3.393  16.777  3.0155  0.7600  0.5936
16463TIP3    H270881   5.697   3.487  16.661 -2.4493  0.0832 -1.6626
16464TIP3   OH270882   5.905   5.853  17.044  0.2215  0.0296 -0.2736
16464TIP3    H170883   5.821   5.846  16.997  0.3256  0.0345 -0.4590
16464TIP3    H270884   5.964   5.794  16.997  1.1034  2.0452 -1.8247
16465TIP3   OH270885   6.528   1.527   1.898 -0.2977  0.3834  0.3265
16465TIP3    H170886   6.581   1.487   1.829 -0.7248 -1.4949  1.0232
16465TIP3    H270887   6.576   1.510   1.979 -0.5022  1.2876  0.6422
16466TIP3   OH270888   1.402   6.530   2.681 -0.2020  0.8015  0.3673
16466TIP3    H170889   1.337   6.461   2.666  0.6938 -0.0683  0.4053
16466TIP3    H270890   1.387   6.592   2.610 -1.2232  0.7458  0.5069
16467TIP3   OH270891   2.511   5.931  11.081  0.2535  0.2452  0.3948
16467TIP3    H170892   2.498   6.025  11.073 -1.7395 -0.0554 -0.7785
16467TIP3    H270893   2.524   5.901  10.991 -2.2844 -0.9127  0.3269
16468TIP3   OH270894   4.051   3.209  17.009  0.8973  0.2485 -0.8812
16468TIP3    H170895   4.126   3.196  17.066 -1.1802  0.2964  2.0588
16468TIP3    H270896   4.052   3.303  16.989  2.0981  0.0889 -1.7007
16469TIP3   OH270897   2.562   6.688  12.261 -0.3126 -0.2562 -0.3694
16469TIP3    H170898   2.540   6.718  12.349 -0.1178  1.0172 -0.7374
16469TIP3    H270899   2.477   6.681  12.217 -0.2935  1.2563 -0.7232
16470TIP3   OH270900   3.996   3.008  15.750 -0.2074 -0.1524 -0.0681
16470TIP3    H170901   4.071   2.985  15.696 -0.8826  0.8896 -1.5136
16470TIP3    H270902   4.029   3.008  15.840  1.7034  1.0001 -0.7209
16471TIP3   OH270903   6.133   0.178   5.548 -0.3594 -0.4089  0.0306
16471TIP3    H170904   6.072   0.118   5.504  0.3036 -0.5209 -0.7530
16471TIP3    H270905   6.084   0.209   5.625 -1.0752 -1.1809 -0.0954
16472TIP3   OH270906   6.439   5.731  14.199  0.1823 -0.2964  0.1919
16472TIP3    H170907   6.365   5.674  14.222 -1.3179  1.1617 -0.8418
16472TIP3    H270908   6.447   5.722  14.104  0.6983  0.3164  0.1761
16473TIP3   OH270909   6.117   4.457  14.938 -0.3432  0.0962  0.3583
16473TIP3    H170910   6.211   4.468  14.951 -0.5968  0.7894  1.7260
16473TIP3    H270911   6.100   4.365  14.961  0.0117 -0.0718 -0.0370
16474TIP3   OH270912   6.134   6.121  14.724 -0.0518  0.0131 -0.3529
16474TIP3    H170913   6.209   6.128  14.665 -0.8846 -3.9919 -2.2167
16474TIP3    H270914   6.059   6.149  14.671 -0.5636 -1.8176 -0.6683
16475TIP3   OH270915   0.429   1.740   1.175  0.1976  0.2772  0.3047
16475TIP3    H170916   0.484   1.676   1.222 -0.2065 -1.1293 -1.0507
16475TIP3    H270917   0.454   1.730   1.083 -0.8676  1.0857 -0.0922
16476TIP3   OH270918   0.557   0.777   2.235 -0.1838 -0.1851 -0.7682
16476TIP3    H170919   0.595   0.818   2.313  0.4878 -0.5133 -0.9165
16476TIP3    H270920   0.464   0.797   2.241  0.0801  1.1341 -0.6941
16477TIP3   OH270921   4.645   5.521   1.232  0.1922 -0.1642 -0.6581
16477TIP3    H170922   4.640   5.526   1.328  1.1795 -1.6984 -0.4894
16477TIP3    H270923   4.579   5.456   1.208 -1.1567  1.3367 -1.2086
16478TIP3   OH270924   3.852   0.095  13.046  0.5484  0.0212 -0.0475
16478TIP3    H170925   3.942   0.114  13.070  0.0465  0.4431  1.6252
16478TIP3    H270926   3.820   0.037  13.115  0.3149 -2.3973 -2.0466
16479TIP3   OH270927   4.419   4.771   4.370  0.2718  0.0033 -0.7067
16479TIP3    H170928   4.466   4.852   4.352  0.6968  0.0793  0.6324
16479TIP3    H270929   4.469   4.703   4.324  1.4796  0.1387  0.3662
16480TIP3   OH270930   1.889   0.596  15.395 -0.3415  0.4030  0.0183
16480TIP3    H170931   1.856   0.661  15.456  1.7175 -0.3001  2.0118
16480TIP3    H270932   1.940   0.647  15.331 -2.6084  1.1524 -1.3068
16481TIP3   OH270933   5.161   6.040  13.786  0.1570 -0.2544 -0.0720
16481TIP3    H170934   5.123   5.953  13.792  1.0404 -0.6625 -0.1804
16481TIP3    H270935   5.141   6.069  13.697 -0.2288 -0.2946 -0.0004
16482TIP3   OH270936   4.758   2.394  15.043 -0.3601  0.0220  0.5852
16482TIP3    H170937   4.777   2.326  15.107 -1.9218  0.6563  1.7927
16482TIP3    H270938   4.673   2.430  15.070 -0.1032  1.6956 -0.6514
16483TIP3   OH270939   1.111   4.951  12.637  0.3324 -0.0330 -0.3388
16483TIP3    H170940   1.141   5.021  12.695  0.4653  0.2680 -0.7603
16483TIP3    H270941   1.090   4.878  12.695  0.0426  0.4123  0.1197
16484TIP3   OH270942   6.262   6.415  12.161 -0.4542 -0.4941 -0.0247
16484TIP3    H170943   6.203   6.489  12.151 -1.4311 -1.3358 -0.6977
16484TIP3    H270944   6.254   6.390  12.253  0.6636  0.8396  0.4720
16485TIP3   OH270945   3.278   6.057   5.811 -0.5517 -0.1112  0.0685
16485TIP3    H170946   3.219   6.132   5.804 -0.9221 -0.2136  1.6617
16485TIP3    H270947   3.347   6.074   5.747 -0.9844  1.2614 -0.0537
16486TIP3   OH270948   6.540   0.661   5.020  0.0759 -0.2490 -0.2500
16486TIP3    H170949   6.559   0.754   5.004 -1.8363 -0.3303 -3.9480
16486TIP3    H270950   6.588   0.614   4.952 -0.3192 -1.8434  0.5248
16487TIP3   OH270951   1.166   4.749  15.408  0.1251 -0.7684 -0.1890
16487TIP3    H170952   1.111   4.747  15.486 -1.2771 -1.6419 -1.1579
16487TIP3    H270953   1.126   4.815  15.351  2.6616  1.8786  0.7988
16488TIP3   OH270954   3.013   0.963  16.895  0.0001  0.1122  0.4791
16488TIP3    H170955   3.046   0.881  16.932 -0.8798 -1.1342 -1.3382
16488TIP3    H270956   2.988   0.941  16.805 -0.2425  2.3962 -0.0970
16489TIP3   OH270957   4.451   1.730   3.071 -0.1497 -0.4686 -0.2026
16489TIP3    H170958   4.455   1.656   3.131  2.1021  0.2556  0.6790
16489TIP3    H270959   4.358   1.752   3.065 -0.7516 -2.7017  0.3022
16490TIP3   OH270960   1.447   5.763   3.960  0.7789  0.2642 -0.5921
16490TIP3    H170961   1.353   5.775   3.949  0.8568  0.3251 -1.2963
16490TIP3    H270962   1.466   5.682   3.911  0.8361 -0.7210  0.9843
16491TIP3   OH270963   3.566   5.519   5.828 -0.0180 -0.3380 -0.4387
16491TIP3    H170964   3.561   5.593   5.887  2.2133 -0.8182  0.4655
16491TIP3    H270965   3.529   5.446   5.877 -1.8026  0.0388 -1.1628
16492TIP3   OH270966   5.004   5.057  14.225  0.2325  0.2074 -0.4516
16492TIP3    H170967   5.047   5.006  14.156  0.7847  1.4815 -1.0939
16492TIP3    H270968   5.002   4.999  14.301  0.6001 -0.8488 -1.2316
16493TIP3   OH270969   4.949   5.254   1.371 -0.1444  0.1206 -0.1015
16493TIP3    H170970   5.043   5.263   1.384 -0.1087 -1.5517  1.0474
16493TIP3    H270971   4.928   5.322   1.306  1.3202  2.5751  1.7956
16494TIP3   OH270972   1.882   6.155   2.882 -0.3867  0.1343  0.7547
16494TIP3    H170973   1.959   6.104   2.858 -1.2231 -0.5912 -0.5767
16494TIP3    H270974   1.823   6.144   2.807 -0.9983  2.2704  0.8619
16495TIP3   OH270975   1.307   5.287   0.312 -0.7499  0.5697 -0.2680
16495TIP3    H170976   1.219   5.250   0.312 -0.4664 -0.1138 -0.2803
16495TIP3    H270977   1.351   5.246   0.387  0.5680 -1.5669 -2.0885
16496TIP3   OH270978   3.556   1.400  16.868  0.6402  0.1956  0.4301
16496TIP3    H170979   3.481   1.409  16.928  0.2514 -1.9208  0.3368
16496TIP3    H270980   3.529   1.446  16.789  0.5951  1.8294  1.3359
16497TIP3   OH270981   0.430   5.464  15.136 -0.1235  0.4456 -0.3318
16497TIP3    H170982   0.455   5.445  15.226 -0.2550 -2.1436 -0.7437
16497TIP3    H270983   0.473   5.547  15.116  0.4320  0.7614  1.8964
16498TIP3   OH270984   2.723   3.265   2.051  0.1663  0.6615 -0.2898
16498TIP3    H170985   2.719   3.329   1.980 -0.3020 -0.6593 -1.4973
16498TIP3    H270986   2.788   3.201   2.022 -2.4361 -1.7686 -1.2056
16499TIP3   OH270987   1.079   4.910   4.748  0.2626 -0.3101 -0.1641
16499TIP3    H170988   1.108   4.943   4.833  0.6702  0.6142 -0.6424
16499TIP3    H270989   1.145   4.846   4.723  1.6825  1.3725 -0.9846
16500TIP3   OH270990   6.433   0.420   1.534 -0.6140 -0.1417 -0.1545
16500TIP3    H170991   6.377   0.493   1.559  0.3606  1.1105 -1.4628
16500TIP3    H270992   6.515   0.434   1.582 -0.6795 -0.8120  0.1668
16501TIP3   OH270993   4.812   1.503  16.835  0.1247  0.0562 -0.2783
16501TIP3    H170994   4.877   1.537  16.897 -1.1587  0.0480  1.1515
16501TIP3    H270995   4.856   1.431  16.791  0.9515 -0.2566  0.9939
16502TIP3   OH270996   5.926   3.105  13.426  0.0773 -0.0303  0.0978
16502TIP3    H170997   5.906   3.074  13.514 -0.3484  0.7246  0.2747
16502TIP3    H270998   5.908   3.199  13.429 -3.1203 -0.4460 -1.6792
16503TIP3   OH270999   1.418   2.124  10.540  0.0020 -0.3461  0.6621
16503TIP3    H171000   1.484   2.193  10.545 -0.8092  0.6064 -0.9701
16503TIP3    H271001   1.336   2.168  10.564 -0.9207 -0.0797 -2.5232
16504TIP3   OH271002   2.879   5.822  14.445 -0.0633  0.5343 -0.0587
16504TIP3    H171003   2.861   5.914  14.462  0.9528  0.7387 -0.0098
16504TIP3    H271004   2.960   5.823  14.394  0.9694 -0.4084  1.4899
16505TIP3   OH271005   6.202   1.423  13.219 -0.1143 -0.3405 -0.2477
16505TIP3    H171006   6.225   1.422  13.126  1.5978 -0.0538  0.1476
16505TIP3    H271007   6.147   1.501  13.229 -1.7179 -1.2941 -1.3053
16506TIP3   OH271008   4.652   5.805   1.239  0.3188  0.5260 -0.3751
16506TIP3    H171009   4.666   5.833   1.149  1.2816  0.4973 -0.2391
16506TIP3    H271010   4.635   5.711   1.233  0.4120  0.5193 -0.5206
16507TIP3   OH271011   6.043   4.490   0.568  0.1654 -0.4442 -0.8075
16507TIP3    H171012   5.981   4.442   0.514 -0.5341 -2.1265  1.3376
16507TIP3    H271013   5.998   4.570   0.593 -0.4480 -0.8050 -0.7511
16508TIP3   OH271014   6.548   6.261   1.589  0.6988  0.0441 -0.5206
16508TIP3    H171015   6.566   6.344   1.544 -0.4150 -0.2644 -1.5746
16508TIP3    H271016   6.554   6.195   1.520 -1.3673 -0.4017 -0.3144
16509TIP3   OH271017   2.501   2.718  11.419 -0.5193  0.3928 -0.4660
16509TIP3    H171018   2.596   2.710  11.429 -0.6120 -0.4722 -0.2674
16509TIP3    H271019   2.471   2.631  11.394 -1.2540  0.6858 -0.6450
16510TIP3   OH271020   5.822   1.456  12.792 -0.0661 -0.1906  0.3493
16510TIP3    H171021   5.802   1.536  12.840  0.3846  0.5423 -0.6683
16510TIP3    H271022   5.763   1.456  12.717 -1.0512 -1.5409  1.0614
16511TIP3   OH271023   6.674   3.592   6.309 -0.4467 -0.2421 -0.6435
16511TIP3    H171024   6.746   3.606   6.371 -0.7714 -0.1280 -0.2920
16511TIP3    H271025   6.662   3.497   6.307 -0.3705 -0.2525 -0.6082
16512TIP3   OH271026   6.378   4.998  13.595 -0.1978 -0.2448  0.3102
16512TIP3    H171027   6.329   5.069  13.554 -2.4991 -1.8743  0.0853
16512TIP3    H271028   6.439   4.969  13.527 -0.8646  0.0006 -0.4077
16513TIP3   OH271029   2.078   4.652  15.737 -0.1248  0.3351  0.1525
16513TIP3    H171030   2.062   4.667  15.830  2.1463  0.1384  0.6383
16513TIP3    H271031   2.146   4.716  15.714 -0.5291  0.2690 -1.3497
16514TIP3   OH271032   4.267   3.821  13.534 -0.5394  0.5254 -0.7849
16514TIP3    H171033   4.302   3.754  13.475 -1.9765 -0.3665 -0.6638
16514TIP3    H271034   4.344   3.870  13.563  1.0120 -2.7789  1.2503
16515TIP3   OH271035   6.830   1.853   2.729  0.5340 -0.2997  0.2519
16515TIP3    H171036   6.919   1.837   2.698 -0.3844 -1.0028 -2.2633
16515TIP3    H271037   6.791   1.910   2.663 -1.1264 -0.6213  0.8841
16516TIP3   OH271038   0.244   3.407   1.007  0.5811 -0.8535 -0.5096
16516TIP3    H171039   0.263   3.384   0.916  0.1834 -0.6081 -0.6578
16516TIP3    H271040   0.264   3.328   1.056  1.9586 -0.6140 -0.6578
16517TIP3   OH271041   3.458   4.817   0.103  0.1363  0.3905  0.0160
16517TIP3    H171042   3.521   4.793   0.035  0.5850  0.0768  0.5296
16517TIP3    H271043   3.393   4.870   0.058 -0.9292 -1.8174 -1.1995
16518TIP3   OH271044   2.508   6.383   4.260 -0.6732 -0.0601  0.1429
16518TIP3    H171045   2.468   6.398   4.346 -0.8131  1.2207 -0.1176
16518TIP3    H271046   2.601   6.373   4.278 -0.6139  0.8537  0.4030
16519TIP3   OH271047   2.129   2.689   2.996  0.2929 -0.2737 -0.4275
16519TIP3    H171048   2.219   2.719   3.007  0.9796 -1.2630 -2.6481
16519TIP3    H271049   2.095   2.742   2.924 -0.0498 -1.5340 -1.2282
16520TIP3   OH271050   5.767   0.241  14.415 -0.0218  0.0877 -0.0805
16520TIP3    H171051   5.847   0.273  14.373  0.8338  1.1679  2.1834
16520TIP3    H271052   5.796   0.162  14.463 -0.2344  0.5700  0.8724
16521TIP3   OH271053   3.216   6.809  16.918 -0.2484 -0.1875 -0.6364
16521TIP3    H171054   3.302   6.850  16.914  0.1962 -1.0230  0.0149
16521TIP3    H271055   3.198   6.799  17.011 -0.4534 -1.2260 -0.7730
16522TIP3   OH271056   4.378   1.746  13.501 -0.3255 -0.5236  0.2032
16522TIP3    H171057   4.334   1.795  13.571  1.5499  0.0925  1.0332
16522TIP3    H271058   4.399   1.812  13.435  1.2816 -0.3291  0.8501
16523TIP3   OH271059   2.129   5.697   4.979 -0.0952 -0.2133 -0.1762
16523TIP3    H171060   2.047   5.679   5.026 -0.5461 -0.2713 -0.9717
16523TIP3    H271061   2.101   5.720   4.891  0.8062 -1.4198 -0.8054
16524TIP3   OH271062   4.497   5.265  16.818 -0.3224  0.2468  0.3192
16524TIP3    H171063   4.520   5.358  16.820  2.1781 -0.2854 -0.3644
16524TIP3    H271064   4.419   5.258  16.874 -0.1713  2.6197  0.9257
16525TIP3   OH271065   3.828   1.369   1.623 -0.4142 -0.7054 -0.4034
16525TIP3    H171066   3.851   1.358   1.716  1.1787  2.1350 -0.3326
16525TIP3    H271067   3.739   1.404   1.624 -0.7648 -1.5842 -0.0278
16526TIP3   OH271068   6.180   4.729  14.451 -0.1359  0.0886  0.1037
16526TIP3    H171069   6.094   4.762  14.478 -0.4672  0.5173 -1.3798
16526TIP3    H271070   6.235   4.807  14.446  0.3041 -0.1617  0.8606
16527TIP3   OH271071   0.506   4.825  15.069  0.1399 -0.5067 -0.3512
16527TIP3    H171072   0.549   4.743  15.046  1.8125  0.3862 -0.5886
16527TIP3    H271073   0.493   4.870  14.986  1.2234  0.3779 -0.0735
16528TIP3   OH271074   5.358   5.618  12.004 -0.6260 -0.1332  0.5178
16528TIP3    H171075   5.284   5.667  12.040 -0.1379  1.3539 -0.4303
16528TIP3    H271076   5.433   5.646  12.057 -0.1644  0.9627 -0.6727
16529TIP3   OH271077   3.484   3.439   0.261  0.3149  0.0935  0.1517
16529TIP3    H171078   3.551   3.408   0.323 -0.8517 -2.6072  0.1723
16529TIP3    H271079   3.516   3.525   0.234  2.5641 -0.0524  1.9652
16530TIP3   OH271080   0.803   6.816  13.039  0.2292  0.4639  0.0346
16530TIP3    H171081   0.776   6.871  13.113  2.5341  3.9183 -1.4287
16530TIP3    H271082   0.727   6.816  12.981 -0.7749 -0.2897  1.2944
16531TIP3   OH271083   5.011   5.542   1.935  0.1051  0.1775 -0.1981
16531TIP3    H171084   4.932   5.582   1.898  0.3642  0.1618 -0.7749
16531TIP3    H271085   4.993   5.536   2.029 -0.8948 -0.5110 -0.4084
16532TIP3   OH271086   4.525   3.208  16.863  0.5240 -0.4260  0.7487
16532TIP3    H171087   4.550   3.133  16.810 -0.2630  1.1835 -2.1192
16532TIP3    H271088   4.430   3.211  16.857  0.6054  2.8038 -2.5149
16533TIP3   OH271089   5.071   3.347  16.700  0.1478 -0.0447 -0.6127
16533TIP3    H171090   5.020   3.424  16.675  2.6497  0.9457 -3.1186
16533TIP3    H271091   5.007   3.276  16.705 -1.9534  1.8045 -0.0335
16534TIP3   OH271092   3.811   3.581  14.412 -0.4011  0.0013 -0.0675
16534TIP3    H171093   3.726   3.570  14.368  0.6648 -0.0196 -2.2560
16534TIP3    H271094   3.827   3.675  14.409 -0.6917  0.0998  1.0918
16535TIP3   OH271095   1.913   4.174  15.029  0.0281  0.3480 -0.4068
16535TIP3    H171096   1.982   4.122  15.070  0.4707  2.1855  1.3360
16535TIP3    H271097   1.957   4.219  14.957  0.1922  0.1214 -0.4498
16536TIP3   OH271098   6.830   6.217  13.682  0.3987 -0.2283 -0.3881
16536TIP3    H171099   6.812   6.296  13.632  0.6670 -0.6976 -1.2530
16536TIP3    H271100   6.847   6.150  13.615  0.2335 -0.9996  0.3254
16537TIP3   OH271101   4.883   1.628  10.681 -0.0759 -0.6480 -0.9198
16537TIP3    H171102   4.862   1.672  10.763  0.4482 -2.4811  0.2512
16537TIP3    H271103   4.851   1.688  10.613 -2.1146  0.1433  0.6317
16538TIP3   OH271104   3.151   1.167   2.652 -0.4839 -0.4362 -0.1719
16538TIP3    H171105   3.118   1.081   2.624  0.1445 -0.5004 -0.7448
16538TIP3    H271106   3.192   1.203   2.574 -1.4413  0.7461 -0.1716
16539TIP3   OH271107   6.108   5.281   2.311 -0.0383 -0.0321 -0.6025
16539TIP3    H171108   6.080   5.356   2.258  0.2597  0.7811  0.3425
16539TIP3    H271109   6.154   5.223   2.250  0.1454  0.7894 -1.2599
16540TIP3   OH271110   3.731   3.452  11.298 -0.2146  0.1892  0.1962
16540TIP3    H171111   3.726   3.474  11.391  2.5127 -0.6285  0.6301
16540TIP3    H271112   3.778   3.525  11.258 -1.0660  0.3742 -0.4954
16541TIP3   OH271113   3.461   3.675  16.375 -0.5208  0.2436  0.2265
16541TIP3    H171114   3.473   3.635  16.289 -0.6898  0.0083  0.3108
16541TIP3    H271115   3.548   3.707  16.399 -0.5191  0.5088 -0.1293
16542TIP3   OH271116   1.711   5.749  16.901  0.3247 -0.2288 -0.1590
16542TIP3    H171117   1.771   5.674  16.905 -0.5108 -1.0639 -1.9257
16542TIP3    H271118   1.712   5.775  16.809 -1.8483 -0.1688 -0.2087
16543TIP3   OH271119   0.097   3.404  11.658 -0.1758  0.6165  0.7895
16543TIP3    H171120   0.113   3.498  11.654 -3.1777  1.2408  1.4678
16543TIP3    H271121   0.177   3.368  11.698  0.4583  3.0415  1.8900
16544TIP3   OH271122   0.547   0.890   5.729  0.1304 -0.2892  0.1724
16544TIP3    H171123   0.577   0.908   5.640 -0.4277 -1.1456 -0.2067
16544TIP3    H271124   0.542   0.976   5.771  0.6055  0.1028 -0.5493
16545TIP3   OH271125   6.469   6.534  15.035  0.2599 -0.1232  0.5616
16545TIP3    H171126   6.410   6.503  15.104  0.4832 -1.4466  0.1780
16545TIP3    H271127   6.545   6.477  15.040 -0.7656 -1.9967 -2.3813
16546TIP3   OH271128   2.354   2.022   4.825  0.0023  0.2388  0.5405
16546TIP3    H171129   2.420   2.078   4.784 -0.9964  1.0506 -0.0090
16546TIP3    H271130   2.329   1.960   4.757 -0.0903  0.1826  0.6250
16547TIP3   OH271131   2.934   1.673   4.905  0.0726  0.4408 -0.3418
16547TIP3    H171132   2.980   1.755   4.889 -0.7368  0.7449 -1.1717
16547TIP3    H271133   2.968   1.613   4.838 -0.2497  0.4704 -0.5326
16548TIP3   OH271134   4.132   4.153   2.608 -0.6003 -0.5131 -0.6830
16548TIP3    H171135   4.154   4.200   2.528  1.1196 -1.4194 -0.7862
16548TIP3    H271136   4.214   4.114   2.637 -1.5649 -1.7967  0.4847
16549TIP3   OH271137   1.320   5.636  15.752 -0.1054  0.3692 -0.3354
16549TIP3    H171138   1.272   5.588  15.684 -0.4814 -0.1442  0.2780
16549TIP3    H271139   1.396   5.673  15.707  0.7166 -1.5816 -0.6409
16550TIP3   OH271140   2.746   0.046  12.863 -0.1117 -0.7977 -0.6152
16550TIP3    H171141   2.660   0.088  12.867 -0.7709 -2.1677  0.3878
16550TIP3    H271142   2.807   0.118  12.846 -1.2644  0.4542  0.2852
16551TIP3   OH271143   6.472   5.178  12.251  0.4875 -0.3144  0.0102
16551TIP3    H171144   6.463   5.117  12.178  0.3832 -0.4241  0.1158
16551TIP3    H271145   6.408   5.149  12.316  0.1951  0.1167 -0.0835
16552TIP3   OH271146   2.148   0.498  13.117 -1.0115 -0.6567  0.5357
16552TIP3    H171147   2.132   0.589  13.091  0.2824 -0.6785 -0.4211
16552TIP3    H271148   2.062   0.465  13.141 -1.6383  0.5730  0.0977
16553TIP3   OH271149   4.331   6.382   1.318  0.2676 -0.1012  0.6428
16553TIP3    H171150   4.334   6.362   1.225  1.2945 -0.2908  0.7009
16553TIP3    H271151   4.322   6.477   1.322 -0.0063 -0.1134  0.3533
16554TIP3   OH271152   5.013   6.258   3.409 -0.0693 -0.2623 -0.2901
16554TIP3    H171153   4.954   6.317   3.362 -0.4924  0.0174  0.5847
16554TIP3    H271154   5.063   6.214   3.339  0.7185  1.5810 -0.9572
16555TIP3   OH271155   5.919   2.269  13.825  0.2151  0.3475 -0.1493
16555TIP3    H171156   5.887   2.303  13.909 -0.4078 -1.2147  0.2822
16555TIP3    H271157   6.004   2.310  13.813  0.6113  0.1027  1.5795
16556TIP3   OH271158   6.744   5.109  11.165  0.0108  0.4031  0.1451
16556TIP3    H171159   6.663   5.156  11.144 -1.2586 -1.3912  0.8454
16556TIP3    H271160   6.716   5.031  11.212  1.9419 -1.5680 -1.7095
16557TIP3   OH271161   4.181   1.477   2.226 -0.4434  0.2486 -0.5919
16557TIP3    H171162   4.122   1.409   2.259 -0.4776  0.0852 -0.9916
16557TIP3    H271163   4.220   1.439   2.148  0.8793 -0.0040  0.1589
16558TIP3   OH271164   4.842   6.664  14.531 -0.3147 -0.1646 -0.2712
16558TIP3    H171165   4.761   6.716  14.535 -0.4915 -0.5053  0.6841
16558TIP3    H271166   4.908   6.720  14.571 -0.6784 -0.9662  1.5268
16559TIP3   OH271167   4.294   0.536  16.814 -0.2244 -0.0694 -0.7069
16559TIP3    H171168   4.322   0.613  16.765  1.5917 -0.2431 -0.0200
16559TIP3    H271169   4.284   0.468  16.747  2.0112 -0.2478 -0.9495
16560TIP3   OH271170   5.749   4.342   6.109  0.5341 -0.4267  0.4033
16560TIP3    H171171   5.729   4.407   6.176 -0.2027  0.4383 -0.6249
16560TIP3    H271172   5.683   4.274   6.121  1.5386 -1.2281  1.7301
16561TIP3   OH271173   3.023   1.572  15.912 -0.3545 -0.1925 -0.4079
16561TIP3    H171174   3.113   1.540  15.916  0.0271  0.9790  2.4304
16561TIP3    H271175   2.970   1.493  15.905  0.8357 -0.9863 -0.7654
16562TIP3   OH271176   2.193   0.523   5.169  0.4468 -0.2020 -0.2269
16562TIP3    H171177   2.217   0.448   5.223  1.8065  1.8899  2.3179
16562TIP3    H271178   2.097   0.521   5.165  0.4787 -2.2176 -0.4999
16563TIP3   OH271179   0.346   1.930   1.885 -0.1713  0.7402  0.0579
16563TIP3    H171180   0.296   1.898   1.811 -0.8509  3.1367 -0.5819
16563TIP3    H271181   0.287   1.922   1.960 -0.3379  0.5342 -0.0958
16564TIP3   OH271182   5.073   2.133  16.574  0.3852  0.4865  0.6142
16564TIP3    H171183   4.996   2.187  16.594  0.5089  0.3809  1.3885
16564TIP3    H271184   5.147   2.193  16.582  0.6282 -0.0259  2.5712
16565TIP3   OH271185   0.482   0.736   4.414  0.1205  0.6782  0.3642
16565TIP3    H171186   0.413   0.670   4.411  0.0623  0.7748 -0.7018
16565TIP3    H271187   0.557   0.695   4.372  0.2090  1.1422  0.0574
16566TIP3   OH271188   4.754   2.397   4.666  0.0129 -0.2610  0.0547
16566TIP3    H171189   4.704   2.414   4.586  0.1732 -0.0253  0.0046
16566TIP3    H271190   4.837   2.442   4.653  0.1044 -0.3597  0.2859
16567TIP3   OH271191   4.127   4.189   4.614 -0.0200  0.6104 -0.3143
16567TIP3    H171192   4.053   4.188   4.553 -0.6731  1.5390  0.4295
16567TIP3    H271193   4.087   4.189   4.700  0.8961 -2.2378  0.2114
16568TIP3   OH271194   2.989   3.817  12.578  0.1680 -0.6176  0.1279
16568TIP3    H171195   2.985   3.892  12.638 -0.6764  1.0317 -1.8722
16568TIP3    H271196   2.900   3.809  12.544  0.7019 -1.2424 -1.2027
16569TIP3   OH271197   5.061   1.942  11.094  0.1531  0.2099 -0.7440
16569TIP3    H171198   5.054   2.036  11.112  2.2322  0.1783  0.5697
16569TIP3    H271199   4.992   1.925  11.030 -0.5749  2.5354 -0.6830
16570TIP3   OH271200   2.509   6.340  12.776  0.5900  0.3462 -0.5209
16570TIP3    H171201   2.434   6.285  12.754 -0.6662  1.3066  1.1120
16570TIP3    H271202   2.482   6.429  12.752  0.3378  0.9959  1.8787
16571TIP3   OH271203   4.437   5.844   5.278  0.4030  0.2711  0.2970
16571TIP3    H171204   4.439   5.932   5.317 -1.6262  0.5186 -0.0429
16571TIP3    H271205   4.480   5.855   5.193  1.2470  0.6445  0.7583
16572TIP3   OH271206   1.142   3.681  12.533  0.0600  0.0696 -0.2214
16572TIP3    H171207   1.201   3.667  12.606 -1.0539 -1.3807  0.4585
16572TIP3    H271208   1.182   3.634  12.460 -0.0352 -0.5699  0.1301
16573TIP3   OH271209   2.860   3.679   2.666  0.1111  0.5656 -0.1334
16573TIP3    H171210   2.936   3.646   2.712  0.2563  1.5818  0.3788
16573TIP3    H271211   2.862   3.774   2.679 -1.7770  0.5424  0.7562
16574TIP3   OH271212   6.293   1.322   4.434 -0.2583  0.4847  0.1158
16574TIP3    H171213   6.262   1.340   4.523 -0.5529  1.0253 -0.0883
16574TIP3    H271214   6.298   1.409   4.393  0.4026  0.2904 -0.2231
16575TIP3   OH271215   3.203   2.814  13.869  0.3193 -0.5452  0.0709
16575TIP3    H171216   3.215   2.721  13.848  0.3987 -0.5460  0.1191
16575TIP3    H271217   3.258   2.860  13.805  0.9851 -0.5708  0.6179
16576TIP3   OH271218   2.801   1.745   0.476  0.0295 -0.6351 -0.6176
16576TIP3    H171219   2.874   1.807   0.472  0.0117 -0.5207  0.4229
16576TIP3    H271220   2.723   1.800   0.484  0.0830 -0.7633  1.1964
16577TIP3   OH271221   6.263   2.110  12.076  0.8099  0.0354  0.2543
16577TIP3    H171222   6.320   2.062  12.015  0.8142  0.5004 -0.1154
16577TIP3    H271223   6.176   2.073  12.062  0.5976  0.9066 -0.8613
16578TIP3   OH271224   4.033   2.685  16.050 -0.2249 -0.0491  0.3915
16578TIP3    H171225   4.106   2.640  16.094 -0.0008 -0.4041 -0.3240
16578TIP3    H271226   4.067   2.705  15.962 -1.0567 -0.3993 -0.0179
16579TIP3   OH271227   2.205   2.750   4.429  0.0686 -0.4003 -0.4938
16579TIP3    H171228   2.136   2.789   4.375 -0.8286 -2.2389 -0.7235
16579TIP3    H271229   2.281   2.746   4.371  0.1560  0.8421 -0.5034
16580TIP3   OH271230   5.564   3.307  12.585 -0.0639  0.4120  0.5593
16580TIP3    H171231   5.472   3.307  12.560 -0.6268  2.5340  2.3779
16580TIP3    H271232   5.592   3.398  12.577  2.4518 -0.4424 -1.6969
16581TIP3   OH271233   1.051   2.751  11.560 -0.2556 -0.0563 -0.5717
16581TIP3    H171234   1.019   2.671  11.603 -0.1619  0.3623  0.3182
16581TIP3    H271235   0.977   2.780  11.507 -0.4674 -0.4593 -0.5058
16582TIP3   OH271236   3.364   1.201   5.953  0.1330  0.0997  0.0091
16582TIP3    H171237   3.324   1.271   5.902  2.1582  0.2844 -1.4836
16582TIP3    H271238   3.397   1.140   5.887  1.3847 -0.5056  1.1479
16583TIP3   OH271239   0.340   4.994  15.544 -0.0391 -0.2083 -0.0393
16583TIP3    H171240   0.381   5.033  15.621  0.2874  0.4709 -0.5397
16583TIP3    H271241   0.246   5.001  15.560  0.0319 -0.7286  0.6118
16584TIP3   OH271242   3.887   0.881   1.442  0.1351  1.1758  0.2832
16584TIP3    H171243   3.857   0.952   1.385  2.3174 -0.4486 -3.2483
16584TIP3    H271244   3.979   0.903   1.461  0.5244 -0.1526  0.0260
16585TIP3   OH271245   5.185   0.227  12.917  0.5459 -0.0249  0.5767
16585TIP3    H171246   5.135   0.255  12.994 -2.2649  1.2143 -1.4856
16585TIP3    H271247   5.223   0.308  12.883  0.7356 -0.3600 -0.0206
16586TIP3   OH271248   3.794   4.768  10.657  0.0350  0.4826  0.1754
16586TIP3    H171249   3.726   4.836  10.653 -2.1258 -1.5953 -1.8538
16586TIP3    H271250   3.747   4.689  10.684  2.2695 -0.4922  1.5192
16587TIP3   OH271251   5.623   1.147   3.425 -0.2754  0.6266  0.5134
16587TIP3    H171252   5.717   1.159   3.438  0.1732 -1.9422  0.2355
16587TIP3    H271253   5.605   1.060   3.462 -2.3036  0.5796 -0.4714
16588TIP3   OH271254   3.163   5.095   3.152 -0.0003  0.0199  0.1231
16588TIP3    H171255   3.185   5.112   3.060  1.4098  0.2058  0.4754
16588TIP3    H271256   3.073   5.060   3.149  0.0610 -0.0740 -1.3275
16589TIP3   OH271257   4.821   6.219  14.117 -0.5771 -0.4317  0.1203
16589TIP3    H171258   4.887   6.153  14.097 -0.5101 -0.4562  0.4092
16589TIP3    H271259   4.867   6.302  14.106 -1.4788 -0.2509 -3.3451
16590TIP3   OH271260   3.689   4.512   4.248 -0.4371  0.7715 -0.1316
16590TIP3    H171261   3.778   4.479   4.231  0.0990  1.2329  1.5926
16590TIP3    H271262   3.691   4.603   4.218 -0.1767  0.9252  0.3477
16591TIP3   OH271263   5.654   4.076  16.537 -0.0243  0.1111  0.4911
16591TIP3    H171264   5.680   3.986  16.559 -1.4422 -0.1074  1.4216
16591TIP3    H271265   5.560   4.070  16.519 -0.1408  1.4119  0.5699
16592TIP3   OH271266   4.656   5.454   2.698 -0.0029 -0.1270 -0.0662
16592TIP3    H171267   4.581   5.400   2.724  0.6083 -0.6191  0.7095
16592TIP3    H271268   4.696   5.406   2.625  0.0443 -0.2912  0.0671
16593TIP3   OH271269   3.975   2.418  15.435 -0.2236  0.1863 -0.2222
16593TIP3    H171270   3.965   2.372  15.351  0.7308  0.0069 -0.2491
16593TIP3    H271271   3.885   2.442  15.460 -0.7985 -1.8853 -0.1007
16594TIP3   OH271272   1.969   1.151   3.973 -0.2023 -0.3603 -0.3395
16594TIP3    H171273   2.022   1.189   3.903 -0.2311  1.0922  0.4023
16594TIP3    H271274   2.028   1.092   4.019  0.6023  0.7618  0.0901
16595TIP3   OH271275   4.979   4.427   2.793  0.2797  0.1029  0.2053
16595TIP3    H171276   4.929   4.392   2.867  2.1107  1.4642  2.2242
16595TIP3    H271277   4.984   4.521   2.810 -1.4249  0.9383 -3.0959
16596TIP3   OH271278   2.040   2.899  13.251 -0.1708 -0.2035 -0.1333
16596TIP3    H171279   1.971   2.854  13.300  0.4105 -0.5086  0.4246
16596TIP3    H271280   2.098   2.829  13.222  0.5052  0.1455  0.3604
16597TIP3   OH271281   2.818   3.161   4.546  0.6978 -0.2136 -0.2076
16597TIP3    H171282   2.884   3.177   4.614 -0.0916  2.0984  0.1390
16597TIP3    H271283   2.762   3.093   4.583 -0.4746  1.8447  2.1956
16598TIP3   OH271284   3.601   6.220  13.712 -0.5078  0.1401 -0.4487
16598TIP3    H171285   3.563   6.209  13.625  1.9210 -1.1004 -1.4486
16598TIP3    H271286   3.633   6.133  13.736 -0.0356  0.7165  1.1435
16599TIP3   OH271287   0.184   2.529   4.059  0.6005  0.2466  0.0869
16599TIP3    H171288   0.255   2.464   4.060 -1.0218 -1.5951  0.1872
16599TIP3    H271289   0.203   2.586   4.133  2.9857  1.0091 -0.9845
16600TIP3   OH271290   3.714   3.000  12.321 -0.4550 -0.2036 -0.5478
16600TIP3    H171291   3.776   2.990  12.392 -2.2885 -0.2817  1.1286
16600TIP3    H271292   3.749   3.071  12.267  1.1041 -0.3311  0.2631
16601TIP3   OH271293   3.195   5.351   4.630  0.1378 -0.1358  0.3844
16601TIP3    H171294   3.264   5.310   4.579 -1.0603 -1.0636 -0.5767
16601TIP3    H271295   3.114   5.318   4.591 -0.8480  0.5604  1.7435
16602TIP3   OH271296   6.134   3.980   0.618  0.7692  0.2127 -0.3709
16602TIP3    H171297   6.141   3.943   0.530 -0.1710  0.4535 -0.5661
16602TIP3    H271298   6.184   4.061   0.614  3.3302 -1.2292  0.2242
16603TIP3   OH271299   0.802   6.151   1.190  0.0246  0.1339  0.6769
16603TIP3    H171300   0.769   6.073   1.144 -2.2312  1.9453 -0.9915
16603TIP3    H271301   0.889   6.166   1.154 -0.5924 -0.1001 -0.9753
16604TIP3   OH271302   0.624   4.600   4.057 -0.0355  0.2819  0.0177
16604TIP3    H171303   0.561   4.622   3.989 -0.8127  0.6299  0.8418
16604TIP3    H271304   0.706   4.641   4.027  0.1921 -1.2990 -1.7344
16605TIP3   OH271305   1.383   0.651  15.072  0.0030  0.3329 -0.3585
16605TIP3    H171306   1.338   0.732  15.048 -1.4957  0.1116  1.5075
16605TIP3    H271307   1.430   0.672  15.153  1.6694 -0.0057 -1.1963
16606TIP3   OH271308   3.356   3.055  15.809  0.1688 -0.5543 -0.0731
16606TIP3    H171309   3.416   3.106  15.755 -0.7748  1.4414  0.6363
16606TIP3    H271310   3.285   3.032  15.750 -0.6978  1.3341  0.1374
16607TIP3   OH271311   6.445   4.429  12.793  0.2305 -0.2208 -0.1836
16607TIP3    H171312   6.409   4.341  12.803  0.1147 -0.1246  0.2802
16607TIP3    H271313   6.383   4.486  12.839 -0.1077  0.2034 -1.1384
16608TIP3   OH271314   1.475   3.620  14.642 -0.3868 -0.6370  0.0591
16608TIP3    H171315   1.392   3.573  14.642 -0.2674 -0.8554  0.4881
16608TIP3    H271316   1.528   3.576  14.576 -0.0578 -1.5112  0.8825
16609TIP3   OH271317   2.370   1.506   1.426  0.0747  0.2017  0.1830
16609TIP3    H171318   2.465   1.519   1.429  0.3234 -1.3415  0.0613
16609TIP3    H271319   2.335   1.589   1.395  1.4737  0.4654 -0.7809
16610TIP3   OH271320   5.847   0.968  10.720 -0.1208  0.0482  0.2438
16610TIP3    H171321   5.861   1.030  10.649  0.3178 -0.3597 -0.0334
16610TIP3    H271322   5.928   0.970  10.771 -0.1085 -0.2830  0.2417
16611TIP3   OH271323   0.511   0.438  11.606  0.3379  0.0852  0.1314
16611TIP3    H171324   0.528   0.530  11.586 -1.0591  0.2249 -0.5758
16611TIP3    H271325   0.449   0.410  11.539  0.2922 -1.2136  0.6797
16612TIP3   OH271326   2.431   2.278   0.762 -0.4026 -0.1787  0.2647
16612TIP3    H171327   2.440   2.215   0.833 -4.4920 -0.3990  0.8480
16612TIP3    H271328   2.391   2.227   0.691  1.2389  0.6281 -1.2942
16613TIP3   OH271329   3.163   2.933   3.956 -0.2064 -0.9822  0.2267
16613TIP3    H171330   3.123   2.966   3.876  0.2795 -1.2754 -0.1472
16613TIP3    H271331   3.102   2.956   4.026 -0.6541 -0.7632 -0.2358
16614TIP3   OH271332   0.758   4.921  12.669  0.0705 -0.4243 -0.2703
16614TIP3    H171333   0.835   4.978  12.661 -0.3312  0.2365  0.4352
16614TIP3    H271334   0.692   4.975  12.713 -0.6750 -1.1038 -0.5192
16615TIP3   OH271335   4.324   0.634   1.994  0.3512  0.3228  0.2083
16615TIP3    H171336   4.410   0.662   2.028  0.2556 -0.0513  0.7772
16615TIP3    H271337   4.342   0.606   1.904  0.5615  1.6048 -0.1695
16616TIP3   OH271338   5.395   6.122   0.098  0.0052 -0.2122  0.2867
16616TIP3    H171339   5.314   6.154   0.059  1.2036  1.5222 -0.9300
16616TIP3    H271340   5.403   6.170   0.181  1.0329  1.5991 -0.8147
16617TIP3   OH271341   1.081   6.317   1.813  0.3061 -0.3638  0.3742
16617TIP3    H171342   1.086   6.308   1.718 -0.2511 -1.0185  0.4013
16617TIP3    H271343   0.990   6.340   1.830  0.7827  1.5222  0.6250
16618TIP3   OH271344   3.168   2.039   5.554 -0.8608 -0.0949  0.9291
16618TIP3    H171345   3.074   2.052   5.542 -0.7953  0.4023  0.9359
16618TIP3    H271346   3.196   2.112   5.609 -0.1138  0.9211 -0.7110
16619TIP3   OH271347   2.741   1.827   5.267  0.5126  0.8854 -0.0440
16619TIP3    H171348   2.775   1.755   5.321 -0.4081 -0.8963 -1.7303
16619TIP3    H271349   2.683   1.875   5.326 -0.0204 -0.6529  0.7556
16620TIP3   OH271350   6.735   5.423  11.118  0.2499  0.1462  0.2511
16620TIP3    H171351   6.692   5.484  11.057 -0.5268 -0.0374  0.5959
16620TIP3    H271352   6.676   5.348  11.123  0.3213  0.1308  1.1741
16621TIP3   OH271353   1.337   1.644  15.533 -0.4959  0.3162 -0.8554
16621TIP3    H171354   1.382   1.686  15.460  0.3537  0.5234 -0.2288
16621TIP3    H271355   1.258   1.606  15.494  0.7894 -1.0869 -2.2260
16622TIP3   OH271356   0.860   5.527   5.257  0.0810  0.1915 -0.0476
16622TIP3    H171357   0.816   5.528   5.342  0.3782  0.9646  0.1088
16622TIP3    H271358   0.903   5.612   5.252  0.6527 -0.1269 -0.6695
16623TIP3   OH271359   4.898   5.756   1.414  0.3637  0.2379 -0.0962
16623TIP3    H171360   4.824   5.772   1.355  0.0464 -0.8599 -0.0169
16623TIP3    H271361   4.877   5.806   1.493 -0.7578 -0.7666  0.2714
16624TIP3   OH271362   3.689   3.282   4.875  0.0737  0.1404  0.6469
16624TIP3    H171363   3.663   3.203   4.921 -1.0322  1.0503  1.6333
16624TIP3    H271364   3.710   3.345   4.944 -0.7750  1.2609 -0.0733
16625TIP3   OH271365   6.276   3.123  16.605  0.1173 -0.0449 -0.5265
16625TIP3    H171366   6.234   3.130  16.519 -1.4320  1.5901  0.3118
16625TIP3    H271367   6.209   3.083  16.660  1.0019 -0.8102  0.0099
16626TIP3   OH271368   4.070   5.235  16.064 -0.3545  0.6300 -0.1234
16626TIP3    H171369   4.165   5.232  16.075 -0.3185  0.1037 -0.5404
16626TIP3    H271370   4.053   5.184  15.985 -1.0559 -0.1242  0.4824
16627TIP3   OH271371   4.575   6.090  14.295 -0.0695 -0.4854  0.0700
16627TIP3    H171372   4.648   6.124  14.347 -0.0648  0.5657 -0.5887
16627TIP3    H271373   4.538   6.021  14.349  0.7269 -0.2904  0.9071
16628TIP3   OH271374   3.878   6.623   3.973 -0.3278  0.7501  0.0312
16628TIP3    H171375   3.787   6.603   3.997  0.0564  0.3723  1.2524
16628TIP3    H271376   3.910   6.543   3.931 -0.3559  0.6382  0.2226
16629TIP3   OH271377   6.118   4.374  17.142 -0.0605  0.0738 -0.0960
16629TIP3    H171378   6.074   4.442  17.092  0.9815  1.2870  0.5725
16629TIP3    H271379   6.137   4.414  17.227  3.0369 -0.0047 -0.6060
16630TIP3   OH271380   3.080   1.175   1.337 -0.0414  0.0076  0.0393
16630TIP3    H171381   3.001   1.127   1.311 -0.8639  1.8157 -1.0139
16630TIP3    H271382   3.057   1.267   1.327  1.4526  0.6843  2.0381
16631TIP3   OH271383   4.561   3.579   2.858  0.1459 -0.5569 -0.6633
16631TIP3    H171384   4.470   3.553   2.843 -0.2845 -0.1920  1.0384
16631TIP3    H271385   4.565   3.670   2.828 -0.5921  0.0488  0.9655
16632TIP3   OH271386   2.483   4.555  15.620  0.0703  0.0345 -0.2899
16632TIP3    H171387   2.499   4.487  15.554 -0.1210 -0.8698  0.5830
16632TIP3    H271388   2.472   4.635  15.568  0.3133 -0.5793 -1.3349
16633TIP3   OH271389   5.239   5.112  15.745 -0.3601 -0.2217  0.4639
16633TIP3    H171390   5.146   5.135  15.742 -0.1693  0.5223 -0.4825
16633TIP3    H271391   5.283   5.186  15.704  0.7152 -0.3113  1.4156
16634TIP3   OH271392   2.113   0.192  11.753 -0.5734 -0.9211  0.1131
16634TIP3    H171393   2.083   0.107  11.722 -1.0447 -1.8432  2.8784
16634TIP3    H271394   2.034   0.245  11.758 -0.5479 -0.8804  0.0913
16635TIP3   OH271395   4.600   0.410   1.162 -0.3484  0.3462  0.2761
16635TIP3    H171396   4.648   0.408   1.245  0.7545  0.1461 -0.3539
16635TIP3    H271397   4.526   0.350   1.176 -1.1057  1.5367  1.6455
16636TIP3   OH271398   2.732   1.676  16.963 -0.0274 -0.5158 -0.0191
16636TIP3    H171399   2.787   1.700  16.888 -0.9298  0.5777 -0.3606
16636TIP3    H271400   2.777   1.602  17.003  1.3888 -0.0156 -0.6224
16637TIP3   OH271401   5.515   6.251   6.148 -0.6296 -0.0349 -0.6685
16637TIP3    H171402   5.470   6.268   6.065  0.3033 -0.3378 -1.2439
16637TIP3    H271403   5.600   6.216   6.123  0.3651  1.5349  0.3813
16638TIP3   OH271404   5.697   3.092  12.433 -0.0687  0.6034  1.1071
16638TIP3    H171405   5.614   3.088  12.386 -0.1522  1.9078  1.1200
16638TIP3    H271406   5.679   3.145  12.510  0.8641  1.2477  0.8981
16639TIP3   OH271407   3.484   2.488   3.386  0.3236 -0.2128  0.3425
16639TIP3    H171408   3.532   2.406   3.371  1.0510  0.3579 -0.5437
16639TIP3    H271409   3.406   2.480   3.331 -0.0455 -0.6673  0.9212
16640TIP3   OH271410   3.197   1.871   1.278  0.5573 -0.3088 -0.0886
16640TIP3    H171411   3.192   1.839   1.368  1.4084 -1.9212 -0.5813
16640TIP3    H271412   3.139   1.814   1.228  0.0794  0.5786 -0.5729
16641TIP3   OH271413   4.353   1.096  13.168  0.2378 -0.2310  0.2606
16641TIP3    H171414   4.428   1.038  13.154  0.2365  0.0916 -1.2840
16641TIP3    H271415   4.323   1.075  13.257  2.6437  0.2151  1.2617
16642TIP3   OH271416   1.176   3.557  15.891  0.5053 -0.4223 -0.0443
16642TIP3    H171417   1.222   3.580  15.971  0.8875 -1.4017  0.0378
16642TIP3    H271418   1.226   3.484  15.855  0.4397  0.1158 -1.2707
16643TIP3   OH271419   0.024   4.568   4.694 -0.0575 -0.0633  0.2811
16643TIP3    H171420   0.077   4.499   4.735  3.0515  1.0178 -1.6412
16643TIP3    H271421   0.022   4.545   4.601  0.2089  1.9176 -0.2483
16644TIP3   OH271422   3.778   3.263  12.226 -0.1381 -0.0556 -0.1136
16644TIP3    H171423   3.716   3.279  12.154  0.1412 -0.5114 -0.4579
16644TIP3    H271424   3.864   3.269  12.186  0.0132 -0.6638  0.1088
16645TIP3   OH271425   2.116   0.241   1.434 -0.0468  0.6082  0.0938
16645TIP3    H171426   2.135   0.327   1.471  0.5987  1.1487 -1.4443
16645TIP3    H271427   2.039   0.211   1.483 -1.0968  2.6280 -0.2095
16646TIP3   OH271428   6.507   5.766   6.664  0.3695 -0.2657  0.2369
16646TIP3    H171429   6.526   5.708   6.738 -0.1680 -0.7799 -0.0287
16646TIP3    H271430   6.468   5.709   6.598  0.7416  0.2150 -0.4026
16647TIP3   OH271431   5.269   5.224   3.178  0.0179 -0.9498 -0.0924
16647TIP3    H171432   5.187   5.257   3.143 -0.6076 -1.2058  1.0780
16647TIP3    H271433   5.302   5.295   3.232  1.1279 -0.4395 -1.3788
16648TIP3   OH271434   0.580   5.348  13.919  0.3013 -0.3513 -0.5126
16648TIP3    H171435   0.520   5.357  13.994  0.0709 -0.9707 -0.6161
16648TIP3    H271436   0.585   5.436  13.882 -0.6335 -0.3168 -0.5693
16649TIP3   OH271437   1.534   4.298   4.182  0.2592  0.1097 -0.5401
16649TIP3    H171438   1.493   4.212   4.191  1.8693 -0.5033  1.4886
16649TIP3    H271439   1.468   4.350   4.135 -1.0774 -1.9619 -1.1141
16650TIP3   OH271440   6.372   2.302   5.563  0.0242  0.2522  0.1285
16650TIP3    H171441   6.439   2.290   5.630  0.1935 -1.2081 -0.2748
16650TIP3    H271442   6.409   2.366   5.503  0.6714  0.1342  0.3936
16651TIP3   OH271443   3.133   5.899   3.050 -0.1503  0.2891  0.0151
16651TIP3    H171444   3.168   5.822   3.095 -0.7841  0.3519  0.6281
16651TIP3    H271445   3.170   5.893   2.961 -1.5807 -1.7039 -0.5170
16652TIP3   OH271446   1.681   1.115  11.612 -0.0500 -0.2365  0.0455
16652TIP3    H171447   1.706   1.196  11.657 -1.2790 -0.5468  1.3499
16652TIP3    H271448   1.657   1.144  11.524 -0.9667  0.9276  0.6461
16653TIP3   OH271449   6.147   5.161   3.307  0.4905  0.1749  0.3957
16653TIP3    H171450   6.076   5.125   3.361 -0.7376  0.3450 -1.0239
16653TIP3    H271451   6.159   5.096   3.238  0.0407  1.2358 -0.7237
16654TIP3   OH271452   4.704   1.211   5.881 -0.5182  0.4409  0.3338
16654TIP3    H171453   4.731   1.279   5.819 -0.6468  0.6421  0.4977
16654TIP3    H271454   4.706   1.130   5.830 -2.0194  0.7940 -0.3367
16655TIP3   OH271455   3.042   5.493   4.337 -0.0032  0.0268  0.3559
16655TIP3    H171456   3.048   5.512   4.243  0.0726  0.7020  0.4908
16655TIP3    H271457   3.127   5.522   4.372  0.3904 -1.2130  0.4704
16656TIP3   OH271458   0.885   0.562   1.937  0.1488  0.4107 -0.6041
16656TIP3    H171459   0.906   0.494   2.001 -0.6941 -0.7353 -1.5037
16656TIP3    H271460   0.790   0.556   1.925  0.3703  0.1044 -2.4801
16657TIP3   OH271461   2.148   3.734  15.470 -0.4276 -0.4059  0.0921
16657TIP3    H171462   2.084   3.804  15.482 -0.9421 -1.1871  2.4127
16657TIP3    H271463   2.139   3.680  15.548  1.1058 -2.1500 -0.8662
16658TIP3   OH271464   4.762   2.351   5.753  0.2718  0.1666 -0.3306
16658TIP3    H171465   4.714   2.287   5.807 -1.3830 -0.1416 -2.0638
16658TIP3    H271466   4.752   2.318   5.664  2.2231  1.1150 -0.9332
16659TIP3   OH271467   3.067   5.951   2.488 -0.1591  0.5701 -0.5747
16659TIP3    H171468   3.140   5.916   2.437 -2.4954 -0.9756 -3.1569
16659TIP3    H271469   3.042   6.031   2.442  1.3748  2.5526  1.8022
16660TIP3   OH271470   0.452   6.720  14.107  1.0007 -0.0833 -0.1990
16660TIP3    H171471   0.455   6.815  14.100  1.2960 -0.1563 -1.1299
16660TIP3    H271472   0.447   6.703  14.201  0.5264  0.8591 -0.0528
16661TIP3   OH271473   5.184   3.888   4.673  0.1627 -0.0789  0.2143
16661TIP3    H171474   5.227   3.971   4.695 -0.8523 -0.1021  2.5597
16661TIP3    H271475   5.096   3.914   4.646  0.1969 -0.3273 -0.1335
16662TIP3   OH271476   1.713   0.495  15.003  0.1270 -0.1117 -0.0586
16662TIP3    H171477   1.665   0.492  15.086  0.0073  1.3172 -0.0441
16662TIP3    H271478   1.779   0.564  15.016  0.7167 -0.5108 -0.8372
16663TIP3   OH271479   1.524   1.599   2.929 -0.1054  0.2974 -0.5148
16663TIP3    H171480   1.550   1.520   2.976 -0.3894 -0.4388 -1.5799
16663TIP3    H271481   1.567   1.670   2.977 -0.2333 -0.4446  0.7342
16664TIP3   OH271482   0.075   4.780  10.659 -0.4462 -0.3293 -0.0121
16664TIP3    H171483   0.130   4.773  10.737 -0.7577 -1.0202  0.1522
16664TIP3    H271484   0.137   4.775  10.586  0.0437  2.0692  0.1642
16665TIP3   OH271485   0.157   2.877  11.139 -0.1569  0.0806  0.3565
16665TIP3    H171486   0.115   2.809  11.192  0.2901 -0.1011  0.4803
16665TIP3    H271487   0.225   2.831  11.091 -0.8618  0.1587 -0.7449
16666TIP3   OH271488   2.615   3.761  13.720  0.1335 -0.1988 -0.1589
16666TIP3    H171489   2.552   3.690  13.709  0.2407 -0.1044 -1.4654
16666TIP3    H271490   2.573   3.838  13.681  2.1568 -0.7685 -3.8925
16667TIP3   OH271491   2.325   5.799  11.249 -0.3550  0.1674 -0.0674
16667TIP3    H171492   2.246   5.833  11.207  0.4233  1.5522 -0.4743
16667TIP3    H271493   2.397   5.840  11.201  0.6018 -0.5283  0.7388
16668TIP3   OH271494   5.653   5.708   1.041  0.2841 -0.0475 -0.8329
16668TIP3    H171495   5.696   5.732   0.959  0.2704 -0.4521 -0.9576
16668TIP3    H271496   5.595   5.635   1.018  1.5012 -1.2783 -0.1579
16669TIP3   OH271497   0.050   6.141   0.912  0.1563 -0.1021 -0.1135
16669TIP3    H171498  -0.007   6.214   0.886  0.0824  1.1604  3.0384
16669TIP3    H271499  -0.006   6.064   0.907  0.1142  0.0184 -3.1546
16670TIP3   OH271500   3.752   4.527  13.234 -0.2438  0.1684  0.0897
16670TIP3    H171501   3.828   4.508  13.179  0.1999  0.0455  0.7330
16670TIP3    H271502   3.788   4.571  13.311 -1.0411  1.9851 -0.5059
16671TIP3   OH271503   0.144   1.107  13.602  0.0030 -0.3470 -0.1993
16671TIP3    H171504   0.189   1.174  13.550 -1.4981 -0.9620 -2.4496
16671TIP3    H271505   0.067   1.152  13.636  0.5700 -0.1581  0.8540
16672TIP3   OH271506   6.483   0.727   3.594  0.2866  0.2404  0.2897
16672TIP3    H171507   6.468   0.721   3.689  0.6149 -1.5308  0.2678
16672TIP3    H271508   6.396   0.728   3.556  0.1477  1.1364  0.6046
16673TIP3   OH271509   4.069   3.499   4.403 -0.0479  0.2916  0.4595
16673TIP3    H171510   4.145   3.557   4.407  0.8801 -0.9090  0.8318
16673TIP3    H271511   4.084   3.445   4.326  0.5296 -1.3229  1.6523
16674TIP3   OH271512   6.544   0.579   2.475  0.0125 -0.6812 -0.2871
16674TIP3    H171513   6.540   0.528   2.556 -1.0447  1.1163  0.8816
16674TIP3    H271514   6.509   0.521   2.408 -1.5337 -1.3964  1.0619
16675TIP3   OH271515   5.530   0.043   1.037 -0.3850  0.2228  0.3787
16675TIP3    H171516   5.560  -0.038   0.995  1.5118  0.5873  0.9501
16675TIP3    H271517   5.502   0.099   0.965  3.2154  1.0080 -0.6002
16676TIP3   OH271518   6.790   0.035   4.644 -0.4167 -0.0224  0.8533
16676TIP3    H171519   6.874   0.002   4.613 -0.7776 -1.6131  1.4485
16676TIP3    H271520   6.812   0.088   4.721 -0.0631 -2.2658  2.3989
16677TIP3   OH271521   4.666   1.418  14.251  0.1284 -0.6922  0.3494
16677TIP3    H171522   4.746   1.391  14.296  0.5484 -0.6661 -0.3733
16677TIP3    H271523   4.600   1.419  14.320  0.9144  0.0672  1.1132
16678TIP3   OH271524   0.820   4.004   5.992  0.0209  0.2245  0.3752
16678TIP3    H171525   0.821   3.924   6.046 -1.4873  0.6442  1.0755
16678TIP3    H271526   0.781   4.070   6.049 -0.4197  1.0108 -0.8148
16679TIP3   OH271527   5.104   0.916   4.367 -0.2711  0.4588  0.1171
16679TIP3    H171528   5.102   0.829   4.408  1.2289  0.1038 -0.5022
16679TIP3    H271529   5.160   0.968   4.425 -1.0775  0.9962  0.4280
16680TIP3   OH271530   4.901   4.205   4.875  0.3313 -0.5148  0.0805
16680TIP3    H171531   4.906   4.109   4.884 -0.3441 -0.6155 -0.5145
16680TIP3    H271532   4.837   4.219   4.805 -0.1206  0.3906  0.6562
16681TIP3   OH271533   2.815   1.245  11.459 -0.0415 -0.2904  0.7286
16681TIP3    H171534   2.817   1.340  11.456  0.9192 -0.3142  0.5213
16681TIP3    H271535   2.830   1.223  11.551  0.1696 -0.2505  0.7041
16682TIP3   OH271536   5.597   4.714   2.076 -0.0037  0.0860 -0.4621
16682TIP3    H171537   5.548   4.652   2.023 -0.4908 -1.0972  1.3010
16682TIP3    H271538   5.669   4.663   2.114  0.5723  0.9879 -0.2918
16683TIP3   OH271539   2.111   2.142   4.876 -0.0065 -0.3183 -0.5220
16683TIP3    H171540   2.187   2.088   4.898 -0.1327  0.4111  1.9967
16683TIP3    H271541   2.146   2.231   4.871 -0.9021  0.3459  2.7590
16684TIP3   OH271542   3.963   1.953  15.704 -0.6872 -0.0189  0.0396
16684TIP3    H171543   3.997   1.945  15.793  0.6145  0.2816 -0.4057
16684TIP3    H271544   3.896   2.021  15.711  0.4170  1.0651  0.5445
16685TIP3   OH271545   1.394   6.427  11.936 -0.0807 -1.2141  0.2538
16685TIP3    H171546   1.433   6.513  11.922  0.6901 -1.4329  0.9680
16685TIP3    H271547   1.299   6.443  11.939  0.0408 -0.4479  0.0398
16686TIP3   OH271548   6.662   5.065  17.122 -0.2513 -0.5340 -0.1320
16686TIP3    H171549   6.694   4.983  17.159  0.4541  0.3892  1.4388
16686TIP3    H271550   6.723   5.086  17.052  0.5964 -0.5055  0.6000
16687TIP3   OH271551   0.017   6.645   1.471  0.3642 -0.1120  0.4148
16687TIP3    H171552  -0.006   6.720   1.525  1.1377 -0.6722  1.5572
16687TIP3    H271553   0.094   6.672   1.422  0.6058 -0.1390  0.7798
16688TIP3   OH271554   0.248   0.248  14.081  0.3043 -0.0697  0.2243
16688TIP3    H171555   0.193   0.283  14.151  0.0102 -1.2493  0.6082
16688TIP3    H271556   0.259   0.321  14.020  0.4153  0.9259  1.4059
16689TIP3   OH271557   0.445   5.814   2.070 -0.1344 -0.0595  0.4271
16689TIP3    H171558   0.531   5.781   2.096 -0.4821 -1.4008 -0.0263
16689TIP3    H271559   0.465   5.887   2.011  0.6803  0.0251  0.7910
16690TIP3   OH271560   5.308   6.824   1.693 -0.5429  0.8152  0.5037
16690TIP3    H171561   5.298   6.910   1.654 -0.2853  0.7651  0.3229
16690TIP3    H271562   5.234   6.773   1.660 -1.8320  1.5128  2.1403
16691TIP3   OH271563   6.622   1.537  12.960  0.3147  0.2317 -0.0570
16691TIP3    H171564   6.658   1.609  12.908  1.7655  0.7804  1.6256
16691TIP3    H271565   6.689   1.469  12.956  0.9057  0.6439  1.8004
16692TIP3   OH271566   1.335   1.325  15.779 -0.2799 -0.1921  0.3349
16692TIP3    H171567   1.273   1.391  15.808  1.2858  1.3831  0.2388
16692TIP3    H271568   1.400   1.321  15.850  1.1989  0.5032 -0.9326
16693TIP3   OH271569   2.587   1.437  11.754  0.2660 -0.1731  0.5787
16693TIP3    H171570   2.568   1.487  11.674 -1.3496  0.5759  1.3913
16693TIP3    H271571   2.550   1.350  11.738  1.9334 -0.7664 -0.3258
16694TIP3   OH271572   0.626   4.767   4.735 -0.2075  0.3967 -0.1961
16694TIP3    H171573   0.623   4.861   4.716  1.4636  0.4399 -0.4467
16694TIP3    H271574   0.557   4.729   4.681 -0.9315  1.4846 -0.0599
16695TIP3   OH271575   1.811   0.736   1.141  0.6450  0.2380 -0.2135
16695TIP3    H171576   1.856   0.721   1.057  0.6886 -0.0136 -0.1464
16695TIP3    H271577   1.879   0.769   1.199  0.2979  1.8913 -0.6995
16696TIP3   OH271578   6.157   5.224   5.377 -0.5895 -0.2960 -0.6284
16696TIP3    H171579   6.062   5.223   5.373 -0.5729  0.4347 -1.4377
16696TIP3    H271580   6.182   5.133   5.391 -1.4806 -0.1963  2.1021
16697TIP3   OH271581   1.981   1.184  16.972 -0.0364 -0.0493 -0.2744
16697TIP3    H171582   2.061   1.216  16.931 -0.6865  1.1111 -0.6924
16697TIP3    H271583   1.910   1.230  16.926 -0.9195 -0.7396  0.3567
16698TIP3   OH271584   3.578   6.369  14.652  0.0151 -0.0584 -0.3671
16698TIP3    H171585   3.564   6.406  14.565 -1.2795 -1.0250 -0.6182
16698TIP3    H271586   3.609   6.442  14.705  2.3987  0.2135 -1.9724
16699TIP3   OH271587   6.174   6.164  10.587 -0.4237 -0.4847 -0.3741
16699TIP3    H171588   6.101   6.142  10.645  1.5773 -0.8079  2.2529
16699TIP3    H271589   6.204   6.079  10.554 -0.2450 -0.5249 -0.1148
16700TIP3   OH271590   3.578   6.403  13.331 -0.0835 -0.5069 -0.2266
16700TIP3    H171591   3.597   6.387  13.423 -1.4613 -0.8594  0.0160
16700TIP3    H271592   3.498   6.454  13.332  0.0675 -0.2345 -1.2316
16701TIP3   OH271593   3.797   3.340   0.852  0.0717  0.2974  0.7606
16701TIP3    H171594   3.736   3.412   0.867  0.9368  0.8267  1.8834
16701TIP3    H271595   3.741   3.265   0.830 -0.9078  1.0182  0.7352
16702TIP3   OH271596   1.505   5.632  14.521 -0.0991  0.5417  0.1408
16702TIP3    H171597   1.558   5.699  14.565  0.1745 -0.1324  0.8432
16702TIP3    H271598   1.519   5.552  14.571 -1.2620  0.1867 -0.0600
16703TIP3   OH271599   1.218   5.965  12.503  0.2361 -0.0237  0.2976
16703TIP3    H171600   1.291   5.927  12.453  0.1436 -1.0698  0.9180
16703TIP3    H271601   1.258   5.993  12.585  0.3430  1.4751 -0.2395
16704TIP3   OH271602   6.370   3.117  15.848 -0.4115 -1.0298 -0.0230
16704TIP3    H171603   6.287   3.069  15.845 -0.5001 -0.9752  1.1706
16704TIP3    H271604   6.409   3.091  15.931  0.2180 -0.1329 -0.0326
16705TIP3   OH271605   1.729   1.383  12.626  0.4335  0.0044  0.0236
16705TIP3    H171606   1.738   1.372  12.720  1.4356  0.2149 -0.0386
16705TIP3    H271607   1.676   1.462  12.616  0.5270  0.1180  0.4110
16706TIP3   OH271608   6.445   6.786   6.156  0.0409  0.1048 -0.0927
16706TIP3    H171609   6.522   6.778   6.213 -1.0628 -3.1463  1.1952
16706TIP3    H271610   6.373   6.804   6.216 -0.8078 -1.0605 -0.7252
16707TIP3   OH271611   1.359   0.096  15.582 -0.3923  0.4087  0.3116
16707TIP3    H171612   1.401   0.100  15.668  0.8257 -0.0824 -0.2448
16707TIP3    H271613   1.366   0.004  15.556  2.5730  1.1247 -1.8846
16708TIP3   OH271614   4.551   0.274   5.833  0.6111  0.5689  0.0152
16708TIP3    H171615   4.629   0.328   5.820  0.3036  1.1473  0.5731
16708TIP3    H271616   4.484   0.314   5.776  1.2571 -1.1500 -2.1219
16709TIP3   OH271617   0.006   0.076   0.080 -0.5480 -0.1879 -0.1046
16709TIP3    H171618   0.053   0.102   0.001 -2.1809  0.9551 -0.7487
16709TIP3    H271619   0.010   0.153   0.137 -0.9708 -0.3589  0.1628
16710TIP3   OH271620   4.403   1.359  13.031  0.1561  0.6134  0.0827
16710TIP3    H171621   4.334   1.335  12.969  0.0902  0.8561  0.0610
16710TIP3    H271622   4.367   1.333  13.117 -0.3737  1.6132  0.1779
16711TIP3   OH271623   6.810   4.880   5.516  0.1258  0.0871  0.0249
16711TIP3    H171624   6.799   4.786   5.501  0.9633 -0.0202  0.0707
16711TIP3    H271625   6.741   4.902   5.579 -1.0315 -0.1892 -1.0788
16712TIP3   OH271626   5.610   0.552  10.987  0.4904  0.0869  0.4421
16712TIP3    H171627   5.538   0.497  10.956  0.4035 -0.0985  0.9486
16712TIP3    H271628   5.594   0.560  11.081  1.4522 -0.4388  0.6573
16713TIP3   OH271629   4.370   2.182   2.881 -0.3470  0.0258  0.5272
16713TIP3    H171630   4.421   2.201   2.802  0.4780 -1.3552  0.7050
16713TIP3    H271631   4.318   2.105   2.859  0.4811 -0.8536  1.5741
16714TIP3   OH271632   6.591   6.100  11.173 -0.0545  0.4584  0.1295
16714TIP3    H171633   6.498   6.086  11.187  0.0017 -1.3365 -1.0655
16714TIP3    H271634   6.624   6.128  11.259 -1.9140  2.8162  0.1937
16715TIP3   OH271635   6.070   3.227   1.321  0.5845 -0.0384 -0.4961
16715TIP3    H171636   6.097   3.310   1.359 -0.2417  0.8726 -1.8467
16715TIP3    H271637   5.975   3.229   1.323  0.5541 -1.0778 -0.3155
16716TIP3   OH271638   1.971   5.587   5.788 -0.1627  0.1144  1.1184
16716TIP3    H171639   1.930   5.514   5.741  2.7065  0.2028 -1.8246
16716TIP3    H271640   1.916   5.663   5.768 -1.0357 -0.5328  1.0098
16717TIP3   OH271641   5.503   6.355   1.413  0.0692 -0.8407  0.2027
16717TIP3    H171642   5.432   6.401   1.457 -2.4751 -2.4240 -1.9694
16717TIP3    H271643   5.541   6.299   1.481 -1.6779 -0.9674  1.1297
16718TIP3   OH271644   3.374   0.169   5.688 -0.4148 -0.3328  0.0334
16718TIP3    H171645   3.411   0.091   5.647 -1.3410  1.1096 -4.0473
16718TIP3    H271646   3.280   0.153   5.688 -0.6991  1.0249 -1.7336
16719TIP3   OH271647   2.757   3.138  14.872 -0.0450  0.5271 -0.1472
16719TIP3    H171648   2.681   3.176  14.916 -0.3398 -0.4775  0.2289
16719TIP3    H271649   2.808   3.098  14.942  0.2386  0.1913 -0.5410
16720TIP3   OH271650   0.582   1.415   3.236 -0.0608 -0.0367 -0.2030
16720TIP3    H171651   0.667   1.417   3.192 -0.1865 -1.5381 -0.5594
16720TIP3    H271652   0.603   1.405   3.329  0.1666 -1.3867 -0.3802
16721TIP3   OH271653   1.058   2.554  13.168 -0.3494  0.2200 -0.0320
16721TIP3    H171654   1.022   2.465  13.171 -1.4222  0.6422  1.9994
16721TIP3    H271655   1.152   2.543  13.181 -0.2974 -0.6758 -1.0866
16722TIP3   OH271656   1.691   0.139   1.738 -0.5836  0.2940  0.0542
16722TIP3    H171657   1.677   0.047   1.760 -1.2540  0.8978  2.4273
16722TIP3    H271658   1.613   0.184   1.770 -0.3843  1.6812 -1.2981
16723TIP3   OH271659   3.539   5.388  15.370 -0.1133 -0.5107 -0.1777
16723TIP3    H171660   3.610   5.442  15.335 -0.4636 -0.0933 -0.2564
16723TIP3    H271661   3.507   5.338  15.294 -2.0013  1.6370 -0.9154
16724TIP3   OH271662   4.535   2.680   5.740 -0.2405 -0.3324 -0.1810
16724TIP3    H171663   4.488   2.597   5.736 -0.2254 -0.3272 -0.5045
16724TIP3    H271664   4.605   2.671   5.676 -0.2778 -0.0450 -0.2641
16725TIP3   OH271665   0.085   3.497  15.371  0.1260  0.2299  0.2844
16725TIP3    H171666   0.036   3.577  15.350  0.0696 -0.3935 -2.1672
16725TIP3    H271667   0.018   3.428  15.373  0.3305  0.0417  1.2960
16726TIP3   OH271668   4.062   3.737   0.320 -0.4068 -0.4030 -0.0661
16726TIP3    H171669   4.126   3.671   0.346  0.0201  0.0473  0.0584
16726TIP3    H271670   4.054   3.728   0.225 -0.4647 -0.7276 -0.0314
16727TIP3   OH271671   5.845   1.619  14.267 -0.5762 -0.5915 -0.0839
16727TIP3    H171672   5.791   1.675  14.211 -2.9243 -0.2186  2.3628
16727TIP3    H271673   5.895   1.680  14.321  0.0205 -0.9390 -0.2284
16728TIP3   OH271674   1.686   5.466   5.124 -0.1841  0.0687  0.1313
16728TIP3    H171675   1.662   5.400   5.189 -1.7559 -0.4333 -0.8834
16728TIP3    H271676   1.652   5.431   5.041 -0.4925  1.8532 -0.5386
16729TIP3   OH271677   1.418   6.575  11.498  0.8409 -0.2188 -0.4980
16729TIP3    H171678   1.330   6.549  11.527  0.4659  1.5801  0.0968
16729TIP3    H271679   1.403   6.629  11.420  1.5406 -1.0196 -1.2146
16730TIP3   OH271680   5.328   3.568  12.057  0.0087 -0.0630 -0.3218
16730TIP3    H171681   5.233   3.564  12.044 -0.3336  1.4498  1.3504
16730TIP3    H271682   5.354   3.477  12.071 -1.0218 -0.6013 -1.6533
16731TIP3   OH271683   2.523   5.356  16.079 -0.2497  0.2579  0.4465
16731TIP3    H171684   2.555   5.393  16.161  2.0818  1.2028 -0.8092
16731TIP3    H271685   2.489   5.432  16.030 -1.1663 -0.2254  0.2982
16732TIP3   OH271686   2.857   2.178   5.747 -0.2822  0.1662 -0.4826
16732TIP3    H171687   2.838   2.151   5.657  0.9566 -2.3567 -0.0785
16732TIP3    H271688   2.862   2.096   5.796  1.7705  1.2645  1.3165
16733TIP3   OH271689   5.813   1.532  12.081  0.7113 -0.3260 -0.3036
16733TIP3    H171690   5.750   1.572  12.020 -1.0064 -1.4684  0.6376
16733TIP3    H271691   5.872   1.483  12.025 -0.8161 -1.3397 -1.1004
16734TIP3   OH271692   2.060   1.153   0.235  0.3215 -0.4062  0.4575
16734TIP3    H171693   2.097   1.216   0.173  0.6529  0.7217  1.7438
16734TIP3    H271694   1.968   1.176   0.241  0.3890 -0.1963  0.7312
16735TIP3   OH271695   5.218   1.927   1.107 -0.3939 -0.3202 -0.3846
16735TIP3    H171696   5.298   1.977   1.124 -0.5086 -0.4044  0.4121
16735TIP3    H271697   5.243   1.867   1.036  0.4231 -0.7474  0.2475
16736TIP3   OH271698   2.031   3.230   1.748  0.4677 -0.3597  0.1328
16736TIP3    H171699   1.961   3.287   1.716  0.4600  0.2721  1.2424
16736TIP3    H271700   2.097   3.233   1.678 -0.7521 -1.3222 -1.1366
16737TIP3   OH271701   1.342   6.194  12.319 -0.0030 -0.2347  0.1500
16737TIP3    H171702   1.283   6.250  12.369  0.6139  1.6159 -1.0917
16737TIP3    H271703   1.284   6.133  12.273 -0.7407 -0.1688  0.9656
16738TIP3   OH271704   0.985   0.872   3.331 -0.2598 -0.4276 -0.3957
16738TIP3    H171705   1.046   0.800   3.311  0.8229  0.2354  0.4049
16738TIP3    H271706   0.929   0.878   3.254 -0.6743 -2.4248 -0.2926
16739TIP3   OH271707   3.044   1.509   1.205 -0.2077  0.4287 -0.7361
16739TIP3    H171708   3.026   1.515   1.299  2.0342  0.9347 -0.2906
16739TIP3    H271709   3.035   1.599   1.173  1.0781  0.6427 -0.5573
16740TIP3   OH271710   1.156   6.045   2.924  0.7569  0.2500  0.1897
16740TIP3    H171711   1.073   6.092   2.919 -0.3898 -1.7098 -0.2287
16740TIP3    H271712   1.153   6.000   3.008  0.7459 -0.9073 -0.4049
16741TIP3   OH271713   4.447   6.033  10.533  0.3071  0.1767 -0.0831
16741TIP3    H171714   4.476   6.069  10.449  0.7102  0.0825  0.0148
16741TIP3    H271715   4.351   6.036  10.529  0.2500 -1.8958 -1.4507
16742TIP3   OH271716   2.375   0.998  13.465  1.3529 -0.2523 -0.3290
16742TIP3    H171717   2.437   1.054  13.417 -1.3085  3.5020  0.1270
16742TIP3    H271718   2.405   1.003  13.556  1.5094 -0.1293 -0.3868
16743TIP3   OH271719   6.169   6.746   0.313 -0.0848 -0.0703  0.6501
16743TIP3    H171720   6.130   6.718   0.396 -1.1053  0.7266  0.4649
16743TIP3    H271721   6.113   6.819   0.284 -0.8767 -1.4657 -1.6284
16744TIP3   OH271722   5.766   4.573  16.628  0.0201 -0.3021 -0.1047
16744TIP3    H171723   5.832   4.641  16.614 -0.4944  0.2907  0.2830
16744TIP3    H271724   5.686   4.609  16.591 -0.5486 -0.1565  1.1948
16745TIP3   OH271725   4.004   6.246   2.049  0.0180 -1.3146 -0.0786
16745TIP3    H171726   4.057   6.293   1.984  1.0468 -1.0839  0.9049
16745TIP3    H271727   3.929   6.303   2.063  1.5980  0.4985  1.6494
16746TIP3   OH271728   0.366   6.546   2.629 -0.6417 -0.2690  0.4430
16746TIP3    H171729   0.437   6.524   2.689 -0.8018  0.0514  0.7530
16746TIP3    H271730   0.289   6.503   2.666 -0.6749 -0.3450  0.2862
16747TIP3   OH271731   1.999   0.257  16.691 -0.8347 -0.3661  0.5006
16747TIP3    H171732   1.982   0.292  16.778 -1.9835  0.7326 -0.1181
16747TIP3    H271733   2.019   0.165  16.705 -1.7266 -0.3824  1.8667
16748TIP3   OH271734   6.583   4.893   1.419 -0.4860 -0.3518  0.2333
16748TIP3    H171735   6.632   4.880   1.338 -2.0892 -2.1082 -0.5439
16748TIP3    H271736   6.620   4.829   1.480  0.0468  0.2720  0.5723
16749TIP3   OH271737   1.887   4.083   5.055  0.4340 -0.2735 -0.0054
16749TIP3    H171738   1.889   4.089   4.960  0.1282  0.9970  0.0538
16749TIP3    H271739   1.979   4.073   5.081  0.4049 -2.0935 -0.4916
16750TIP3   OH271740   0.285   6.644  16.298 -0.1900  0.2336  0.0655
16750TIP3    H171741   0.338   6.722  16.284  1.3050 -0.8024 -0.3092
16750TIP3    H271742   0.253   6.652  16.387  1.0323  0.6636  0.4903
16751TIP3   OH271743   0.243   5.260  15.164 -0.1943 -0.0566 -0.5366
16751TIP3    H171744   0.284   5.214  15.237 -2.2031 -0.3291  0.4830
16751TIP3    H271745   0.304   5.331  15.144  0.3736  0.0755  1.4581
16752TIP3   OH271746   0.708   6.416   2.365  0.1283 -0.0437 -0.0676
16752TIP3    H171747   0.729   6.486   2.427 -0.8340 -0.2972  0.5728
16752TIP3    H271748   0.790   6.369   2.354  0.4258  0.2763  0.6837
16753TIP3   OH271749   2.055   2.520  11.266  0.7561  0.1077 -0.0020
16753TIP3    H171750   1.962   2.534  11.284  0.3716 -0.3310 -1.4426
16753TIP3    H271751   2.056   2.479  11.179  2.3640  1.3847 -0.6387
16754TIP3   OH271752   0.989   1.318  16.923  0.3831 -0.0757 -0.1576
16754TIP3    H171753   0.934   1.291  16.849 -0.0505  0.4620 -0.0350
16754TIP3    H271754   1.077   1.321  16.887  0.1440  0.4142 -0.7155
16755TIP3   OH271755   3.870   1.266  14.489  0.2538 -0.4675  0.2310
16755TIP3    H171756   3.829   1.343  14.450 -1.1003 -0.7577  1.0362
16755TIP3    H271757   3.952   1.256  14.440 -0.0646  0.8171 -0.6280
16756TIP3   OH271758   6.145   0.139  14.359 -0.2711  0.6992 -0.4626
16756TIP3    H171759   6.106   0.212  14.312 -0.9937 -0.1160 -1.1663
16756TIP3    H271760   6.159   0.172  14.448 -0.2385  1.7978 -0.8701
16757TIP3   OH271761   6.601   6.595   3.518  0.2632  0.1668 -0.0593
16757TIP3    H171762   6.578   6.583   3.426  1.1412 -0.7908 -0.1860
16757TIP3    H271763   6.536   6.544   3.566 -0.1791  0.6444 -0.1394
16758TIP3   OH271764   0.391   0.856   3.291 -0.2434 -0.2513  0.1837
16758TIP3    H171765   0.400   0.878   3.384 -0.0062 -0.8542  0.3056
16758TIP3    H271766   0.475   0.816   3.268 -0.0943  0.3903 -0.4356
16759TIP3   OH271767   5.204   4.318  13.661  0.0257 -0.7729 -0.0218
16759TIP3    H171768   5.184   4.364  13.742  0.0919  0.3222 -0.6141
16759TIP3    H271769   5.291   4.280  13.676 -0.0864 -0.8213  0.5168
16760TIP3   OH271770   0.936   2.229   0.926  0.7803 -1.0149  0.2892
16760TIP3    H171771   0.943   2.151   0.982  0.2117  0.1266  2.0296
16760TIP3    H271772   0.900   2.296   0.983  0.1219  0.2249 -1.4890
16761TIP3   OH271773   5.142   2.277   2.879  0.1927 -0.0199 -0.1075
16761TIP3    H171774   5.232   2.302   2.900  0.8501 -1.8767 -0.5209
16761TIP3    H271775   5.142   2.181   2.884 -0.7308 -0.3860 -3.9087
16762TIP3   OH271776   4.754   1.681   5.146 -0.2677 -0.9924 -0.0292
16762TIP3    H171777   4.812   1.607   5.163 -1.4648 -2.7292 -2.8318
16762TIP3    H271778   4.803   1.736   5.085 -0.1316 -0.4110  0.5843
16763TIP3   OH271779   1.977   6.416   4.145  0.3495 -0.0639 -0.4848
16763TIP3    H171780   1.968   6.374   4.060 -0.1403  0.1990 -0.5665
16763TIP3    H271781   2.065   6.392   4.175  1.0537  0.9428 -1.6584
16764TIP3   OH271782   0.022   3.473  17.206 -0.2917 -0.0689 -0.3533
16764TIP3    H171783   0.048   3.490  17.115  0.0155  1.3154 -0.0289
16764TIP3    H271784  -0.045   3.405  17.199 -1.5259  1.2132 -1.7626
16765TIP3   OH271785   1.727   1.076  10.479  0.6778 -0.2331 -0.1045
16765TIP3    H171786   1.814   1.043  10.458  0.4022  0.4664 -2.7459
16765TIP3    H271787   1.668   1.003  10.459  0.5599 -0.4196  0.8589
16766TIP3   OH271788   4.686   4.891   6.085  0.4731 -0.0832  0.0312
16766TIP3    H171789   4.739   4.970   6.073 -1.4061  1.3042  0.3713
16766TIP3    H271790   4.726   4.826   6.027  1.6978  1.3194 -0.7605
16767TIP3   OH271791   5.708   2.724  13.641 -0.4155  0.7030 -0.2439
16767TIP3    H171792   5.630   2.670  13.652 -0.6321  0.6746 -1.6462
16767TIP3    H271793   5.776   2.678  13.690 -0.9232 -0.1082 -0.2819
16768TIP3   OH271794   4.141   1.962   4.075  0.2615  0.1780 -0.0467
16768TIP3    H171795   4.071   2.014   4.036  0.2264  0.9898  1.0392
16768TIP3    H271796   4.127   1.874   4.041 -1.4528  0.2651  0.3255
16769TIP3   OH271797   0.415   0.951   2.568  0.4880 -0.3190 -0.2270
16769TIP3    H171798   0.334   0.903   2.551 -0.2714  0.9558 -0.3194
16769TIP3    H271799   0.415   0.964   2.663 -0.5884  1.6039 -0.4361
16770TIP3   OH271800   0.138   1.258   4.272 -0.0902  0.0969  0.3223
16770TIP3    H171801   0.100   1.324   4.214 -0.2525  1.6545  2.1181
16770TIP3    H271802   0.212   1.223   4.222 -0.4771  1.0543 -0.9993
16771TIP3   OH271803   6.084   6.338  12.841  0.8400 -0.2513  0.2656
16771TIP3    H171804   6.019   6.289  12.792 -0.4617 -2.3244  3.7487
16771TIP3    H271805   6.123   6.397  12.776 -1.9619 -1.4188 -2.7525
16772TIP3   OH271806   6.580   4.253  11.930  0.1871  0.5775  0.0154
16772TIP3    H171807   6.514   4.259  11.999 -0.1822  0.2202 -0.2970
16772TIP3    H271808   6.633   4.177  11.955 -0.3676  0.0251 -0.4362
16773TIP3   OH271809   4.764   4.854  17.077  0.1461  0.0159 -0.2909
16773TIP3    H171810   4.755   4.949  17.066  2.7065  0.3743  0.0213
16773TIP3    H271811   4.777   4.842  17.171  0.1347 -0.6089 -0.3641
16774TIP3   OH271812   2.719   1.537   1.929  0.0536 -0.2136 -0.5424
16774TIP3    H171813   2.681   1.473   1.989  0.2296  0.3640  0.1957
16774TIP3    H271814   2.643   1.582   1.891 -0.0407 -0.1356 -0.2625
16775TIP3   OH271815   3.826   6.289   3.502 -0.1969  0.2504 -0.0182
16775TIP3    H171816   3.754   6.325   3.554 -0.1791  1.4188 -0.7524
16775TIP3    H271817   3.798   6.303   3.411 -0.5624 -2.3775 -0.3952
16776TIP3   OH271818   0.782   2.234  15.558 -0.2199  0.1458 -0.3018
16776TIP3    H171819   0.771   2.325  15.529 -0.5199  0.1780 -0.0887
16776TIP3    H271820   0.800   2.185  15.478 -0.1765  0.3727 -0.4326
16777TIP3   OH271821   5.134   0.080   3.143  0.5560  0.4956  0.1696
16777TIP3    H171822   5.122   0.089   3.238  1.4910 -0.0079  0.3458
16777TIP3    H271823   5.161  -0.011   3.130  1.7788  0.9096 -0.4157
16778TIP3   OH271824   5.667   1.574  12.316  0.0890  0.0808  0.2771
16778TIP3    H171825   5.707   1.541  12.236  0.6130  0.4082  0.4020
16778TIP3    H271826   5.664   1.669  12.305  1.4307  0.2648  1.2001
16779TIP3   OH271827   5.150   2.838   3.192 -0.6473 -0.3439 -0.1505
16779TIP3    H171828   5.178   2.765   3.136 -2.3325  0.8532 -2.7702
16779TIP3    H271829   5.055   2.825   3.203 -0.9308  1.2296 -0.4107
16780TIP3   OH271830   2.349   0.556  12.702  0.7563 -0.7367  0.4049
16780TIP3    H171831   2.438   0.589  12.714  0.1913  0.5872  1.2062
16780TIP3    H271832   2.330   0.571  12.609  0.0383  2.6830  0.9597
16781TIP3   OH271833   2.419   5.765   5.589 -0.7573 -0.0996 -0.0740
16781TIP3    H171834   2.410   5.822   5.513 -1.2648  1.0789  0.8277
16781TIP3    H271835   2.341   5.785   5.642 -0.6319 -1.2059  0.5486
16782TIP3   OH271836   1.049   4.979   5.020 -0.1928 -0.3496  0.1864
16782TIP3    H171837   0.954   4.982   5.004 -0.5530  0.4886  2.1702
16782TIP3    H271838   1.058   4.999   5.113  2.0292  0.6888 -0.1978
16783TIP3   OH271839   2.743   3.860  14.753  0.2971 -0.6384  0.7485
16783TIP3    H171840   2.757   3.861  14.848  0.2835 -0.8448  0.7527
16783TIP3    H271841   2.828   3.833  14.717  0.4795  0.0241  0.6666
16784TIP3   OH271842   5.447   2.375  12.061  0.4180  0.0326 -0.2220
16784TIP3    H171843   5.513   2.377  11.992  0.1012 -0.8111 -0.5578
16784TIP3    H271844   5.477   2.308  12.122 -0.0175 -0.2104 -0.2683
16785TIP3   OH271845   1.858   5.349  13.066 -0.0244  0.2875 -0.5861
16785TIP3    H171846   1.843   5.290  13.140 -1.7889  1.3130 -0.0806
16785TIP3    H271847   1.837   5.296  12.989  2.2314 -0.9189 -0.4652
16786TIP3   OH271848   5.959   3.551   4.161 -0.0098 -0.0510 -0.1930
16786TIP3    H171849   5.914   3.635   4.173  0.8243  0.3158  0.4813
16786TIP3    H271850   6.030   3.570   4.100 -0.0453 -0.3570 -0.3331
16787TIP3   OH271851   5.467   2.221   3.823  0.3398  0.5421 -0.0495
16787TIP3    H171852   5.511   2.239   3.906  0.7211  1.1084 -0.3703
16787TIP3    H271853   5.481   2.127   3.808 -0.3043  0.2970  0.8500
16788TIP3   OH271854   2.034   0.329  16.951  0.1959 -0.0508  0.5644
16788TIP3    H171855   2.035   0.419  16.983  0.3609 -0.0872  0.6579
16788TIP3    H271856   2.122   0.297  16.967  1.0630  0.7127 -2.1530
16789TIP3   OH271857   3.040   4.647   6.007  0.3662 -0.3122 -0.2220
16789TIP3    H171858   2.976   4.687   5.948  0.1610 -0.0449  0.1737
16789TIP3    H271859   3.124   4.660   5.965  0.1552 -0.7170 -0.7786
16790TIP3   OH271860   1.801   4.819   5.331 -0.3042 -0.0668  0.1787
16790TIP3    H171861   1.801   4.873   5.252  2.0761 -0.1064  0.0755
16790TIP3    H271862   1.811   4.730   5.298  0.3306 -0.1177  0.4982
16791TIP3   OH271863   4.132   1.852  12.980 -0.1150 -0.1240 -0.0520
16791TIP3    H171864   4.191   1.927  12.983 -0.9032  0.5058 -0.0148
16791TIP3    H271865   4.079   1.866  12.901  0.9895 -1.6259 -1.1160
16792TIP3   OH271866   5.723   1.122  11.360 -0.3298 -0.2809  0.2274
16792TIP3    H171867   5.755   1.063  11.428  1.3346 -0.3972 -0.6261
16792TIP3    H271868   5.742   1.077  11.278  0.1951  1.0505 -0.4088
16793TIP3   OH271869   2.343   2.849   6.094  0.2362 -0.7264  0.6288
16793TIP3    H171870   2.371   2.774   6.043 -1.3804 -0.8576 -0.1116
16793TIP3    H271871   2.256   2.826   6.126 -0.0220  0.5689  0.9380
16794TIP3   OH271872   4.714   0.342   0.136 -0.3592 -0.2988  0.3547
16794TIP3    H171873   4.765   0.289   0.074 -1.6488 -1.4067  0.1879
16794TIP3    H271874   4.623   0.315   0.121 -1.0958  2.0752  0.2065
16795TIP3   OH271875   6.615   5.501  10.883  0.6609 -0.0142 -0.0933
16795TIP3    H171876   6.636   5.410  10.860  0.3859 -0.4874  1.3957
16795TIP3    H271877   6.563   5.533  10.810  0.6146 -1.1193 -0.5637
16796TIP3   OH271878   0.168   1.444   6.333 -0.1072 -0.2786  0.5316
16796TIP3    H171879   0.165   1.402   6.419  0.3437 -1.2399  0.0844
16796TIP3    H271880   0.259   1.434   6.304 -0.2874 -0.0875 -0.1194
16797TIP3   OH271881   4.253   0.958   2.883  0.7018  0.0051  0.2035
16797TIP3    H171882   4.185   0.892   2.871 -1.7922  1.9253  2.2797
16797TIP3    H271883   4.310   0.922   2.950 -0.2021 -0.3818  0.7902
16798TIP3   OH271884   2.740   0.709  14.983  0.2385 -0.2470 -0.2418
16798TIP3    H171885   2.653   0.673  14.963 -0.0798  0.7630 -0.7272
16798TIP3    H271886   2.781   0.642  15.037 -1.3902 -0.1157  1.2432
16799TIP3   OH271887   0.272   4.032  10.067  0.0284  0.0145  0.1771
16799TIP3    H171888   0.283   4.111  10.014 -1.1471 -0.1699 -0.3534
16799TIP3    H271889   0.362   4.003  10.084  0.4377  0.3771 -1.2381
16800TIP3   OH271890   2.284   0.380   2.731 -0.1304 -0.0742  0.8213
16800TIP3    H171891   2.200   0.425   2.720 -0.2176  0.0839  2.0746
16800TIP3    H271892   2.262   0.296   2.771  0.1408 -0.8380 -0.5615
16801TIP3   OH271893   2.087   3.056   2.610  0.7591  0.3467 -0.0722
16801TIP3    H171894   2.165   3.102   2.579  0.6527  1.8350  1.7337
16801TIP3    H271895   2.023   3.068   2.540  1.4416  1.0353 -0.5978
16802TIP3   OH271896   0.419   4.051  13.106 -0.1475  0.3810  0.3282
16802TIP3    H171897   0.335   4.021  13.073  0.2683 -0.5412  0.0789
16802TIP3    H271898   0.484   4.008  13.050  0.4986  0.8082  0.7317
16803TIP3   OH271899   2.288   4.088  12.859  0.3518 -0.1212 -0.0885
16803TIP3    H171900   2.224   4.023  12.830 -0.1204  0.2691  0.0622
16803TIP3    H271901   2.237   4.168  12.870  0.6503 -0.0858  1.1474
16804TIP3   OH271902   4.661   5.067  10.842  0.1754  0.3234 -0.2557
16804TIP3    H171903   4.631   5.016  10.767  1.8499  1.0810 -1.4779
16804TIP3    H271904   4.750   5.093  10.821  2.1139 -2.3563  3.4679
16805TIP3   OH271905   6.226   1.239  16.700 -0.1962 -0.4292 -0.4224
16805TIP3    H171906   6.242   1.155  16.656 -0.8513  0.4042 -2.3899
16805TIP3    H271907   6.305   1.255  16.751  0.4933 -1.6215 -1.0683
16806TIP3   OH271908   4.086   6.710  15.679  0.2532  0.0671 -0.0778
16806TIP3    H171909   4.126   6.682  15.762  1.1495  0.6672 -0.2855
16806TIP3    H271910   4.159   6.710  15.617 -0.5136 -0.8892 -1.0064
16807TIP3   OH271911   5.635   5.642   3.930 -0.0919 -0.2111 -0.6332
16807TIP3    H171912   5.724   5.640   3.894 -0.2349 -0.1114 -1.0030
16807TIP3    H271913   5.581   5.610   3.858 -0.0728 -2.9389  0.4547
16808TIP3   OH271914   2.828   0.388   3.251  0.0800  0.8633 -0.7456
16808TIP3    H171915   2.766   0.428   3.312 -0.4048  1.0415 -1.3503
16808TIP3    H271916   2.869   0.318   3.301 -0.1565  1.1455 -0.1488
16809TIP3   OH271917   5.756   1.024   5.462 -0.2651 -0.4540 -0.0788
16809TIP3    H171918   5.813   0.960   5.419 -1.0626 -0.6461 -0.8861
16809TIP3    H271919   5.774   1.106   5.416 -1.1383 -0.6655 -0.8287
16810TIP3   OH271920   0.791   1.663   1.184  0.2886 -0.0733 -0.3690
16810TIP3    H171921   0.750   1.577   1.171 -0.4246  0.5294 -2.5085
16810TIP3    H271922   0.884   1.647   1.175  0.0476 -0.3294 -3.1474
16811TIP3   OH271923   4.066   3.441   4.895 -0.2950 -0.5058  0.4192
16811TIP3    H171924   4.160   3.450   4.912 -0.4366  0.0971  0.9091
16811TIP3    H271925   4.044   3.353   4.926  0.5284 -1.5491 -1.7389
16812TIP3   OH271926   6.593   6.132   5.300  0.3826 -0.7602 -0.2898
16812TIP3    H171927   6.666   6.183   5.335  0.0995  0.5081 -1.4281
16812TIP3    H271928   6.634   6.072   5.237  0.4550 -0.0032 -0.9784
16813TIP3   OH271929   4.755   1.143  16.840  0.7241 -0.3419 -0.0290
16813TIP3    H171930   4.690   1.073  16.835  1.0377 -0.6335 -0.0012
16813TIP3    H271931   4.724   1.208  16.776  0.9332 -0.9270 -0.7455
16814TIP3   OH271932   4.838   2.375  16.222  0.3354  0.2432 -0.3945
16814TIP3    H171933   4.916   2.321  16.207  1.1051  1.6573 -1.8585
16814TIP3    H271934   4.777   2.347  16.155 -0.4657 -0.8782  0.7671
16815TIP3   OH271935   6.553   4.940  11.277 -0.0435  0.1659  0.2653
16815TIP3    H171936   6.497   5.003  11.323  2.5340  1.5818  1.7375
16815TIP3    H271937   6.558   4.865  11.336 -1.8477 -0.8423 -0.7708
16816TIP3   OH271938   5.704   0.241   3.849  0.6604 -0.5051 -0.2682
16816TIP3    H171939   5.713   0.149   3.825 -2.6585 -0.7019 -1.2742
16816TIP3    H271940   5.647   0.241   3.926  0.2688  0.7006 -0.5348
16817TIP3   OH271941   5.769   3.677  15.645  0.2169 -0.0202 -0.0560
16817TIP3    H171942   5.843   3.618  15.657 -0.5032 -1.1502 -0.9925
16817TIP3    H271943   5.694   3.630  15.680 -0.3767  0.3187 -0.8218
16818TIP3   OH271944   4.016   4.494  13.086 -0.5848 -0.0289 -0.5036
16818TIP3    H171945   4.100   4.461  13.118 -0.5161  1.0885  0.5773
16818TIP3    H271946   4.012   4.584  13.118 -2.9279 -0.5601  0.9927
16819TIP3   OH271947   4.992   3.976   3.972 -0.1756 -0.2202 -0.1623
16819TIP3    H171948   4.930   3.988   4.044  0.2848 -1.0237  0.3809
16819TIP3    H271949   4.963   3.897   3.926  1.0577 -1.2758  0.7831
16820TIP3   OH271950   3.145   3.251  15.501 -0.1697  0.2741  0.0114
16820TIP3    H171951   3.178   3.336  15.531  0.3279 -0.2975  1.1494
16820TIP3    H271952   3.224   3.203  15.475 -0.3152 -0.2430  0.4901
16821TIP3   OH271953   5.302   0.605  11.578  0.4400  0.2114 -0.0673
16821TIP3    H171954   5.285   0.686  11.626  1.4691 -0.0237  0.7169
16821TIP3    H271955   5.380   0.623  11.527 -0.1129  0.1499 -0.9574
16822TIP3   OH271956   3.021   4.389   0.856  0.1273  0.4530  0.0367
16822TIP3    H171957   3.094   4.446   0.880 -0.3512  0.5446  1.3134
16822TIP3    H271958   3.062   4.306   0.831  0.7206  0.8123 -0.1871
16823TIP3   OH271959   2.996   4.376   5.100  0.6482  0.3316 -0.0316
16823TIP3    H171960   2.945   4.300   5.127  0.0609  1.1442  1.2426
16823TIP3    H271961   2.941   4.451   5.121  1.9417  1.1913  0.4289
16824TIP3   OH271962   0.722   2.057   0.288  0.2481  0.4991 -0.0839
16824TIP3    H171963   0.803   2.108   0.286  0.3117  0.3841 -1.8481
16824TIP3    H271964   0.746   1.975   0.332  1.1152  0.4572 -0.6058
16825TIP3   OH271965   4.424   3.215   3.814  0.3376 -0.1922 -0.4559
16825TIP3    H171966   4.480   3.138   3.805  1.4278  0.5388 -0.1927
16825TIP3    H271967   4.360   3.190   3.880  0.5483 -0.9488 -0.5287
16826TIP3   OH271968   5.778   2.339   0.392 -0.0362 -0.0019 -0.3487
16826TIP3    H171969   5.848   2.390   0.433  0.9055 -1.0018 -0.6851
16826TIP3    H271970   5.698   2.388   0.412  0.7810  1.3197 -0.2096
16827TIP3   OH271971   5.679   6.101   4.778 -0.1050 -0.4299  0.3737
16827TIP3    H171972   5.659   6.119   4.687 -1.3751 -0.1625  0.6830
16827TIP3    H271973   5.605   6.049   4.809 -1.0401  1.7090  1.9438
16828TIP3   OH271974   0.822   4.397  14.610 -0.3976 -0.2778 -0.3711
16828TIP3    H171975   0.825   4.465  14.542  1.3822 -0.9965 -1.0747
16828TIP3    H271976   0.889   4.423  14.673 -1.6590  0.0846  0.8722
16829TIP3   OH271977   2.290   3.243  17.191 -0.0482 -0.1073 -0.3574
16829TIP3    H171978   2.329   3.312  17.245 -0.7588 -0.3867  0.5458
16829TIP3    H271979   2.328   3.162  17.226  0.7394 -0.1885 -1.3748
16830TIP3   OH271980   1.119   1.372   1.860 -0.4117 -0.3187 -0.0534
16830TIP3    H171981   1.153   1.375   1.950 -0.5219 -1.6807  0.0572
16830TIP3    H271982   1.148   1.286   1.827 -0.4135  0.1501 -1.3043
16831TIP3   OH271983   4.457   2.517   5.263  0.2827 -0.0496 -0.5118
16831TIP3    H171984   4.403   2.532   5.186  0.3526 -0.4202 -0.6387
16831TIP3    H271985   4.481   2.604   5.294  0.6764  0.1009 -1.2150
16832TIP3   OH271986   5.121   3.777  16.305  0.2779 -0.2617  0.3248
16832TIP3    H171987   5.107   3.824  16.387  0.2071  2.6922 -1.2322
16832TIP3    H271988   5.035   3.744  16.280 -0.4320  1.8506 -0.1963
16833TIP3   OH271989   1.304   6.110  11.077  0.1966 -0.0085  0.4142
16833TIP3    H171990   1.239   6.069  11.135  1.3716 -0.9971  1.0713
16833TIP3    H271991   1.364   6.039  11.055  1.2096  0.9496  0.0287
16834TIP3   OH271992   2.457   2.792   5.697 -0.2699 -0.2953  0.1755
16834TIP3    H171993   2.390   2.829   5.640  0.5835  0.2209 -0.5267
16834TIP3    H271994   2.410   2.768   5.777 -1.2992 -0.0465 -0.3336
16835TIP3   OH271995   1.012   1.505  11.676  0.5718  0.3674  0.4196
16835TIP3    H171996   0.967   1.505  11.592  0.9291  2.3545  0.1881
16835TIP3    H271997   1.012   1.413  11.703 -0.8624 -0.1005 -1.0232
16836TIP3   OH271998   4.193   0.824   5.899 -0.0526  0.1375 -0.4297
16836TIP3    H171999   4.118   0.862   5.852 -0.6564  0.2488  0.6001
16836TIP3    H272000   4.207   0.883   5.973 -0.0029 -0.7831  0.3076
16837TIP3   OH272001   1.263   4.188  12.204  0.3734  0.3566  0.1583
16837TIP3    H172002   1.182   4.224  12.240 -0.4493 -1.5089  0.2848
16837TIP3    H272003   1.316   4.169  12.282  0.8706  1.4030  0.0844
16838TIP3   OH272004   2.407   4.314   5.751 -0.2174 -0.1164 -0.0024
16838TIP3    H172005   2.475   4.253   5.780  1.1450  0.9493 -0.8090
16838TIP3    H272006   2.330   4.291   5.802  1.0475 -0.6893  1.7177
16839TIP3   OH272007   5.824   4.798   2.329  0.2598 -0.5083 -0.4271
16839TIP3    H172008   5.892   4.859   2.357  0.4033 -0.0730 -1.6696
16839TIP3    H272009   5.757   4.853   2.289  0.1032 -1.1063 -1.0055
16840TIP3   OH272010   1.336   3.203  13.789 -0.1767  0.2823  0.2474
16840TIP3    H172011   1.322   3.284  13.741  0.7415  1.5200  1.9623
16840TIP3    H272012   1.397   3.226  13.859  0.7977 -2.0994  0.2780
16841TIP3   OH272013   4.758   5.956  17.128  0.2294 -0.0376 -0.0968
16841TIP3    H172014   4.821   5.886  17.110  0.8242  0.6855 -0.9341
16841TIP3    H272015   4.784   5.992  17.212 -1.1575 -1.9476  1.2290
16842TIP3   OH272016   1.527   6.632  14.863  0.2446  0.0946 -0.2595
16842TIP3    H172017   1.606   6.663  14.818  0.7483 -2.6744 -1.4540
16842TIP3    H272018   1.456   6.649  14.801  0.1645  0.7930  0.0086
16843TIP3   OH272019   4.267   6.770  17.209 -0.7244 -0.1632  0.4256
16843TIP3    H172020   4.269   6.694  17.150 -0.4083 -0.1136  0.3711
16843TIP3    H272021   4.230   6.841  17.156  0.5147  0.1555 -0.0429
16844TIP3   OH272022   5.701   6.130  15.991  0.4163 -0.6565 -0.0233
16844TIP3    H172023   5.636   6.143  16.060 -0.0725 -0.4548 -0.5167
16844TIP3    H272024   5.685   6.201  15.929  0.7506 -0.9247 -0.4203
16845TIP3   OH272025   3.425   5.403  12.894  0.1324  0.0934 -0.5151
16845TIP3    H172026   3.420   5.493  12.863  0.3047  0.8504  1.5060
16845TIP3    H272027   3.334   5.377  12.907  0.1072  0.3844 -0.0672
16846TIP3   OH272028   2.790   2.418   1.291  0.3760  0.1944  0.3049
16846TIP3    H172029   2.757   2.365   1.363 -0.9255  1.4152  0.6381
16846TIP3    H272030   2.786   2.508   1.322 -1.3375  0.8826 -1.6382
16847TIP3   OH272031   0.613   3.747  14.122 -0.2703  0.5590  0.0633
16847TIP3    H172032   0.678   3.676  14.118 -0.3119  0.4713  0.8263
16847TIP3    H272033   0.615   3.786  14.035 -0.8659 -0.9373 -0.6592
16848TIP3   OH272034   0.147   4.216  10.564 -0.3044 -0.1978 -0.3586
16848TIP3    H172035   0.203   4.247  10.494 -0.0562 -0.1729 -0.1519
16848TIP3    H272036   0.203   4.218  10.642 -1.2412  2.1251  0.3494
16849TIP3   OH272037   6.746   3.314   4.818  0.6778 -0.1350  0.4202
16849TIP3    H172038   6.709   3.281   4.736  2.1416  0.8118 -0.6746
16849TIP3    H272039   6.839   3.328   4.799  1.6256 -2.0864  2.9309
16850TIP3   OH272040   6.624   1.199   5.918 -0.2694  0.0305 -0.3971
16850TIP3    H172041   6.645   1.291   5.934 -0.5164  0.1376 -0.6823
16850TIP3    H272042   6.694   1.150   5.962 -0.5927  0.3288  0.4580
16851TIP3   OH272043   2.464   3.187  11.333 -0.0012 -0.0830  0.4314
16851TIP3    H172044   2.406   3.258  11.361  0.0443  1.6895 -3.2717
16851TIP3    H272045   2.552   3.226  11.336  0.4520 -1.1324  1.4265
16852TIP3   OH272046   2.100   4.459   5.398 -0.0679  0.3737  0.0118
16852TIP3    H172047   2.076   4.449   5.306 -1.1639 -0.7438  0.3878
16852TIP3    H272048   2.124   4.371   5.426  0.5359  0.7574  0.7277
16853TIP3   OH272049   0.461   5.937  12.637 -0.5494  0.2810 -1.1260
16853TIP3    H172050   0.555   5.948  12.653 -0.2652 -0.9106 -1.8631
16853TIP3    H272051   0.456   5.899  12.550 -1.6008 -1.8760 -0.1932
16854TIP3   OH272052   4.569   5.353  11.872  0.6046  0.3602 -0.5215
16854TIP3    H172053   4.554   5.268  11.912  1.2391  0.5064  0.0506
16854TIP3    H272054   4.531   5.346  11.785 -1.2601  0.1878  0.2393
16855TIP3   OH272055   1.359   1.207  11.829 -0.5043 -0.7870 -0.2787
16855TIP3    H172056   1.322   1.272  11.889  0.0610 -1.1621  0.4874
16855TIP3    H272057   1.386   1.258  11.753 -0.8146 -0.2400 -0.0297
16856TIP3   OH272058   4.451   3.120   1.359  0.1536  0.1579 -0.1463
16856TIP3    H172059   4.385   3.122   1.428  0.1322 -0.4168 -0.1399
16856TIP3    H272060   4.532   3.096   1.404  0.5627  1.6970 -0.0179
16857TIP3   OH272061   1.549   0.721   5.309  0.2932  0.4696  0.0530
16857TIP3    H172062   1.471   0.735   5.254 -1.2413 -2.0840  1.3816
16857TIP3    H272063   1.583   0.636   5.281  1.4633  0.6687  0.8280
16858TIP3   OH272064   4.293   5.836   0.209  0.0045 -0.2684  0.3373
16858TIP3    H172065   4.273   5.760   0.262  2.0467 -0.6651  0.6328
16858TIP3    H272066   4.300   5.802   0.120 -1.6307  0.0725  0.0524
16859TIP3   OH272067   6.359   4.398  15.530 -0.2239  0.0509 -0.3740
16859TIP3    H172068   6.271   4.364  15.515 -0.6859  0.3958  1.3575
16859TIP3    H272069   6.359   4.426  15.621  0.7731  2.8104 -1.1341
16860TIP3   OH272070   3.612   0.014  17.118  0.2514 -0.3659 -0.2070
16860TIP3    H172071   3.685   0.025  17.179  2.9281  0.5855 -3.3095
16860TIP3    H272072   3.629  -0.070  17.076  0.1202  0.2652 -1.5735
16861TIP3   OH272073   2.298   2.661   0.946  0.2715 -0.0414 -0.3075
16861TIP3    H172074   2.249   2.742   0.948  1.3059  0.6033 -0.3211
16861TIP3    H272075   2.272   2.619   0.864 -0.6074  0.0477 -0.0765
16862TIP3   OH272076   4.444   6.591  14.214  0.3502 -0.0423 -0.2679
16862TIP3    H172077   4.446   6.558  14.303  1.0063  1.1508  0.1832
16862TIP3    H272078   4.472   6.682  14.221 -1.6216  0.7354 -1.4046
16863TIP3   OH272079   1.973   0.555   0.931  0.4451 -0.2537  0.3328
16863TIP3    H172080   1.968   0.578   0.838  0.5832 -0.9885  0.1371
16863TIP3    H272081   2.067   0.553   0.950  0.4128  2.2547  1.1157
16864TIP3   OH272082   0.354   4.844  16.994 -0.6472 -0.0871 -0.1192
16864TIP3    H172083   0.400   4.792  17.060 -0.7897 -0.3015 -0.1854
16864TIP3    H272084   0.400   4.927  16.992 -1.6589  0.5582  1.4575
16865TIP3   OH272085   1.755   6.716   2.866 -0.0091 -0.6426 -0.1816
16865TIP3    H172086   1.755   6.723   2.771 -0.0024 -3.0020 -0.4036
16865TIP3    H272087   1.667   6.745   2.892 -0.0929 -0.2278 -0.9133
16866TIP3   OH272088   6.755   0.293   0.902  0.4940  0.4648 -0.1225
16866TIP3    H172089   6.837   0.313   0.947  0.4511  0.5984 -0.1027
16866TIP3    H272090   6.753   0.197   0.896  1.1856  0.5013 -1.1315
16867TIP3   OH272091   5.925   6.349   3.180 -0.4326  0.0144 -0.7329
16867TIP3    H172092   6.016   6.330   3.158  0.1627  0.5636  1.0848
16867TIP3    H272093   5.890   6.267   3.214 -0.7364 -0.2750 -1.6975
16868TIP3   OH272094   0.295   3.718  14.505  0.3177  0.0030  0.4015
16868TIP3    H172095   0.348   3.745  14.430  0.1378 -1.9352 -0.4994
16868TIP3    H272096   0.215   3.769  14.498  0.9872  1.0530  0.2564
16869TIP3   OH272097   0.654   6.245  11.702 -0.1789 -0.1401  0.2623
16869TIP3    H172098   0.651   6.203  11.616  1.6228  1.1539 -0.5166
16869TIP3    H272099   0.609   6.184  11.760 -1.2278 -1.1802 -1.5307
16870TIP3   OH272100   5.438   3.727   0.594 -0.2222 -0.2451  0.1978
16870TIP3    H172101   5.430   3.632   0.601  2.5143 -0.5671  0.0321
16870TIP3    H272102   5.493   3.752   0.668 -0.8960  1.2141  0.2239
16871TIP3   OH272103   0.357   5.459  11.647 -0.2698  0.0047  0.2613
16871TIP3    H172104   0.274   5.473  11.602  0.4630  0.5193 -0.9773
16871TIP3    H272105   0.404   5.396  11.593 -0.3689 -1.3144  1.6596
16872TIP3   OH272106   2.636   2.317   4.499  0.3485  0.0188 -0.1299
16872TIP3    H172107   2.595   2.280   4.421  0.4295  0.5174 -0.4149
16872TIP3    H272108   2.728   2.330   4.474  0.4361 -0.0733  0.1395
16873TIP3   OH272109   4.802   2.599   0.716 -0.1437 -0.1501  0.4427
16873TIP3    H172110   4.754   2.673   0.752  0.1880 -0.1284  0.8498
16873TIP3    H272111   4.803   2.534   0.786 -0.5220 -0.5879  0.0537
16874TIP3   OH272112   2.401   1.967   2.813 -0.4598  0.4339  0.3561
16874TIP3    H172113   2.369   1.982   2.902  0.7105 -0.8342  1.0469
16874TIP3    H272114   2.477   2.025   2.804  0.9691 -1.1881  1.1748
16875TIP3   OH272115   5.260   4.985  16.698 -0.1098  0.5712  0.2611
16875TIP3    H172116   5.304   5.033  16.767 -1.2439  2.6580 -0.3762
16875TIP3    H272117   5.330   4.941  16.650  0.6297 -1.8788  3.3062
16876TIP3   OH272118   0.938   0.790   5.642 -0.7646  0.2072 -0.2280
16876TIP3    H172119   1.002   0.833   5.698 -1.0892  1.4907 -0.8111
16876TIP3    H272120   0.867   0.766   5.701 -0.4728  0.2479  0.1453
16877TIP3   OH272121   5.082   4.045  15.315  0.4772  0.3173 -0.2821
16877TIP3    H172122   5.066   3.966  15.366 -0.5570  0.3344 -0.5597
16877TIP3    H272123   5.095   4.114  15.380 -0.5459  0.2862 -0.0306
16878TIP3   OH272124   3.814   1.427  13.781 -0.2223  0.7009  0.1742
16878TIP3    H172125   3.883   1.467  13.833  0.3668  0.4476 -0.3991
16878TIP3    H272126   3.858   1.358  13.732 -1.2135 -0.6610  1.1426
16879TIP3   OH272127   3.412   5.470  16.353 -0.2065  0.4564  0.0470
16879TIP3    H172128   3.409   5.495  16.445 -1.9617  0.0605  0.1311
16879TIP3    H272129   3.418   5.375  16.354 -0.7966  0.4115 -0.2376
16880TIP3   OH272130   0.591   3.525  10.886  0.4383  0.2910 -0.3849
16880TIP3    H172131   0.538   3.555  10.811  1.3185 -0.5977 -1.3907
16880TIP3    H272132   0.645   3.601  10.909 -1.7118  1.4825  1.1507
16881TIP3   OH272133   6.802   2.820  15.130  0.5468 -0.2437 -0.0885
16881TIP3    H172134   6.769   2.882  15.065 -0.2427 -1.0432 -0.4680
16881TIP3    H272135   6.897   2.834  15.130  0.5447 -0.1270 -1.3113
16882TIP3   OH272136   6.467   5.916  12.466 -0.5880 -0.1330 -0.3580
16882TIP3    H172137   6.448   5.975  12.539  0.7579  0.9132 -0.8207
16882TIP3    H272138   6.553   5.944  12.434 -0.6659 -1.2819 -1.6529
16883TIP3   OH272139   0.668   1.569  11.306 -0.5306 -1.0736 -0.2641
16883TIP3    H172140   0.692   1.504  11.240  0.1457  0.2458 -1.3700
16883TIP3    H272141   0.603   1.624  11.262  0.4396  0.2392 -0.0978
16884TIP3   OH272142   2.027   1.624  16.285  0.4534  0.2845  0.6758
16884TIP3    H172143   2.029   1.555  16.219 -0.0384  0.7437  0.1787
16884TIP3    H272144   1.958   1.683  16.256  1.5264  1.5128  0.5624
16885TIP3   OH272145   3.286   0.668  14.334 -0.2481 -0.4750 -0.4865
16885TIP3    H172146   3.220   0.671  14.265 -0.0835 -0.6307 -0.6527
16885TIP3    H272147   3.370   0.671  14.288 -0.0784  2.5898 -0.1848
16886TIP3   OH272148   1.367   2.488   5.220  0.1834  0.2104  0.4751
16886TIP3    H172149   1.437   2.426   5.200  0.0746  0.6860 -1.6103
16886TIP3    H272150   1.398   2.572   5.185 -1.2875  0.4907 -0.2423
16887TIP3   OH272151   5.625   6.559   4.281  0.1932  0.0009  0.0749
16887TIP3    H172152   5.623   6.540   4.187 -0.9998  0.8912 -0.0984
16887TIP3    H272153   5.714   6.534   4.308  0.7145  0.1689 -1.3785
16888TIP3   OH272154   6.157   4.259  12.343  0.1076 -0.1381  0.5388
16888TIP3    H172155   6.112   4.288  12.423  0.9386  1.6952  0.4028
16888TIP3    H272156   6.250   4.270  12.364  0.6018 -3.5484  0.7153
16889TIP3   OH272157   4.997   4.361   5.883 -0.6828 -0.2838 -0.1776
16889TIP3    H172158   4.914   4.333   5.921 -0.4295 -0.2656  0.3979
16889TIP3    H272159   4.974   4.397   5.797 -1.1451 -1.2926 -0.5014
16890TIP3   OH272160   5.289   6.454  13.263 -0.2846 -0.3229 -0.7932
16890TIP3    H172161   5.334   6.488  13.340 -0.2734  0.8176 -1.2833
16890TIP3    H272162   5.212   6.409  13.297 -1.2821  1.7277 -0.1835
16891TIP3   OH272163   5.225   0.160  15.804 -0.4654  0.5078  0.2590
16891TIP3    H172164   5.241   0.236  15.859  0.3140 -0.2302  1.0841
16891TIP3    H272165   5.177   0.099  15.859  1.2820 -0.6951  0.5444
16892TIP3   OH272166   1.576   5.370   3.688  0.0177 -0.4933  0.2509
16892TIP3    H172167   1.619   5.314   3.753 -0.0746 -2.6126 -1.4165
16892TIP3    H272168   1.619   5.349   3.606 -2.1036 -0.3825 -0.9566
16893TIP3   OH272169   2.428   3.757  15.647 -0.0070  0.6281 -0.1533
16893TIP3    H172170   2.514   3.777  15.684  0.3881  0.9568 -1.2254
16893TIP3    H272171   2.416   3.821  15.577 -1.3505  0.9161  0.2964
16894TIP3   OH272172   5.690   3.354  10.706 -0.5041  0.4465  0.4763
16894TIP3    H172173   5.715   3.428  10.649 -0.1874 -0.3078 -0.3868
16894TIP3    H272174   5.639   3.297  10.649 -0.1099 -0.3590  0.9235
16895TIP3   OH272175   3.210   3.214   2.326  0.6341  0.2481  0.1738
16895TIP3    H172176   3.125   3.256   2.336  0.9491  0.9017  0.2079
16895TIP3    H272177   3.272   3.277   2.364  1.1582 -0.0965 -0.0947
16896TIP3   OH272178   2.841   4.120  14.637  0.1755 -0.2805 -0.2247
16896TIP3    H172179   2.819   4.027  14.635 -0.1552 -0.1969 -1.0837
16896TIP3    H272180   2.844   4.145  14.544 -0.9964  0.8585  0.0253
16897TIP3   OH272181   0.059   2.457   1.626 -0.1612  0.0907 -0.0517
16897TIP3    H172182   0.065   2.550   1.648 -1.5755  0.3576 -0.6944
16897TIP3    H272183   0.068   2.412   1.711  2.1718  0.6748  0.0943
16898TIP3   OH272184   1.401   3.528   5.662 -0.5118 -0.4897 -0.3858
16898TIP3    H172185   1.362   3.533   5.575 -0.4433  2.0391 -0.3305
16898TIP3    H272186   1.480   3.476   5.650  0.3288  1.1046 -2.2103
16899TIP3   OH272187   5.209   2.994   0.101 -0.1457 -0.0559  0.1454
16899TIP3    H172188   5.126   2.983   0.149  0.1586 -2.5210  0.2156
16899TIP3    H272189   5.271   3.023   0.168 -0.4306 -0.4194  0.5715
16900TIP3   OH272190   2.584   6.069   2.077  0.1680  0.2172 -0.6076
16900TIP3    H172191   2.609   6.001   2.015  0.5295  0.6443 -0.9301
16900TIP3    H272192   2.649   6.063   2.147  1.4277  1.5484 -1.6055
16901TIP3   OH272193   1.348   4.274   4.582  1.0237 -0.6527 -0.2632
16901TIP3    H172194   1.330   4.196   4.530 -1.1227  0.3157 -1.0820
16901TIP3    H272195   1.304   4.258   4.666  2.9943 -1.4709  0.6623
16902TIP3   OH272196   3.793   5.906  16.834 -0.1914 -0.9704 -0.2872
16902TIP3    H172197   3.831   5.836  16.780 -1.1547 -1.7965  0.0904
16902TIP3    H272198   3.737   5.860  16.897 -0.7465  0.1392  0.0417
16903TIP3   OH272199   0.318   5.947   2.309  0.1028 -0.0499  0.5866
16903TIP3    H172200   0.366   5.909   2.235  2.9545 -0.9718  2.7270
16903TIP3    H272201   0.265   5.874   2.342 -1.8195  0.5797 -0.9037
16904TIP3   OH272202   6.130   1.758  14.499 -0.3448  0.0230 -0.3744
16904TIP3    H172203   6.189   1.795  14.565  0.0508 -1.9964  0.4718
16904TIP3    H272204   6.055   1.726  14.549 -0.9537  0.1999 -1.1458
16905TIP3   OH272205   1.735   3.675   1.998 -0.1990 -0.2876  0.9097
16905TIP3    H172206   1.672   3.660   2.068  1.2964 -0.1348  2.3584
16905TIP3    H272207   1.767   3.588   1.975 -1.0840 -0.3867  0.0072
16906TIP3   OH272208   2.336   3.257  10.924  0.1640 -0.2473  0.0664
16906TIP3    H172209   2.277   3.258  10.849 -0.9792  2.4723  0.9038
16906TIP3    H272210   2.287   3.211  10.992 -0.1334  0.1370  0.1153
16907TIP3   OH272211   1.510   2.395  10.604 -0.2555  0.3382  0.3411
16907TIP3    H172212   1.538   2.466  10.547 -1.2829 -0.0290 -0.6544
16907TIP3    H272213   1.414   2.399  10.603 -0.3405 -1.1859  0.0745
16908TIP3   OH272214   6.339   0.976  11.286  0.1467  0.3944 -0.8031
16908TIP3    H172215   6.371   0.898  11.332 -0.9856  0.6007  0.3519
16908TIP3    H272216   6.245   0.963  11.279 -0.5238  2.9428  1.9650
16909TIP3   OH272217   6.404   5.952  14.727 -0.2956 -0.4959 -0.3520
16909TIP3    H172218   6.424   6.007  14.651  1.4094 -0.2385  0.2423
16909TIP3    H272219   6.367   5.872  14.689 -1.2788  0.3700 -1.3137
16910TIP3   OH272220   0.357   1.274  13.485 -0.6746 -0.5658  0.3395
16910TIP3    H172221   0.316   1.351  13.447  1.0863  0.4613  0.4559
16910TIP3    H272222   0.374   1.299  13.576  1.3008 -0.4668 -0.0075
16911TIP3   OH272223   2.143   5.271   3.151  0.5021  0.0106  0.0006
16911TIP3    H172224   2.201   5.195   3.142 -0.1373 -0.7125  1.5137
16911TIP3    H272225   2.077   5.259   3.082  0.4723 -0.7612  0.1555
16912TIP3   OH272226   4.310   0.684  10.961 -0.2832  0.2841 -0.2362
16912TIP3    H172227   4.258   0.609  10.991 -1.1012  0.8458 -0.2457
16912TIP3    H272228   4.383   0.688  11.023  0.6468 -1.4723 -1.1442
16913TIP3   OH272229   2.547   3.459  15.185 -0.3447 -0.1395 -0.0624
16913TIP3    H172230   2.577   3.546  15.156  0.3782 -0.7003 -1.0428
16913TIP3    H272231   2.532   3.470  15.279  0.3664  0.8876 -0.0480
16914TIP3   OH272232   0.360   6.262  16.025  0.0090  0.0098 -0.0975
16914TIP3    H172233   0.272   6.228  16.008 -0.1215 -0.0155  0.6314
16914TIP3    H272234   0.364   6.274  16.119 -0.4588  3.4368 -0.4007
16915TIP3   OH272235   3.889   5.868   0.866 -0.1948 -0.3314 -0.1620
16915TIP3    H172236   3.879   5.933   0.796  0.0800  0.8982  0.9111
16915TIP3    H272237   3.843   5.905   0.941 -0.4872 -1.6338  0.3258
16916TIP3   OH272238   3.516   1.031  11.569 -0.2142 -0.6467 -0.8186
16916TIP3    H172239   3.583   1.099  11.572  0.8053 -1.6420 -0.5812
16916TIP3    H272240   3.549   0.961  11.626 -1.1202 -1.4503 -1.2483
16917TIP3   OH272241   6.663   3.318  16.647 -0.1708  0.5145 -0.3662
16917TIP3    H172242   6.677   3.359  16.733  1.8686  1.9427 -1.2934
16917TIP3    H272243   6.587   3.364  16.611  0.7030  1.9739 -0.4463
16918TIP3   OH272244   6.571   5.093  11.859 -0.1427 -0.4170 -0.1871
16918TIP3    H172245   6.663   5.071  11.845 -0.1471 -0.0799 -0.7862
16918TIP3    H272246   6.555   5.071  11.951  0.6756  0.0054  0.0679
16919TIP3   OH272247   4.946   1.740   4.469 -0.2218 -0.1248 -0.1776
16919TIP3    H172248   4.948   1.782   4.555 -0.2414  0.6716 -0.5596
16919TIP3    H272249   5.023   1.683   4.468  0.2174  0.4573  0.0730
16920TIP3   OH272250   2.539   1.201  12.340 -0.0646 -0.0166 -0.1541
16920TIP3    H172251   2.593   1.240  12.408  0.7981 -1.0827 -0.2022
16920TIP3    H272252   2.454   1.187  12.382  0.6118 -1.1599  0.8792
16921TIP3   OH272253   6.764   3.795   0.963 -0.1102  0.3654  0.0586
16921TIP3    H172254   6.747   3.840   1.046  1.9270  0.6358  0.3924
16921TIP3    H272255   6.704   3.836   0.901 -0.2141  1.6404  0.9517
16922TIP3   OH272256   1.589   6.177  14.818  0.0175 -0.3352 -0.1463
16922TIP3    H172257   1.519   6.151  14.878  1.0877 -0.3777  1.1491
16922TIP3    H272258   1.601   6.101  14.760  0.1647 -1.0388  0.7754
16923TIP3   OH272259   6.617   0.362   5.977  0.5242 -0.1836 -0.4247
16923TIP3    H172260   6.585   0.318   6.056 -0.8001  1.0039 -0.2551
16923TIP3    H272261   6.704   0.394   6.001  0.5373 -0.6743  0.2158
16924TIP3   OH272262   1.183   4.248   1.089  0.8092 -0.1707 -0.2730
16924TIP3    H172263   1.166   4.206   1.173  1.3531  1.2947  0.6180
16924TIP3    H272264   1.211   4.178   1.032  1.8943 -0.9965  1.2029
16925TIP3   OH272265   5.636   1.864   3.058 -0.0076  0.1262 -0.5410
16925TIP3    H172266   5.552   1.904   3.078 -0.9417 -0.5610 -2.8077
16925TIP3    H272267   5.616   1.772   3.043  1.4700 -0.4284  0.6389
16926TIP3   OH272268   4.374   6.554   2.223  0.2999  0.1975 -0.2650
16926TIP3    H172269   4.295   6.536   2.172  0.7316  0.1665 -0.9386
16926TIP3    H272270   4.444   6.558   2.158  1.2206 -1.8554  0.5167
16927TIP3   OH272271   0.081   5.675   4.284 -0.3308  0.9085 -0.2747
16927TIP3    H172272   0.062   5.745   4.221 -1.2946 -0.2895 -1.3841
16927TIP3    H272273   0.176   5.663   4.279 -0.3355  1.1551 -1.1683
16928TIP3   OH272274   2.847   5.499   1.351  0.2832 -0.6126  0.5906
16928TIP3    H172275   2.827   5.408   1.372 -1.2741 -0.2579  0.7221
16928TIP3    H272276   2.840   5.503   1.255 -0.6378 -0.4154  0.6616
16929TIP3   OH272277   3.103   6.734  10.864  0.7445 -0.6901  0.0206
16929TIP3    H172278   3.036   6.748  10.798  0.9888 -1.1681 -0.3363
16929TIP3    H272279   3.172   6.797  10.843  0.5345 -0.3933  0.2168
16930TIP3   OH272280   5.544   6.561  11.209  0.1126  0.5074 -0.4464
16930TIP3    H172281   5.512   6.472  11.200 -1.4918  0.9531  0.4919
16930TIP3    H272282   5.590   6.562  11.293 -0.3567  0.7052 -0.1921
16931TIP3   OH272283   3.855   6.230  15.881 -0.1638  0.4585  0.1776
16931TIP3    H172284   3.846   6.248  15.787 -0.1450  0.0851  0.1037
16931TIP3    H272285   3.768   6.249  15.917 -0.2837  0.2241  0.0190
16932TIP3   OH272286   4.456   4.212  14.608 -0.1935 -0.2838 -0.6746
16932TIP3    H172287   4.363   4.236  14.609 -0.4337 -1.1785  0.4470
16932TIP3    H272288   4.489   4.240  14.693  1.3891  2.8772 -2.1221
16933TIP3   OH272289   6.005   0.239   3.728  0.2492  0.0844  0.1699
16933TIP3    H172290   5.926   0.261   3.679 -0.2440 -0.1833  0.8483
16933TIP3    H272291   5.978   0.237   3.819  1.2405  0.9227  0.5087
16934TIP3   OH272292   4.919   1.738   2.536  0.0905 -0.0823  0.7285
16934TIP3    H172293   4.872   1.784   2.467 -0.4021 -0.2023  0.9810
16934TIP3    H272294   4.850   1.703   2.593  0.4999  1.4730  2.2407
16935TIP3   OH272295   6.743   0.621   3.175  0.6316 -0.3782  0.0814
16935TIP3    H172296   6.722   0.656   3.261 -0.5899 -1.0671  0.0987
16935TIP3    H272297   6.836   0.638   3.163  0.7734 -0.1035  1.4571
16936TIP3   OH272298   0.238   1.355  12.735 -0.0983  0.6730 -0.4096
16936TIP3    H172299   0.219   1.403  12.816 -0.5986 -1.2378  0.6716
16936TIP3    H272300   0.164   1.376  12.678 -0.0363  1.5881 -0.1752
16937TIP3   OH272301   2.873   2.171  17.041  0.5580  0.2959 -0.4728
16937TIP3    H172302   2.811   2.163  16.969 -0.5953  0.2185  0.4924
16937TIP3    H272303   2.842   2.246  17.091 -0.4964 -1.4196  1.6132
16938TIP3   OH272304   0.892   6.623   1.693  0.2791 -0.4235 -0.2652
16938TIP3    H172305   0.975   6.660   1.723 -0.5887  1.4955 -0.0966
16938TIP3    H272306   0.845   6.600   1.773 -0.5725  1.3816 -0.1925
16939TIP3   OH272307   5.987   1.163   4.346 -0.1613 -0.0495 -0.1163
16939TIP3    H172308   5.945   1.180   4.430 -0.5155  0.0334 -0.3066
16939TIP3    H272309   6.063   1.109   4.367 -0.7129 -0.7297  0.1711
16940TIP3   OH272310   1.016   0.156  13.055 -0.4669  0.3764  0.1522
16940TIP3    H172311   1.039   0.130  13.144 -1.3924  1.6920  0.8055
16940TIP3    H272312   0.936   0.107  13.035 -0.4575  0.3465  0.1896
16941TIP3   OH272313   4.169   6.327   2.759  0.1577  0.2211  0.2852
16941TIP3    H172314   4.237   6.394   2.768 -0.2559  0.9595 -1.5656
16941TIP3    H272315   4.096   6.361   2.810  0.0982  1.0232 -0.3003
16942TIP3   OH272316   3.179   6.553   5.589  0.8337 -0.2387  0.4083
16942TIP3    H172317   3.102   6.528   5.640 -1.3299 -0.5689 -2.7374
16942TIP3    H272318   3.249   6.496   5.621 -1.1730 -2.5444  0.9389
16943TIP3   OH272319   5.931   1.845   3.927  0.1458 -0.0545 -0.1944
16943TIP3    H172320   5.992   1.915   3.951  1.5062 -1.1076 -0.4437
16943TIP3    H272321   5.936   1.841   3.831 -0.7610  0.2284 -0.2594
16944TIP3   OH272322   2.103   4.366  13.111 -0.3321 -0.5119 -0.3147
16944TIP3    H172323   2.029   4.306  13.104  0.0452 -0.8893 -1.3844
16944TIP3    H272324   2.178   4.310  13.126 -0.4533 -0.0119  2.9505
16945TIP3   OH272325   2.960   5.353   0.137  0.3352 -0.5362 -0.2127
16945TIP3    H172326   2.897   5.301   0.086  1.1012 -0.8567 -0.8573
16945TIP3    H272327   3.036   5.362   0.079  0.8669 -0.1124  0.5325
16946TIP3   OH272328   5.106   1.200   4.889 -0.5717  0.0479 -0.5009
16946TIP3    H172329   5.057   1.282   4.899 -0.3160  0.0051  1.3169
16946TIP3    H272330   5.039   1.133   4.880 -0.7838  0.4127 -2.0531
16947TIP3   OH272331   5.064   1.541   1.046 -0.4153  0.5119  0.2120
16947TIP3    H172332   5.055   1.511   0.955  0.1529 -0.7224  0.5433
16947TIP3    H272333   4.974   1.543   1.079 -0.9622  3.5574 -1.1119
16948TIP3   OH272334   3.705   3.985  15.355 -0.0928 -0.8763 -0.9413
16948TIP3    H172335   3.782   4.031  15.320 -0.4021  0.8767  0.5084
16948TIP3    H272336   3.649   4.055  15.388 -0.6891 -2.2714  1.2148
16949TIP3   OH272337   4.360   5.531  12.770  0.5143  0.6489  0.0526
16949TIP3    H172338   4.410   5.590  12.714 -0.6716  2.0250  0.3694
16949TIP3    H272339   4.419   5.458  12.786  1.5153  1.0350 -1.5545
16950TIP3   OH272340   4.178   3.378   1.329 -0.4886 -0.3978 -0.0613
16950TIP3    H172341   4.112   3.419   1.385 -0.7757 -1.7993  0.6595
16950TIP3    H272342   4.156   3.409   1.241  0.7459  2.8614  0.6440
16951TIP3   OH272343   3.968   3.879  12.643  0.0028  0.0129  0.1186
16951TIP3    H172344   4.000   3.861  12.555 -3.1710  2.2410 -1.7153
16951TIP3    H272345   3.986   3.972  12.657 -0.3550 -0.0897  1.4171
16952TIP3   OH272346   6.317   3.508   5.239 -0.0882  0.0826 -0.0389
16952TIP3    H172347   6.381   3.449   5.198 -1.2771  0.3045 -2.3120
16952TIP3    H272348   6.371   3.566   5.293  1.4670 -0.7263 -0.6399
16953TIP3   OH272349   5.416   4.776  17.045  0.5524  0.3122  0.0940
16953TIP3    H172350   5.395   4.762  16.953 -1.2889 -0.6426  0.6034
16953TIP3    H272351   5.345   4.832  17.078  1.6976  1.4375  0.7383
16954TIP3   OH272352   1.833   4.904  11.321  1.0943 -0.2047 -0.7592
16954TIP3    H172353   1.870   4.989  11.347 -0.4486 -0.2267  1.8369
16954TIP3    H272354   1.868   4.842  11.385 -0.7233 -0.7944 -0.2740
16955TIP3   OH272355   5.492   2.797   4.328 -0.4898  0.0887  0.2817
16955TIP3    H172356   5.497   2.706   4.359  1.4191  0.6354  1.8420
16955TIP3    H272357   5.475   2.848   4.408 -3.5201  1.0211 -0.8421
16956TIP3   OH272358   5.846   5.241   4.537 -0.2733  0.2216 -0.5536
16956TIP3    H172359   5.808   5.207   4.456  0.4005  1.3803 -1.3839
16956TIP3    H272360   5.936   5.208   4.538  0.1605  1.3358 -1.0039
16957TIP3   OH272361   0.525   5.532   2.983 -0.0619  0.5318  0.2062
16957TIP3    H172362   0.577   5.607   3.013  0.8731 -0.1887  0.4229
16957TIP3    H272363   0.497   5.555   2.895  1.7642  0.3733 -0.4422
16958TIP3   OH272364   5.025   1.626  12.094  0.4056 -0.3360 -0.2561
16958TIP3    H172365   5.117   1.601  12.103  0.9461  2.0398  3.2147
16958TIP3    H272366   5.016   1.702  12.152 -3.3691  0.6535 -1.8644
16959TIP3   OH272367   6.417   2.884   4.813 -0.1026  0.1243  0.2879
16959TIP3    H172368   6.497   2.896   4.863  0.1943 -0.4638 -0.0426
16959TIP3    H272369   6.433   2.808   4.758 -0.3876  0.8010 -0.7787
16960TIP3   OH272370   2.419   5.628  13.498  0.1174  0.3586 -0.1075
16960TIP3    H172371   2.441   5.594  13.412  0.1298  0.4199 -0.1292
16960TIP3    H272372   2.330   5.663  13.488  1.2971  3.4546 -1.0295
16961TIP3   OH272373   0.843   1.015   3.532 -0.6183  0.3052  0.1355
16961TIP3    H172374   0.770   1.031   3.473  1.3196  1.9700 -2.0223
16961TIP3    H272375   0.901   0.956   3.484  0.6433  1.0607  0.6710
16962TIP3   OH272376   3.300   4.684  13.245 -0.4279 -0.2654 -0.2823
16962TIP3    H172377   3.371   4.735  13.285 -0.6104  0.4288 -0.8362
16962TIP3    H272378   3.280   4.617  13.310 -2.2748  2.1853  1.9149
16963TIP3   OH272379   4.120   0.392   3.552  0.3241 -0.5243 -0.0066
16963TIP3    H172380   4.212   0.371   3.535  0.1067 -1.2188 -0.3534
16963TIP3    H272381   4.107   0.478   3.513  0.7615 -0.5334 -0.1739
16964TIP3   OH272382   4.884   5.493   5.259 -0.5579  0.2948 -0.3751
16964TIP3    H172383   4.846   5.579   5.278  1.4186  1.5707 -1.9159
16964TIP3    H272384   4.938   5.474   5.335  1.8568  2.1814 -1.4863
16965TIP3   OH272385   1.145   3.451   2.815 -0.1838 -0.6863 -0.5174
16965TIP3    H172386   1.088   3.485   2.746 -0.2360  1.8483  0.6477
16965TIP3    H272387   1.089   3.445   2.892  0.2002 -2.1383 -0.3263
16966TIP3   OH272388   2.904   0.777  12.681 -0.3518 -0.5779 -0.5122
16966TIP3    H172389   2.988   0.779  12.636  0.0246 -0.7220  0.1715
16966TIP3    H272390   2.847   0.833  12.628  0.2829 -0.1693 -0.7710
16967TIP3   OH272391   5.946   3.943   5.295  0.1051 -0.6150 -0.1553
16967TIP3    H172392   6.015   3.967   5.357 -1.1106 -2.0450  1.8813
16967TIP3    H272393   5.865   3.952   5.345 -1.1968  0.4912 -2.3222
16968TIP3   OH272394   1.076   6.618  11.158 -0.0155  0.2410 -0.3236
16968TIP3    H172395   1.119   6.606  11.073  0.0269  1.5643 -0.5068
16968TIP3    H272396   0.991   6.576  11.148  0.4876 -0.7444 -0.5812
16969TIP3   OH272397   3.896   0.844   1.757 -0.1621 -0.0976 -0.2874
16969TIP3    H172398   3.963   0.906   1.727 -1.5699  0.2403 -3.0270
16969TIP3    H272399   3.822   0.899   1.783 -1.2358 -0.5199 -2.2550
16970TIP3   OH272400   4.004   0.666   3.899 -0.0681  0.0240 -0.3909
16970TIP3    H172401   4.023   0.654   3.992 -1.0403  1.4374  0.0170
16970TIP3    H272402   3.960   0.585   3.873 -0.9552  0.1333  0.7138
16971TIP3   OH272403   4.583   6.382   6.126  0.2692  0.0959  0.0611
16971TIP3    H172404   4.601   6.325   6.200  0.2938  1.4493  1.1272
16971TIP3    H272405   4.501   6.427   6.149  0.2775  0.5424 -0.7221
16972TIP3   OH272406   3.331   0.585  15.595  0.2735  0.2867 -0.3171
16972TIP3    H172407   3.398   0.518  15.610  0.3691  0.6036  0.7938
16972TIP3    H272408   3.261   0.563  15.657  1.0501  2.1674  1.3266
16973TIP3   OH272409   5.400   1.171  11.870 -0.3011 -0.0509  0.6079
16973TIP3    H172410   5.483   1.201  11.835 -0.7885 -0.3019 -0.8477
16973TIP3    H272411   5.360   1.249  11.908  0.8520 -0.0587  1.8931
16974TIP3   OH272412   1.409   2.797  13.675 -0.1821 -0.1864  0.6568
16974TIP3    H172413   1.350   2.723  13.659 -0.4632 -0.3374  2.1588
16974TIP3    H272414   1.465   2.766  13.747  1.3264  0.1843 -0.3213
16975TIP3   OH272415   4.752   5.118   0.733 -0.3300 -0.3455  0.2383
16975TIP3    H172416   4.697   5.184   0.776 -0.9056 -0.2830 -0.5750
16975TIP3    H272417   4.735   5.038   0.782 -0.5052 -0.1390  0.5200
16976TIP3   OH272418   6.363   6.394  12.630 -0.4188 -0.2431 -0.4354
16976TIP3    H172419   6.338   6.307  12.600  0.5133  0.0965 -2.3390
16976TIP3    H272420   6.288   6.449  12.607 -0.6415 -0.3799 -0.0463
16977TIP3   OH272421   2.807   1.417   3.629 -0.9196 -0.0339  0.0566
16977TIP3    H172422   2.735   1.466   3.669 -1.3579 -1.4539  1.0899
16977TIP3    H272423   2.775   1.327   3.626  0.5924 -0.5874 -0.0116
16978TIP3   OH272424   6.323   3.729  14.145 -0.3569  0.0919 -0.3869
16978TIP3    H172425   6.243   3.725  14.092 -1.1886  0.6015  0.7877
16978TIP3    H272426   6.394   3.732  14.081 -1.0983 -2.6431 -1.5083
16979TIP3   OH272427   4.571   5.879   5.046 -0.2519  0.1793  0.0956
16979TIP3    H172428   4.592   5.857   4.955  1.4703 -0.1160  0.5453
16979TIP3    H272429   4.648   5.925   5.078 -0.8748  0.3470  1.3987
16980TIP3   OH272430   1.182   1.570   3.180  0.3411  0.5112  0.1631
16980TIP3    H172431   1.158   1.655   3.218 -1.1846  0.8133 -1.3627
16980TIP3    H272432   1.197   1.589   3.088  3.0531 -0.3641  0.3303
16981TIP3   OH272433   0.982   0.851   3.018 -0.4330  0.0149  0.3804
16981TIP3    H172434   1.072   0.830   3.046 -0.6329 -0.6827  0.5152
16981TIP3    H272435   0.993   0.920   2.953  0.1687  0.3085  0.7840
16982TIP3   OH272436   1.888   5.646  15.701  0.6354 -0.1124  0.7711
16982TIP3    H172437   1.906   5.714  15.636  0.2768 -0.0441  0.7396
16982TIP3    H272438   1.870   5.567  15.648 -0.0515  0.0373  0.7661
16983TIP3   OH272439   2.612   0.943   4.421  0.1381 -0.4768  0.4866
16983TIP3    H172440   2.568   0.865   4.386 -0.9357  0.3492 -0.0864
16983TIP3    H272441   2.638   0.993   4.343  1.6764 -0.7032  0.8330
16984TIP3   OH272442   0.294   1.820   2.694 -0.3292  0.2158 -0.5545
16984TIP3    H172443   0.315   1.854   2.781 -0.5963  1.2197 -0.8693
16984TIP3    H272444   0.309   1.894   2.635 -2.7101  0.3743 -1.0393
16985TIP3   OH272445   5.785   0.399  14.677  0.5734  0.1858  0.1176
16985TIP3    H172446   5.787   0.374  14.585  0.4097  0.1009  0.1379
16985TIP3    H272447   5.812   0.320  14.724  1.6770  0.5147  0.0831
16986TIP3   OH272448   2.338   4.277   0.879  0.5699  0.0828 -1.0473
16986TIP3    H172449   2.336   4.372   0.887 -0.6193 -0.0308  0.4339
16986TIP3    H272450   2.291   4.258   0.798  0.9682  0.7541 -1.4398
16987TIP3   OH272451   1.179   0.395   3.100  0.0583  0.3741 -0.1515
16987TIP3    H172452   1.216   0.339   3.031  1.4040 -0.1124  0.9149
16987TIP3    H272453   1.087   0.405   3.076  0.5277  0.4144 -2.1435
16988TIP3   OH272454   5.120   6.270   1.646  0.3513 -0.7513 -0.4623
16988TIP3    H172455   5.052   6.216   1.606 -1.6738  0.0283  1.6858
16988TIP3    H272456   5.152   6.218   1.720 -2.4319  1.1950  2.3407
16989TIP3   OH272457   4.380   0.066  16.058 -0.0619  0.2865 -0.2510
16989TIP3    H172458   4.293   0.105  16.065  0.0317  0.7840 -1.6305
16989TIP3    H272459   4.440   0.134  16.092 -0.0459  0.7109 -1.1155
16990TIP3   OH272460   4.047   4.823  14.896  0.3430  0.3057  0.1948
16990TIP3    H172461   4.132   4.788  14.923  1.0267  1.1584 -0.7891
16990TIP3    H272462   4.061   4.856  14.808 -1.0157  0.4834  0.0201
16991TIP3   OH272463   1.278   4.787  13.443  0.4067  0.6762  0.2568
16991TIP3    H172464   1.312   4.862  13.491  1.3037  0.2310  0.3417
16991TIP3    H272465   1.315   4.711  13.488  1.4891  0.2560 -1.2604
16992TIP3   OH272466   4.497   5.558  16.767 -0.5186 -0.2969  0.4601
16992TIP3    H172467   4.421   5.616  16.763 -2.0925 -2.3376 -1.4341
16992TIP3    H272468   4.538   5.566  16.681  0.0080 -1.0306  0.6342
16993TIP3   OH272469   4.271   1.338  13.294 -0.8115  0.1498 -0.0626
16993TIP3    H172470   4.275   1.398  13.369 -2.0758  1.7847 -1.2287
16993TIP3    H272471   4.184   1.299  13.300 -1.1109  0.6567 -0.9053
16994TIP3   OH272472   5.955   5.720  12.280  0.4883 -0.1048 -0.1599
16994TIP3    H172473   6.006   5.642  12.302 -1.3419 -1.0802  0.8308
16994TIP3    H272474   5.970   5.780  12.353  0.0249 -0.5170  0.2897
16995TIP3   OH272475   1.916   3.817   0.663  0.1438  0.8148  0.8150
16995TIP3    H172476   1.964   3.831   0.745  0.3410 -0.9269  1.0280
16995TIP3    H272477   1.906   3.722   0.656 -0.7617  0.9796 -0.6837
16996TIP3   OH272478   3.672   3.352  10.714  0.7858  0.3697  0.0579
16996TIP3    H172479   3.706   3.421  10.656 -0.1901  0.3724 -0.5279
16996TIP3    H272480   3.589   3.387  10.747  0.8870 -0.0175  0.7479
16997TIP3   OH272481   4.229   3.914  13.825  0.3375  0.1922  0.2630
16997TIP3    H172482   4.266   3.841  13.775  2.0027  1.0663  0.1404
16997TIP3    H272483   4.192   3.874  13.904  0.9154 -0.8175  0.0338
16998TIP3   OH272484   0.565   1.142   3.466  0.2157 -0.1380  0.2160
16998TIP3    H172485   0.480   1.152   3.423  0.5483 -0.6987 -0.5883
16998TIP3    H272486   0.543   1.122   3.557 -0.4956  1.5330  0.4593
16999TIP3   OH272487   4.583   1.243  11.674  0.0189 -0.2986 -0.3148
16999TIP3    H172488   4.555   1.196  11.752  0.0001 -2.1107 -1.3528
16999TIP3    H272489   4.536   1.327  11.678 -0.7558 -0.7697  1.0787
17000TIP3   OH272490   1.173   4.430  14.348 -0.6056 -0.4429 -0.3988
17000TIP3    H172491   1.079   4.442  14.357 -0.4262  1.4081 -0.5369
17000TIP3    H272492   1.186   4.404  14.257 -1.0894 -2.4692  0.0673
17001TIP3   OH272493   1.239   3.547   4.664  0.4335  0.1550 -0.1825
17001TIP3    H172494   1.255   3.636   4.693  0.8723  0.0913 -0.2174
17001TIP3    H272495   1.144   3.540   4.656  0.4635  1.3491 -2.4563
17002TIP3   OH272496   5.781   3.657  11.895 -0.4560 -0.2550  0.5092
17002TIP3    H172497   5.840   3.699  11.833 -0.7480 -0.1393  0.3050
17002TIP3    H272498   5.771   3.568  11.863 -1.5783  0.1407 -0.3340
17003TIP3   OH272499   5.818   2.852   3.365 -0.1403  0.3746 -0.1656
17003TIP3    H172500   5.792   2.933   3.409 -2.2417 -0.1010 -0.4276
17003TIP3    H272501   5.892   2.878   3.310 -0.9286  2.1890 -0.4472
17004TIP3   OH272502   3.894   1.450  17.064  0.0770  0.3038  0.5289
17004TIP3    H172503   3.869   1.485  16.978  0.5658  0.0759  0.2861
17004TIP3    H272504   3.891   1.526  17.122  1.2566  0.8076 -0.0202
17005TIP3   OH272505   6.017   1.325   4.798  0.1346  0.0059 -0.4975
17005TIP3    H172506   6.049   1.260   4.861 -0.9383 -2.1296 -2.0426
17005TIP3    H272507   6.094   1.376   4.775  1.1398 -1.0610  0.3760
17006TIP3   OH272508   3.412   2.414   5.419  0.6723  0.5094 -0.4136
17006TIP3    H172509   3.363   2.434   5.339  1.3231  0.9423 -0.7110
17006TIP3    H272510   3.432   2.321   5.412  0.7698  0.5573 -0.7818
17007TIP3   OH272511   5.652   2.010  14.832  0.0210 -0.4916 -0.4847
17007TIP3    H172512   5.697   1.926  14.846 -0.6935 -0.5579  1.7545
17007TIP3    H272513   5.708   2.056  14.770  3.2927 -0.5738  2.0952
17008TIP3   OH272514   3.517   1.318  13.126  0.2697  0.4186 -0.1988
17008TIP3    H172515   3.508   1.269  13.045  0.0788  0.6527 -0.3208
17008TIP3    H272516   3.528   1.409  13.097  1.5630  0.3396 -0.0191
17009TIP3   OH272517   0.968   1.911  11.882 -0.3310 -0.5670  0.0404
17009TIP3    H172518   1.055   1.908  11.923  0.0799 -2.0283 -0.8566
17009TIP3    H272519   0.913   1.955  11.946  1.7016  3.4263 -0.6145
17010TIP3   OH272520   5.662   4.521   5.139 -0.2463 -0.0978  0.3778
17010TIP3    H172521   5.737   4.463   5.122 -0.1167  0.5308 -1.4109
17010TIP3    H272522   5.689   4.573   5.215  0.7310 -0.5552  0.3634
17011TIP3   OH272523   2.836   3.364  11.974  0.7144 -0.0763 -0.2944
17011TIP3    H172524   2.852   3.274  11.947  0.8345 -0.1832  0.1321
17011TIP3    H272525   2.916   3.390  12.021 -0.0602 -0.3798  1.2344
17012TIP3   OH272526   6.638   2.057  13.714  0.3512 -0.3563  0.1624
17012TIP3    H172527   6.620   2.018  13.800  0.3698  0.3958  0.5235
17012TIP3    H272528   6.577   2.014  13.655  0.6748 -1.2420  0.4534
17013TIP3   OH272529   0.865   4.748   2.824  0.1510 -0.2975  0.6619
17013TIP3    H172530   0.773   4.765   2.807  0.6409  1.7597 -0.2513
17013TIP3    H272531   0.880   4.782   2.912  0.3143  0.7352  0.2556
17014TIP3   OH272532   5.831   5.873   5.634  0.6581 -0.0736  0.2121
17014TIP3    H172533   5.920   5.850   5.608  0.0912 -0.0029 -1.9940
17014TIP3    H272534   5.815   5.958   5.595 -0.3177  0.0160  0.7647
17015TIP3   OH272535   0.107   5.413   3.543 -0.1711 -0.1963 -0.3075
17015TIP3    H172536   0.182   5.442   3.491 -2.1673  1.6084 -2.4019
17015TIP3    H272537   0.123   5.447   3.631  1.6025 -0.1913 -0.6021
17016TIP3   OH272538   0.976   0.763  15.843  0.6635 -0.5718 -0.4526
17016TIP3    H172539   1.021   0.777  15.759  1.5686 -0.4886  0.0260
17016TIP3    H272540   0.925   0.842  15.856  0.8134 -0.4232 -0.7477
17017TIP3   OH272541   3.874   1.687  17.199 -0.2275 -0.1360 -0.3335
17017TIP3    H172542   3.782   1.685  17.227 -0.1370  0.3617  0.0039
17017TIP3    H272543   3.899   1.780  17.204  0.8918 -0.4918  1.5223
17018TIP3   OH272544   5.268   0.958   4.134  0.1205  0.1057  0.0334
17018TIP3    H172545   5.207   0.919   4.198  0.1108  2.2377  1.4098
17018TIP3    H272546   5.353   0.920   4.157  0.1171  0.8564  1.3539
17019TIP3   OH272547   2.283   0.345  15.525 -0.2545  0.1958 -0.2616
17019TIP3    H172548   2.274   0.286  15.599  0.2140 -1.5988 -1.5636
17019TIP3    H272549   2.375   0.337  15.499 -0.0740  1.8494 -0.2140
17020TIP3   OH272550   4.954   3.256   3.230  0.3097  0.5167 -0.3223
17020TIP3    H172551   4.899   3.286   3.158  0.2911  0.2857 -0.4026
17020TIP3    H272552   4.934   3.316   3.302 -1.4473 -0.6919  0.2518
17021TIP3   OH272553   0.181   4.790  11.611 -0.1960 -0.1850  0.6882
17021TIP3    H172554   0.099   4.750  11.640  0.2672 -2.4514 -0.8782
17021TIP3    H272555   0.185   4.771  11.517  1.6844  0.6838  0.5458
17022TIP3   OH272556   3.772   6.184  16.766  0.5093 -0.1671  0.4764
17022TIP3    H172557   3.799   6.227  16.847  1.9317  0.7600 -0.4505
17022TIP3    H272558   3.781   6.090  16.785  4.0992  0.0343  0.4213
17023TIP3   OH272559   5.675   1.456   5.108 -0.3903  0.0232 -0.7106
17023TIP3    H172560   5.631   1.394   5.051 -0.0340 -1.0914  0.1785
17023TIP3    H272561   5.606   1.493   5.163 -0.4107 -0.7859 -0.1727
17024TIP3   OH272562   3.717   5.563  15.284  0.0481  0.2488  0.3345
17024TIP3    H172563   3.739   5.547  15.192  0.9777  2.2780  0.1409
17024TIP3    H272564   3.707   5.658  15.289 -0.7581  0.0904  2.1849
17025TIP3   OH272565   0.307   2.514   2.030  0.3870  0.6196 -0.6640
17025TIP3    H172566   0.399   2.526   2.006  1.0246 -1.1663  0.6470
17025TIP3    H272567   0.274   2.603   2.043  2.2628  1.2720 -0.0015
17026TIP3   OH272568   6.713   3.213  12.167  0.0023  0.5323  0.1306
17026TIP3    H172569   6.623   3.224  12.196 -0.0624 -1.6387  0.9588
17026TIP3    H272570   6.764   3.269  12.225 -0.6733  0.5359  0.7330
17027TIP3   OH272571   2.130   5.243   6.447 -0.2943 -0.5451  0.0762
17027TIP3    H172572   2.181   5.162   6.441  0.1172 -0.3065  0.3290
17027TIP3    H272573   2.039   5.215   6.440 -0.1851 -1.0908  0.7796
17028TIP3   OH272574   4.043   3.698   2.307  0.3208 -0.5725  0.3347
17028TIP3    H172575   4.111   3.639   2.339 -1.0856 -2.3622  0.2716
17028TIP3    H272576   4.083   3.743   2.233  2.0087 -0.1342  1.4715
17029TIP3   OH272577   2.811   5.411  15.340 -0.0353 -0.1440  0.0441
17029TIP3    H172578   2.768   5.408  15.255 -0.6360 -1.6941  0.3912
17029TIP3    H272579   2.844   5.322  15.355 -0.2844 -0.0076  1.6097
17030TIP3   OH272580   0.417   5.680   1.297  0.7039  0.0478 -0.3344
17030TIP3    H172581   0.350   5.677   1.365  1.3696  1.9722  0.4828
17030TIP3    H272582   0.372   5.652   1.218 -0.6642 -0.1239  0.4673
17031TIP3   OH272583   2.304   4.641  13.364 -0.4286  0.1564  0.4190
17031TIP3    H172584   2.213   4.653  13.388 -0.6434 -0.8312  0.1405
17031TIP3    H272585   2.320   4.547  13.375  0.8725  0.4720  1.5757
17032TIP3   OH272586   6.074   6.107   3.294 -0.0117  0.7344  0.0067
17032TIP3    H172587   6.072   6.097   3.390  2.1916  1.2273  0.1566
17032TIP3    H272588   5.983   6.099   3.268 -0.6274  0.0897  2.0998
17033TIP3   OH272589   5.985   2.001  11.268  0.4212 -0.0365 -0.2371
17033TIP3    H172590   5.904   2.053  11.268 -0.6256 -1.6118  0.3250
17033TIP3    H272591   5.976   1.943  11.192  1.2810  0.1401 -0.4826
17034TIP3   OH272592   6.021   2.946   3.173 -0.2460 -0.7460  0.7835
17034TIP3    H172593   6.039   2.988   3.257  0.7492 -0.0075  0.2374
17034TIP3    H272594   5.953   3.000   3.133 -1.3761 -1.6234  1.4724
17035TIP3   OH272595   3.394   5.009  12.068 -0.3438  0.8783  0.4332
17035TIP3    H172596   3.472   5.031  12.119  0.4177 -0.6532 -0.0386
17035TIP3    H272597   3.323   5.056  12.113  0.0994 -1.1168  3.5588
17036TIP3   OH272598   1.680   1.417   1.103  0.0550 -0.3188 -0.0613
17036TIP3    H172599   1.650   1.371   1.181 -1.0095 -0.6761 -0.6715
17036TIP3    H272600   1.712   1.501   1.136 -2.5162  0.5028  0.5342
17037TIP3   OH272601   4.423   0.797   4.640  0.0199 -0.2453 -0.7009
17037TIP3    H172602   4.464   0.795   4.726 -1.8268 -0.9869  0.2266
17037TIP3    H272603   4.477   0.856   4.588  0.8851  0.6232  1.1232
17038TIP3   OH272604   1.928   1.391  15.766  0.8431  0.6175  0.2162
17038TIP3    H172605   1.921   1.378  15.672  1.7705  0.7521  0.1235
17038TIP3    H272606   1.930   1.303  15.803 -0.8736  0.5442  0.2433
17039TIP3   OH272607   6.181   5.491   1.017 -0.5562 -0.2826 -0.5045
17039TIP3    H172608   6.231   5.570   0.997  0.8474 -0.9548  0.2418
17039TIP3    H272609   6.246   5.421   1.019 -1.1749 -0.8900  2.3078
17040TIP3   OH272610   2.907   3.204   4.825 -0.4923  0.0210 -0.1145
17040TIP3    H172611   2.901   3.223   4.919  0.9564 -0.9386  0.1959
17040TIP3    H272612   2.966   3.271   4.791  0.0047 -0.3953 -0.0884
17041TIP3   OH272613   1.324   5.439   3.263 -0.3182  0.2797  0.0910
17041TIP3    H172614   1.271   5.383   3.206 -0.5127 -0.4238  0.9456
17041TIP3    H272615   1.384   5.484   3.204 -0.4963 -0.4589 -0.6654
17042TIP3   OH272616   6.693   5.237  14.669 -0.4563 -0.4030 -0.6559
17042TIP3    H172617   6.699   5.188  14.751 -0.5837 -0.1814 -0.5139
17042TIP3    H272618   6.600   5.257  14.660 -0.4863 -0.6767 -1.0039
17043TIP3   OH272619   3.648   2.829   2.555 -0.6369  0.1485 -0.4059
17043TIP3    H172620   3.668   2.906   2.608 -1.0410  0.7816 -1.1522
17043TIP3    H272621   3.702   2.760   2.592 -1.5518  0.3366  1.3866
17044TIP3   OH272622   0.937   4.218  12.106  0.7910 -0.1530  0.4412
17044TIP3    H172623   0.975   4.254  12.026  0.2094  0.7703  0.5775
17044TIP3    H272624   0.853   4.263  12.116  0.9926 -0.0315  1.7377
17045TIP3   OH272625   1.864   5.240   1.945  0.1691 -0.0023  0.0354
17045TIP3    H172626   1.829   5.323   1.910  0.4313 -0.4987 -1.5142
17045TIP3    H272627   1.789   5.181   1.946  0.1361  0.0480  0.4391
17046TIP3   OH272628   3.871   1.130  11.958 -0.1053 -0.4107  0.5416
17046TIP3    H172629   3.960   1.161  11.943 -0.9411  1.8403 -0.1478
17046TIP3    H272630   3.841   1.099  11.873 -1.0674  1.9791 -0.0571
17047TIP3   OH272631   2.126   2.598  11.951 -0.2239 -0.1061  0.4092
17047TIP3    H172632   2.087   2.685  11.941 -0.3869 -0.1711  0.4838
17047TIP3    H272633   2.190   2.609  12.021 -0.8699 -0.2566  1.0298
17048TIP3   OH272634   1.965   0.387   4.945 -0.0464 -0.0539 -0.1516
17048TIP3    H172635   1.980   0.387   5.039  1.7769 -2.1699 -0.3670
17048TIP3    H272636   1.878   0.349   4.934 -0.5865  0.8904  0.6583
17049TIP3   OH272637   2.914   5.387   0.864 -0.0974 -0.0670 -0.3824
17049TIP3    H172638   3.006   5.373   0.843  0.3897  1.1287  0.8320
17049TIP3    H272639   2.867   5.358   0.785  1.4266  1.0893 -1.7850
17050TIP3   OH272640   4.383   2.829  14.451  0.0064 -0.2173 -0.4250
17050TIP3    H172641   4.304   2.782  14.425 -0.9863  2.1534 -2.0153
17050TIP3    H272642   4.399   2.891  14.380  0.9707  2.1482  1.6991
17051TIP3   OH272643   2.682   3.026   2.745  0.1441 -0.1560  0.3470
17051TIP3    H172644   2.739   3.067   2.810  0.6305  0.6847 -0.5912
17051TIP3    H272645   2.640   2.953   2.792 -0.9647  1.5620  2.1547
17052TIP3   OH272646   1.663   3.083  17.134  0.7665  0.1601 -0.2319
17052TIP3    H172647   1.596   3.131  17.182  0.8253  1.8503 -1.7511
17052TIP3    H272648   1.742   3.135  17.145  0.4591  1.4676 -3.3045
17053TIP3   OH272649   3.822   5.846   1.534 -0.0788  0.3206 -0.6196
17053TIP3    H172650   3.752   5.842   1.470  0.2221 -1.4322 -0.8937
17053TIP3    H272651   3.838   5.754   1.558  0.5102  0.8541  1.2006
17054TIP3   OH272652   3.205   0.173  11.543  0.5759 -0.5057 -0.2741
17054TIP3    H172653   3.238   0.088  11.514 -1.0785 -1.0618 -0.6145
17054TIP3    H272654   3.110   0.169  11.529  0.4766  1.5022 -0.5916
17055TIP3   OH272655   3.115   2.423   0.251 -0.2034 -0.2471 -0.1133
17055TIP3    H172656   3.100   2.377   0.334 -1.7881  0.1965 -0.1102
17055TIP3    H272657   3.032   2.416   0.205  0.0847  1.0743 -0.8794
17056TIP3   OH272658   2.336   2.803   1.917  0.3820 -0.4137 -0.0524
17056TIP3    H172659   2.338   2.855   1.837 -0.5067  1.4544  1.0873
17056TIP3    H272660   2.383   2.855   1.982 -0.0185 -1.2886  0.9748
17057TIP3   OH272661   0.773   0.837   1.288  0.3708 -0.1982 -0.2285
17057TIP3    H172662   0.821   0.831   1.206 -2.1927 -0.2081 -1.8432
17057TIP3    H272663   0.684   0.858   1.262 -0.2042  1.4891  2.6888
17058TIP3   OH272664   1.482   0.528   3.165  0.2309 -0.3204 -0.2689
17058TIP3    H172665   1.462   0.551   3.074 -1.4866 -1.0796 -0.1217
17058TIP3    H272666   1.436   0.594   3.217  0.1917 -0.5978  0.0559
17059TIP3   OH272667   1.390   5.682   4.216 -0.6952  0.3281  0.0323
17059TIP3    H172668   1.433   5.693   4.131  1.7375 -1.5465  0.8810
17059TIP3    H272669   1.417   5.759   4.267  0.3866 -0.0064  0.0044
17060TIP3   OH272670   1.729   0.886   4.979 -0.1646  0.4709  0.3045
17060TIP3    H172671   1.684   0.943   4.916  0.7453  0.0408 -0.7718
17060TIP3    H272672   1.689   0.800   4.967 -1.8595  0.9248  2.2547
17061TIP3   OH272673   4.175   4.998   4.749 -0.0786 -0.0652  0.2715
17061TIP3    H172674   4.166   4.989   4.844 -0.4631 -0.5065  0.1959
17061TIP3    H272675   4.258   5.044   4.737  0.3928 -0.7756  0.7885
17062TIP3   OH272676   4.624   1.742   3.969 -0.3860 -0.6723  0.1031
17062TIP3    H172677   4.574   1.789   4.035 -0.2721 -0.6286  0.1586
17062TIP3    H272678   4.714   1.742   4.002  0.1235  1.3292 -1.1273
17063TIP3   OH272679   0.004   1.168   5.090 -0.3472  0.5932 -0.0332
17063TIP3    H172680   0.030   1.199   5.003  0.4777  0.8144  0.2867
17063TIP3    H272681   0.077   1.113   5.118 -0.1998  1.2381  0.8869
17064TIP3   OH272682   5.205   4.949   4.265 -0.5016  0.0999  0.5154
17064TIP3    H172683   5.152   5.017   4.222  0.4658  1.1032  0.8753
17064TIP3    H272684   5.210   4.878   4.200 -1.2455  0.4936  0.0062
17065TIP3   OH272685   2.428   6.488   3.552  0.4254  0.6157 -0.7130
17065TIP3    H172686   2.466   6.446   3.629 -1.4144 -1.1758 -0.6959
17065TIP3    H272687   2.436   6.422   3.482  0.0044  1.3290 -1.4590
17066TIP3   OH272688   6.500   1.776   4.276  0.0634 -0.4380 -0.0991
17066TIP3    H172689   6.515   1.838   4.205  0.1827 -0.4901 -0.1201
17066TIP3    H272690   6.513   1.827   4.356  0.7110 -0.5622 -0.1156
17067TIP3   OH272691   4.552   1.766  15.227 -0.0452 -0.0409  0.1049
17067TIP3    H172692   4.635   1.721  15.210 -0.3133 -0.6825  0.4774
17067TIP3    H272693   4.491   1.697  15.252 -0.1595  0.6475  1.8857
17068TIP3   OH272694   4.989   4.188  16.053 -0.1591  0.4982 -0.4542
17068TIP3    H172695   5.049   4.115  16.072 -0.2618  0.1645 -1.3551
17068TIP3    H272696   4.905   4.159  16.088  0.0272  0.6270  0.1052
17069TIP3   OH272697   5.624   6.562   3.996  0.5018  0.1806 -0.8328
17069TIP3    H172698   5.529   6.571   4.004  0.6712  0.5273  2.8433
17069TIP3    H272699   5.652   6.640   3.948 -0.9735  0.6548 -0.9580
17070TIP3   OH272700   3.795   0.008  14.082  0.5041 -0.1909 -0.3577
17070TIP3    H172701   3.758   0.060  14.011  2.2331  0.6366 -0.7301
17070TIP3    H272702   3.732   0.014  14.153 -0.1785  0.9214 -1.0355
17071TIP3   OH272703   2.504   0.340   0.359  0.2119  0.0103 -0.3677
17071TIP3    H172704   2.436   0.407   0.349  0.8158  0.5980 -0.6028
17071TIP3    H272705   2.514   0.330   0.454 -0.6690 -0.5714 -0.3244
17072TIP3   OH272706   1.258   3.685   2.020 -0.0652  0.3552 -0.2912
17072TIP3    H172707   1.249   3.776   1.993 -2.7193  0.4981  0.8308
17072TIP3    H272708   1.191   3.672   2.087  1.7551 -1.8107  1.2940
17073TIP3   OH272709   6.091   1.218  13.373 -0.4406  0.2499  0.5919
17073TIP3    H172710   6.114   1.267  13.294 -0.3334 -0.8134 -0.0700
17073TIP3    H272711   6.047   1.281  13.429 -2.2704  0.6083 -1.1264
17074TIP3   OH272712   3.666   4.496  15.302  0.4013  0.2573 -0.1937
17074TIP3    H172713   3.609   4.507  15.378 -0.1283 -0.3935 -0.4861
17074TIP3    H272714   3.732   4.433  15.330  0.4984  0.3904 -0.1200
17075TIP3   OH272715   6.106   0.946   1.458 -0.0433 -0.3523 -0.3296
17075TIP3    H172716   6.027   0.942   1.404 -0.2099  0.0209 -0.1165
17075TIP3    H272717   6.074   0.974   1.544  0.5992  2.1010 -0.8233
17076TIP3   OH272718   5.140   0.395   0.970  0.4346  0.4643 -0.0597
17076TIP3    H172719   5.122   0.488   0.980  1.2078  0.5441  0.6647
17076TIP3    H272720   5.225   0.391   0.927  0.5231  0.0955  0.1463
17077TIP3   OH272721   1.079   6.733  11.804  0.4808  0.2157 -0.3752
17077TIP3    H172722   1.039   6.740  11.718  0.8378  3.0938 -0.3967
17077TIP3    H272723   1.149   6.669  11.793 -2.0502 -2.6608 -1.0815
17078TIP3   OH272724   5.949   0.919  14.553 -0.1706 -0.3925  0.4028
17078TIP3    H172725   5.961   0.828  14.580  0.0715 -0.6260 -0.4628
17078TIP3    H272726   6.037   0.952  14.540 -0.2380  0.1560  1.3093
17079TIP3   OH272727   1.054   2.341   0.720 -0.1747  0.5100  0.3639
17079TIP3    H172728   0.992   2.307   0.784  0.0555 -1.1486 -0.2254
17079TIP3    H272729   1.089   2.421   0.759  1.6525 -1.5821  3.4228
17080TIP3   OH272730   2.688   5.650  14.342  0.1850  0.2793 -0.1788
17080TIP3    H172731   2.600   5.685  14.334 -0.1388 -0.3547  0.5130
17080TIP3    H272732   2.737   5.716  14.390  0.0117  0.4972 -0.3020
17081TIP3   OH272733   2.984   4.470  15.115  0.1023  0.3742 -0.2827
17081TIP3    H172734   2.978   4.495  15.023  1.1391 -2.3059 -1.1857
17081TIP3    H272735   2.917   4.403  15.126  1.2523 -0.7151  0.3453
17082TIP3   OH272736   4.836   1.045  11.198 -0.2871 -0.4045  0.2307
17082TIP3    H172737   4.773   0.976  11.217 -1.4603  0.2292 -1.1835
17082TIP3    H272738   4.900   1.005  11.139 -1.2186 -0.1917 -0.9521
17083TIP3   OH272739   4.309   4.561  12.056  0.3433 -0.0363 -0.5148
17083TIP3    H172740   4.237   4.540  12.116  1.2681  1.7823  1.3546
17083TIP3    H272741   4.272   4.628  11.998  0.6547  1.3583  0.8455
17084TIP3   OH272742   1.030   3.759  15.272  0.0687  0.3776 -0.3055
17084TIP3    H172743   0.959   3.751  15.335  0.1420 -1.8895 -0.4331
17084TIP3    H272744   0.987   3.783  15.190 -0.7158 -1.7436 -0.5748
17085TIP3   OH272745   0.656   0.350   5.393 -0.1375 -0.4877 -0.1370
17085TIP3    H172746   0.747   0.323   5.400 -0.1150 -1.1086 -2.0535
17085TIP3    H272747   0.645   0.420   5.457  1.2345 -1.5021  1.2513
17086TIP3   OH272748   6.243   6.770  15.318 -0.4127 -0.0259 -0.2251
17086TIP3    H172749   6.154   6.754  15.347 -1.1014  0.0387 -2.1510
17086TIP3    H272750   6.234   6.829  15.243  1.4456  2.2038  1.1611
17087TIP3   OH272751   1.331   0.205   2.365 -0.0625  0.0952  0.2225
17087TIP3    H172752   1.398   0.158   2.414 -1.8303 -1.4314  1.3224
17087TIP3    H272753   1.292   0.265   2.430 -0.3921  0.2720 -0.1332
17088TIP3   OH272754   1.545   3.110   4.952  0.2022 -0.1599 -0.8750
17088TIP3    H172755   1.576   3.153   5.031 -0.6552 -1.9647  0.5025
17088TIP3    H272756   1.496   3.178   4.906  0.7969  0.9498  0.0602
17089TIP3   OH272757   2.521   3.219   1.005  0.0741  0.2485  0.2911
17089TIP3    H172758   2.565   3.166   0.939 -0.5119 -0.3486  0.3708
17089TIP3    H272759   2.429   3.193   1.000 -0.6199  2.5994 -0.9873
17090TIP3   OH272760   6.828   2.615  12.934 -0.3374  0.6818  0.2320
17090TIP3    H172761   6.829   2.692  12.991  2.1592  0.5627  0.4565
17090TIP3    H272762   6.906   2.566  12.959  0.2206  0.0243 -2.4646
17091TIP3   OH272763   3.007   0.704   0.350 -0.3556  0.0800  0.5226
17091TIP3    H172764   2.960   0.620   0.342  0.3427 -0.4846  2.0381
17091TIP3    H272765   3.068   0.690   0.422  1.6682  1.0204 -0.9100
17092TIP3   OH272766   4.262   2.109  11.814  0.1266 -0.0178  0.2004
17092TIP3    H172767   4.255   2.015  11.798 -1.8985  0.1484 -0.1312
17092TIP3    H272768   4.210   2.123  11.893 -0.2204  0.9120 -0.1811
17093TIP3   OH272769   5.974   4.757  13.334  0.6262 -0.2878  0.6132
17093TIP3    H172770   6.013   4.752  13.421  1.1693 -2.1243  0.2993
17093TIP3    H272771   5.881   4.772  13.350  0.9211  0.8001  1.4463
17094TIP3   OH272772   6.624   6.106   4.643 -0.2036 -0.0500 -0.3318
17094TIP3    H172773   6.609   6.113   4.549 -1.5698 -2.6774 -0.4076
17094TIP3    H272774   6.716   6.082   4.651  0.6059  2.5332 -0.7517
17095TIP3   OH272775   4.022   5.167  15.480 -0.5338  0.2232  0.0408
17095TIP3    H172776   3.978   5.252  15.483 -0.4038  0.2826  0.2476
17095TIP3    H272777   4.100   5.182  15.427 -1.2037 -0.0875 -1.0867
17096TIP3   OH272778   2.490   4.160  14.348 -0.0705 -0.3620 -0.0702
17096TIP3    H172779   2.521   4.069  14.354  1.0048 -0.0848 -1.0299
17096TIP3    H272780   2.399   4.156  14.377 -0.0062 -1.7272  0.0342
17097TIP3   OH272781   3.274   1.015  12.402  0.2395 -0.0415 -0.0888
17097TIP3    H172782   3.268   1.109  12.387 -1.0782 -0.4870 -3.0791
17097TIP3    H272783   3.184   0.988  12.418  0.2815 -1.0473 -1.3965
17098TIP3   OH272784   6.329   3.883  13.656  0.2538  0.1637 -0.4566
17098TIP3    H172785   6.322   3.958  13.715 -0.4316 -1.3901  1.5455
17098TIP3    H272786   6.262   3.822  13.686  2.0275 -2.0874 -0.7395
17099TIP3   OH272787   5.585   2.462  11.413 -0.0139  0.8170  0.0553
17099TIP3    H172788   5.537   2.544  11.405 -0.9542  0.1581 -1.6783
17099TIP3    H272789   5.519   2.394  11.401  1.2234 -0.1318 -1.9121
17100TIP3   OH272790   5.022   0.656  12.412  0.0839 -0.1024 -0.1812
17100TIP3    H172791   5.061   0.568  12.414  0.3673 -0.0249 -1.3320
17100TIP3    H272792   5.090   0.712  12.376 -0.3402  0.4627 -0.1251
17101TIP3   OH272793   2.338   2.921   4.185 -0.1375 -0.2527  0.1717
17101TIP3    H172794   2.394   2.860   4.233 -0.3135 -0.9367 -0.4693
17101TIP3    H272795   2.262   2.868   4.159 -1.2461  0.7218  1.2746
17102TIP3   OH272796   5.016   4.528  10.568 -0.4550 -0.2954 -0.4502
17102TIP3    H172797   4.944   4.530  10.505  0.3543  0.1908 -1.3939
17102TIP3    H272798   4.976   4.553  10.651 -0.9879  2.2381 -1.3791
17103TIP3   OH272799   0.565   1.140  15.773  0.0706 -0.1241 -0.8061
17103TIP3    H172800   0.651   1.153  15.813  0.1878 -1.6498 -0.4805
17103TIP3    H272801   0.553   1.216  15.716  1.3744  0.4033 -0.4177
17104TIP3   OH272802   6.109   2.519  15.494  0.4773 -0.0111 -0.2117
17104TIP3    H172803   6.197   2.547  15.469 -0.0664 -0.4723 -2.8506
17104TIP3    H272804   6.119   2.426  15.515  0.7081  0.0735  0.0655
17105TIP3   OH272805   4.719   0.265  15.391  0.3906  0.2604 -0.4411
17105TIP3    H172806   4.706   0.198  15.323  3.3994  0.6164 -1.5082
17105TIP3    H272807   4.688   0.346  15.351  0.4360  0.1552 -0.6942
17106TIP3   OH272808   0.330   0.948  15.504 -0.0343 -0.1718  0.0246
17106TIP3    H172809   0.242   0.956  15.541 -0.6089 -2.0414 -0.7992
17106TIP3    H272810   0.382   0.910  15.575 -0.9707 -3.1020 -0.7118
17107TIP3   OH272811   6.292   1.486  12.366  0.5802 -0.1847 -0.4250
17107TIP3    H172812   6.357   1.486  12.296 -0.9233 -0.5566 -1.8756
17107TIP3    H272813   6.323   1.420  12.428  1.2330 -0.8244 -1.4115
17108TIP3   OH272814   2.719   4.746  14.801  0.3194 -0.0738 -0.3014
17108TIP3    H172815   2.755   4.808  14.865  0.8525 -0.8443  0.1647
17108TIP3    H272816   2.635   4.720  14.838  0.1712  0.2334 -0.4148
17109TIP3   OH272817   0.155   0.946  11.991 -0.0249 -0.0971 -0.2606
17109TIP3    H172818   0.188   0.856  11.996 -0.1378 -0.0867  0.9520
17109TIP3    H272819   0.228   1.000  12.020 -0.4685  0.0744  0.5663
17110TIP3   OH272820   0.150   3.999   1.586  0.4857  0.6016 -0.2564
17110TIP3    H172821   0.201   3.944   1.527  0.4924  0.0699  0.2393
17110TIP3    H272822   0.089   4.046   1.529  0.6850  0.3088 -0.7135
17111TIP3   OH272823   0.441   0.393   3.476 -0.0189 -0.1384  0.0118
17111TIP3    H172824   0.415   0.371   3.387 -0.0133  0.6755 -0.1967
17111TIP3    H272825   0.476   0.311   3.512  1.0916 -0.1900 -1.1312
17112TIP3   OH272826   4.462   4.514   4.199 -0.0259 -0.3729  0.1152
17112TIP3    H172827   4.499   4.518   4.111 -0.2628 -0.0668  0.0263
17112TIP3    H272828   4.417   4.429   4.202 -0.4479 -0.1710 -0.2372
17113TIP3   OH272829   2.695   3.279   6.193 -0.2569  0.4449 -0.0990
17113TIP3    H172830   2.625   3.223   6.228 -0.0625 -0.8358 -1.6324
17113TIP3    H272831   2.774   3.226   6.200 -0.2239  0.0478 -2.4725
17114TIP3   OH272832   4.698   2.485  15.440 -0.2459  0.2348  0.1469
17114TIP3    H172833   4.654   2.569  15.453 -0.8131  0.3298 -1.9823
17114TIP3    H272834   4.672   2.458  15.352  0.8066 -1.6535  0.3654
17115TIP3   OH272835   0.161   4.356  15.023  0.3274  0.0344 -0.1480
17115TIP3    H172836   0.091   4.295  15.044 -0.4841  0.9771 -0.0092
17115TIP3    H272837   0.231   4.302  14.987  0.2564 -1.1550  1.4100
17116TIP3   OH272838   1.110   1.813   3.433  0.0112  0.0756  0.3321
17116TIP3    H172839   1.135   1.774   3.517  1.7413 -1.1624 -0.6869
17116TIP3    H272840   1.114   1.907   3.448 -0.8522 -0.0976  1.9199
17117TIP3   OH272841   4.796   4.764   0.420 -0.2619 -0.0309  0.3392
17117TIP3    H172842   4.731   4.715   0.471 -1.4288  1.1859  0.0909
17117TIP3    H272843   4.782   4.855   0.445 -0.4695  0.5463 -1.6726
17118TIP3   OH272844   2.948   6.257  11.111  0.0104  0.6180 -0.3103
17118TIP3    H172845   2.976   6.343  11.142  0.0457  0.2897  0.5869
17118TIP3    H272846   2.995   6.195  11.165 -1.1686  0.0384  0.0942
17119TIP3   OH272847   4.428   3.473  16.886 -0.2476 -0.2781 -0.3129
17119TIP3    H172848   4.345   3.464  16.932 -0.0930  1.4277  0.3680
17119TIP3    H272849   4.471   3.388  16.897 -1.3572 -0.7656  0.4045
17120TIP3   OH272850   4.333   6.509   2.867  0.1817 -0.1164 -0.3067
17120TIP3    H172851   4.299   6.598   2.880  1.6229  0.3990  0.2610
17120TIP3    H272852   4.329   6.469   2.954  0.9118 -0.0672 -0.2425
17121TIP3   OH272853   3.251   3.780  17.004  0.3068 -0.2947  0.2439
17121TIP3    H172854   3.345   3.797  16.995  0.3783 -0.2536  0.9946
17121TIP3    H272855   3.233   3.710  16.941  0.9968 -0.8456  0.6523
17122TIP3   OH272856   5.795   3.384  14.784  0.0900  0.0631 -0.5018
17122TIP3    H172857   5.732   3.327  14.827  0.9386  0.5110  1.4176
17122TIP3    H272858   5.755   3.471  14.787  0.2438  0.1319 -0.4296
17123TIP3   OH272859   4.264   0.678   4.431  0.1027  0.3602  0.1365
17123TIP3    H172860   4.334   0.731   4.469 -0.0300  0.3268  0.4269
17123TIP3    H272861   4.288   0.587   4.450  0.2276  0.3213 -0.1883
17124TIP3   OH272862   3.569   0.966  13.877  0.3394 -0.0393 -0.1068
17124TIP3    H172863   3.611   1.044  13.913  0.4025  0.3657 -1.0445
17124TIP3    H272864   3.507   0.939  13.945 -0.0889  1.1471 -0.0145
17125TIP3   OH272865   6.450   5.696  10.745 -0.0957 -0.5598  0.2166
17125TIP3    H172866   6.487   5.750  10.675  0.3259 -0.6742  0.3483
17125TIP3    H272867   6.360   5.680  10.718 -0.3061  0.4221  0.2958
17126TIP3   OH272868   3.747   0.233  16.660  0.4972  0.3099  0.0880
17126TIP3    H172869   3.702   0.232  16.576  1.1795  2.2019 -0.3626
17126TIP3    H272870   3.835   0.263  16.639  0.6365  0.9420  1.4899
17127TIP3   OH272871   6.163   2.444  13.189 -0.0186 -0.3915  0.6112
17127TIP3    H172872   6.089   2.383  13.191  0.6756 -1.2378  1.5034
17127TIP3    H272873   6.147   2.498  13.112 -1.5779 -0.5350  0.8045
17128TIP3   OH272874   0.373   0.344  14.382 -0.8873 -0.1376 -0.0123
17128TIP3    H172875   0.329   0.390  14.311 -2.8703  0.5425  1.5651
17128TIP3    H272876   0.400   0.413  14.443 -1.8309 -0.8426  1.2687
17129TIP3   OH272877   6.273   5.408   1.639 -0.4832  0.2705  0.3793
17129TIP3    H172878   6.349   5.431   1.586 -0.9596  0.5108 -0.2062
17129TIP3    H272879   6.198   5.418   1.580 -1.0873  1.1122  1.2526
17130TIP3   OH272880   6.174   3.578   0.793  0.2262 -0.3908  0.1044
17130TIP3    H172881   6.168   3.606   0.884 -0.8437  0.1563 -0.1187
17130TIP3    H272882   6.191   3.483   0.798 -1.0549 -0.5966  0.8759
17131TIP3   OH272883   2.379   6.573   1.180  0.0498 -0.7317 -0.9127
17131TIP3    H172884   2.341   6.611   1.259  1.3963 -2.5239  0.6973
17131TIP3    H272885   2.310   6.580   1.115 -2.3680 -2.0488  1.3051
17132TIP3   OH272886   5.620   0.918   2.453 -0.1361  0.2811  0.5423
17132TIP3    H172887   5.562   0.958   2.518  0.2186 -0.9965  1.6882
17132TIP3    H272888   5.573   0.929   2.370 -1.3152  0.5988  1.2210
17133TIP3   OH272889   6.000   6.770  17.096  0.2430 -0.1375 -0.1619
17133TIP3    H172890   5.980   6.677  17.094  1.0801 -0.3377  0.3296
17133TIP3    H272891   5.923   6.810  17.136 -0.1710 -0.6026 -0.4876
17134TIP3   OH272892   0.064   2.834  14.005 -0.1831  0.6700  0.1187
17134TIP3    H172893   0.105   2.752  13.976 -0.2755  1.0423 -1.1125
17134TIP3    H272894  -0.018   2.806  14.045 -1.6017  0.2576 -2.7743
17135TIP3   OH272895   0.871   2.728   2.538 -0.2380 -0.5417 -0.7503
17135TIP3    H172896   0.876   2.636   2.511 -1.8248 -0.6394 -0.7988
17135TIP3    H272897   0.779   2.741   2.562  0.3520  0.4851  1.2179
17136TIP3   OH272898   3.837   4.395   3.620 -0.2134 -0.5105  0.4130
17136TIP3    H172899   3.845   4.476   3.671 -2.4162 -0.0428  0.1241
17136TIP3    H272900   3.924   4.356   3.622  0.8929  1.8344  0.6265
17137TIP3   OH272901   0.775   2.501  15.430 -0.0569  0.4118  0.1089
17137TIP3    H172902   0.737   2.527  15.346  0.4445  3.6997  0.7386
17137TIP3    H272903   0.831   2.575  15.454  1.7773 -1.5227  2.1950
17138TIP3   OH272904   4.734   0.206  14.715 -0.0187 -0.0330 -0.2455
17138TIP3    H172905   4.669   0.221  14.647  0.6152  1.5354 -0.5388
17138TIP3    H272906   4.779   0.289  14.725  1.1659 -0.7517  0.7834
17139TIP3   OH272907   4.543   4.850  11.945  0.3007  0.5298 -0.1311
17139TIP3    H172908   4.617   4.873  12.001  1.7146 -0.4296 -1.5193
17139TIP3    H272909   4.470   4.899  11.981  1.5424  1.3070  1.4643
17140TIP3   OH272910   1.573   4.304  12.073 -0.0774 -0.8215 -0.4006
17140TIP3    H172911   1.631   4.354  12.015 -0.0211 -0.9356 -0.4448
17140TIP3    H272912   1.485   4.334  12.052  0.0545  0.5177  0.7780
17141TIP3   OH272913   2.576   2.213  14.053  0.2675 -0.0554  0.3021
17141TIP3    H172914   2.620   2.277  14.109 -1.0694  1.2647 -0.0977
17141TIP3    H272915   2.640   2.193  13.984  0.4256  1.4621 -0.0125
17142TIP3   OH272916   1.901   3.386   4.166  0.4571 -0.1084 -0.7023
17142TIP3    H172917   1.851   3.387   4.084 -0.1673 -0.5447 -0.3305
17142TIP3    H272918   1.927   3.295   4.178  0.8262  0.0102 -0.5771
17143TIP3   OH272919   0.208   1.306  10.400 -0.0220 -0.4929 -0.0681
17143TIP3    H172920   0.195   1.216  10.369  0.6493  0.3653 -3.2030
17143TIP3    H272921   0.120   1.338  10.419 -0.4105 -1.3128 -0.4250
17144TIP3   OH272922   0.691   1.029  10.448  0.3177  0.8000 -0.1721
17144TIP3    H172923   0.635   0.951  10.444 -0.4286  1.3788 -1.7885
17144TIP3    H272924   0.639   1.093  10.498 -0.2677  1.1619 -1.2198
17145TIP3   OH272925   1.678   3.280   3.302 -0.1636  0.2483 -0.5445
17145TIP3    H172926   1.763   3.242   3.276 -0.3483  0.6617 -1.8129
17145TIP3    H272927   1.647   3.222   3.372  1.5129  0.5360  0.4858
17146TIP3   OH272928   4.725   3.906  13.323 -0.3755 -0.3266 -0.2597
17146TIP3    H172929   4.727   4.001  13.335 -1.7546  0.2206 -3.4871
17146TIP3    H272930   4.811   3.885  13.286 -0.6988 -0.0369 -1.1910
17147TIP3   OH272931   4.056   2.504   0.096  0.0768  0.7838 -0.1620
17147TIP3    H172932   4.097   2.533   0.014  0.2978 -0.1257 -0.3782
17147TIP3    H272933   4.119   2.529   0.164  0.1668  1.0032 -0.3220
17148TIP3   OH272934   0.948   0.718   5.019 -0.1482  0.6939  0.3135
17148TIP3    H172935   0.971   0.810   5.008  1.3060  0.3991  0.6423
17148TIP3    H272936   0.923   0.688   4.932 -1.5913  1.6078  0.3660
17149TIP3   OH272937   1.957   4.488   0.391  0.0889  0.0187  0.0622
17149TIP3    H172938   1.963   4.544   0.314  0.9242  0.5338  0.4968
17149TIP3    H272939   1.911   4.409   0.360  0.6260  0.1222 -1.0129
17150TIP3   OH272940   1.823   2.881  11.719  0.0567 -0.4172  0.1341
17150TIP3    H172941   1.825   2.963  11.669 -1.3103 -0.0776  0.5891
17150TIP3    H272942   1.847   2.813  11.656  1.4081  0.3349 -0.2073
17151TIP3   OH272943   1.672   5.344   0.447 -0.1543 -0.0459 -0.4917
17151TIP3    H172944   1.604   5.278   0.432 -0.7411 -0.6747  3.6958
17151TIP3    H272945   1.623   5.427   0.456 -0.4431 -0.3875  1.8049
17152TIP3   OH272946   5.153   5.956   0.750 -0.1542 -0.6147 -0.8952
17152TIP3    H172947   5.176   5.939   0.841 -1.1856 -0.3553 -0.5689
17152TIP3    H272948   5.151   6.051   0.743 -1.0038 -0.6199 -0.9176
17153TIP3   OH272949   5.695   4.193   0.370  0.2709  0.1746 -0.1708
17153TIP3    H172950   5.748   4.116   0.348 -0.2497  0.0839 -1.1836
17153TIP3    H272951   5.649   4.214   0.288  0.0320  1.2655  0.2322
17154TIP3   OH272952   1.695   5.996   0.098 -0.0208 -0.1354  0.7714
17154TIP3    H172953   1.772   6.049   0.077 -0.2069 -0.2830 -0.3669
17154TIP3    H272954   1.731   5.913   0.128  0.3468 -0.9339 -1.6061
17155TIP3   OH272955   4.844   5.943   5.050 -0.4165 -0.4485 -0.5422
17155TIP3    H172956   4.892   5.968   4.971  0.9773  0.1481  0.4766
17155TIP3    H272957   4.906   5.892   5.101 -0.4381  1.3140  1.3357
17156TIP3   OH272958   4.439   5.732   1.688  0.3550 -0.1723  0.0524
17156TIP3    H172959   4.389   5.752   1.609  2.5123 -1.4652 -1.7294
17156TIP3    H272960   4.408   5.797   1.752 -3.1309 -0.5344 -1.0376
17157TIP3   OH272961   6.603   1.925   4.515 -0.2484 -0.0299  0.8727
17157TIP3    H172962   6.698   1.917   4.515  0.0680  2.6225  2.0135
17157TIP3    H272963   6.576   1.892   4.601 -0.5358 -1.8406  0.1259
17158TIP3   OH272964   6.410   4.815  13.373  0.3838  0.4834 -0.2005
17158TIP3    H172965   6.418   4.722  13.353 -0.1830  0.1753  0.8942
17158TIP3    H272966   6.327   4.842  13.333  1.3925  0.9864 -2.0657
17159TIP3   OH272967   5.718   5.598   5.015 -0.4965 -0.3794 -0.1527
17159TIP3    H172968   5.783   5.527   5.017 -0.3705 -0.3550 -1.8088
17159TIP3    H272969   5.769   5.678   5.029 -0.6902 -0.5934  2.1193
17160TIP3   OH272970   2.859   1.966  16.402 -0.6677  0.9418 -0.3795
17160TIP3    H172971   2.782   2.010  16.439 -0.5575 -0.5926  1.8778
17160TIP3    H272972   2.833   1.874  16.397  1.2501  0.2287  1.2887
17161TIP3   OH272973   4.519   3.079  17.144  0.3498  0.8097 -0.9096
17161TIP3    H172974   4.589   3.022  17.176 -0.3730  0.5361  0.2574
17161TIP3    H272975   4.460   3.020  17.098 -1.1824  0.2532  1.5767
17162TIP3   OH272976   2.580   0.584  11.297  0.1773 -0.4208 -0.0530
17162TIP3    H172977   2.577   0.523  11.223 -0.0764 -0.7924  0.2630
17162TIP3    H272978   2.504   0.561  11.350 -1.2824  1.6284 -1.1002
17163TIP3   OH272979   0.950   4.978   5.652  0.4766 -0.0096  0.2815
17163TIP3    H172980   0.858   5.004   5.644  0.1549 -1.0821  0.3184
17163TIP3    H272981   0.966   4.974   5.746  0.6409  0.4550  0.2719
17164TIP3   OH272982   0.966   0.771  17.138  0.4603  0.0156  0.1575
17164TIP3    H172983   0.983   0.766  17.232  0.6167 -0.2508  0.1146
17164TIP3    H272984   1.034   0.717  17.098  0.2097 -0.1158 -0.0917
17165TIP3   OH272985   1.395   5.418   2.486 -0.1583 -0.0142  0.2418
17165TIP3    H172986   1.448   5.450   2.413  0.2582 -2.1164 -0.4640
17165TIP3    H272987   1.313   5.466   2.479  0.6528  1.3579 -0.2864
17166TIP3   OH272988   4.399   5.353  13.599 -0.1446  0.2199  0.5073
17166TIP3    H172989   4.462   5.291  13.562  1.2054  0.8294  1.6818
17166TIP3    H272990   4.352   5.388  13.523  1.4407  0.2765 -0.4924
17167TIP3   OH272991   2.405   4.911  13.384 -0.2817  0.4242 -0.0928
17167TIP3    H172992   2.343   4.839  13.373  1.0364 -1.0371  1.5093
17167TIP3    H272993   2.414   4.920  13.479  0.6820  1.7494 -0.2800
17168TIP3   OH272994   3.963   4.112   3.141  0.8482  0.6858  0.1759
17168TIP3    H172995   3.941   4.030   3.186 -2.3994  0.9283 -0.7396
17168TIP3    H272996   3.984   4.085   3.051  1.5079  0.7342  0.3095
17169TIP3   OH272997   1.095   1.822  15.315  0.2603  0.6639  0.3376
17169TIP3    H172998   1.144   1.836  15.234  1.2258  1.5726  1.0561
17169TIP3    H272999   1.025   1.762  15.290  0.0505  1.5399 -1.3524
17170TIP3   OH273000   4.032   6.190   2.333  0.0181 -0.3225 -0.7792
17170TIP3    H173001   4.034   6.196   2.237  0.1303 -0.3516 -0.7789
17170TIP3    H273002   4.075   6.106   2.352  4.3977  1.7262 -0.4621
17171TIP3   OH273003   3.747   0.910   5.873  0.0425 -0.3779  0.1862
17171TIP3    H173004   3.680   0.871   5.817 -0.1394  2.7339 -2.0013
17171TIP3    H273005   3.699   0.941   5.950 -0.0560 -2.7699  1.1746
17172TIP3   OH273006   5.314   5.773  13.747 -0.1945  0.1763 -0.6518
17172TIP3    H173007   5.380   5.720  13.791 -0.3172  0.2561 -0.3706
17172TIP3    H273008   5.352   5.792  13.662 -0.3188 -0.7049 -0.9171
17173TIP3   OH273009   6.799   4.854  15.147 -0.0106 -0.0502 -0.0842
17173TIP3    H173010   6.781   4.908  15.224 -3.0465 -0.7954 -0.1244
17173TIP3    H273011   6.881   4.888  15.112  0.5494  1.4717  2.4503
17174TIP3   OH273012   1.363   3.920   1.418 -0.1019  0.6943  0.2707
17174TIP3    H173013   1.303   3.848   1.398  0.0268  1.0592 -1.6284
17174TIP3    H273014   1.425   3.882   1.481 -0.4853 -0.6319 -0.1076
17175TIP3   OH273015   2.065   2.865   0.275 -0.1208  0.4419 -0.4856
17175TIP3    H173016   2.049   2.799   0.342  1.0299  0.4667 -0.1584
17175TIP3    H273017   2.147   2.907   0.302  0.6566  0.1028 -2.1555
17176TIP3   OH273018   5.678   5.671  10.289  0.1514 -0.3290 -0.3424
17176TIP3    H173019   5.760   5.642  10.248 -0.0192 -0.5251 -0.5444
17176TIP3    H273020   5.620   5.595  10.284 -0.1674 -0.0782 -0.5269
17177TIP3   OH273021   3.938   5.028  14.159 -0.2236  0.5939  0.4328
17177TIP3    H173022   3.984   5.091  14.103 -0.9953  1.9329  1.2528
17177TIP3    H273023   4.001   5.005  14.227  0.5075 -0.5680 -0.5904
17178TIP3   OH273024   4.774   4.239  12.977  0.0541  0.5239  0.5603
17178TIP3    H173025   4.735   4.277  12.899  0.6167 -1.2431 -0.6303
17178TIP3    H273026   4.858   4.285  12.986  0.2511  0.3323 -0.2259
17179TIP3   OH273027   2.767   6.324   0.159  0.4581  0.0401 -0.8956
17179TIP3    H173028   2.726   6.263   0.098 -1.9456  1.3884 -0.7181
17179TIP3    H273029   2.802   6.394   0.104 -1.6530  1.2233 -0.8255
17180TIP3   OH273030   1.822   4.837   0.583  0.6877  0.9372  0.2542
17180TIP3    H173031   1.883   4.773   0.620 -1.0803 -1.2834 -0.4551
17180TIP3    H273032   1.793   4.798   0.500  1.1406  3.6939 -1.3564
17181TIP3   OH273033   0.605   0.989   5.486 -0.1429  0.2310 -0.1231
17181TIP3    H173034   0.624   1.067   5.538 -0.3149  1.4793 -1.8461
17181TIP3    H273035   0.518   1.005   5.450 -0.1954 -0.7738 -0.4780
17182TIP3   OH273036   5.282   1.262  16.461  0.8443  0.0112 -0.1762
17182TIP3    H173037   5.283   1.357  16.476  0.2015  0.2999 -1.8180
17182TIP3    H273038   5.251   1.252  16.371  2.9937 -1.6532 -0.8263
17183TIP3   OH273039   6.468   3.810   2.491  0.1881  0.4222  0.4667
17183TIP3    H173040   6.400   3.865   2.452 -0.2448 -0.1495  0.3923
17183TIP3    H273041   6.435   3.790   2.579  0.1727 -0.0066  0.3639
17184TIP3   OH273042   3.042   2.933  13.091  0.1504  0.7140 -0.3765
17184TIP3    H173043   3.103   2.983  13.037 -1.1514 -0.1471 -2.7663
17184TIP3    H273044   2.955   2.962  13.062 -0.6566  1.1476  2.1953
17185TIP3   OH273045   5.968   0.342   6.720 -0.3127 -0.3782  0.3430
17185TIP3    H173046   6.046   0.352   6.775 -0.9392 -0.7876  1.3341
17185TIP3    H273047   5.997   0.367   6.632  0.5437  1.0080  0.9803
17186TIP3   OH273048   2.112   6.399   0.552 -0.7486  0.1104  0.1813
17186TIP3    H173049   2.051   6.348   0.499  1.0842 -1.8541 -0.1568
17186TIP3    H273050   2.082   6.387   0.642 -2.4766  1.5260 -0.1408
17187TIP3   OH273051   6.326   3.341   4.899  0.3986  0.1478 -0.1887
17187TIP3    H173052   6.400   3.363   4.954 -0.1816  0.4884  0.4704
17187TIP3    H273053   6.359   3.349   4.809  1.6441 -1.4281  0.0845
17188TIP3   OH273054   0.275   0.143   3.488 -0.2483  0.1549  0.2689
17188TIP3    H173055   0.307   0.061   3.450  0.5578  0.5146  0.1480
17188TIP3    H273056   0.227   0.116   3.566 -2.4546 -0.6471 -1.2794
17189TIP3   OH273057   1.916   1.904  13.564  0.0036  0.1466 -0.4468
17189TIP3    H173058   1.918   1.907  13.469  0.7791  1.8609 -0.4203
17189TIP3    H273059   1.970   1.978  13.591 -1.7390  0.8786  1.3164
17190TIP3   OH273060   3.435   4.362   2.148  0.0194  0.0578  0.5115
17190TIP3    H173061   3.388   4.407   2.218 -0.8157  1.2224 -0.7460
17190TIP3    H273062   3.414   4.270   2.161 -1.5162  0.4194  0.7895
17191TIP3   OH273063   3.339   5.270  10.345  0.2706  0.2904 -0.4074
17191TIP3    H173064   3.323   5.268  10.250  0.5896  0.6189 -0.4704
17191TIP3    H273065   3.429   5.301  10.353  0.8127 -1.3386 -0.0434
17192TIP3   OH273066   2.483   3.519  13.081  0.3065  0.2263  0.1396
17192TIP3    H173067   2.565   3.475  13.060 -0.3180 -0.1943 -1.5612
17192TIP3    H273068   2.429   3.450  13.120 -0.3061 -0.3006 -1.5794
17193TIP3   OH273069   2.426   4.284  11.808 -0.2473 -0.4862 -0.3130
17193TIP3    H173070   2.438   4.342  11.732  1.4161 -1.4319 -0.8262
17193TIP3    H273071   2.515   4.262  11.835 -0.7720  0.2927  2.3278
17194TIP3   OH273072   5.463   1.501  16.824 -0.0783 -0.1755 -0.0309
17194TIP3    H173073   5.411   1.500  16.904 -0.5587  2.3884 -0.2206
17194TIP3    H273074   5.511   1.583  16.828  1.0631 -0.7147 -1.6721
17195TIP3   OH273075   2.269   5.444  13.919 -0.0866  0.3787 -0.0359
17195TIP3    H173076   2.221   5.489  13.850 -1.0112 -1.0598 -0.3650
17195TIP3    H273077   2.203   5.392  13.965  1.0808 -1.5102 -0.3927
17196TIP3   OH273078   4.619   2.563   4.452 -0.0952 -1.1319 -0.0803
17196TIP3    H173079   4.524   2.552   4.449 -0.1910 -0.2221 -0.6871
17196TIP3    H273080   4.650   2.523   4.371 -0.0025 -1.0353 -0.0917
17197TIP3   OH273081   0.000   3.245   4.165  0.2751  0.0834  0.1641
17197TIP3    H173082   0.027   3.165   4.212 -1.4476 -0.4082  0.3961
17197TIP3    H273083   0.070   3.259   4.101  0.8594 -1.3400  0.4255
17198TIP3   OH273084   4.264   1.475  14.184 -0.2366  0.0611  0.2579
17198TIP3    H173085   4.318   1.426  14.122 -0.1665 -0.1122  0.4542
17198TIP3    H273086   4.261   1.420  14.263 -2.3599 -0.9144 -0.4267
17199TIP3   OH273087   1.464   1.700  11.111  0.5629  0.0441  0.2960
17199TIP3    H173088   1.458   1.644  11.034 -1.2766 -0.9835  1.1219
17199TIP3    H273089   1.499   1.643  11.180  2.7190  1.0937  0.1546
17200TIP3   OH273090   1.079   5.521  13.261 -0.2756 -0.4603  0.5864
17200TIP3    H173091   1.097   5.442  13.210  0.5460 -0.8938  1.5179
17200TIP3    H273092   1.012   5.494  13.324  0.7213 -0.7223  1.5705
17201TIP3   OH273093   4.660   2.248  10.579  0.3211 -0.1479  0.1419
17201TIP3    H173094   4.604   2.314  10.621  0.4845  2.0505 -2.7403
17201TIP3    H273095   4.749   2.280  10.593  0.3862  0.5661 -1.5760
17202TIP3   OH273096   6.744   5.510   2.104 -0.1461  0.2313 -0.1180
17202TIP3    H173097   6.745   5.474   2.015  0.9093  1.0321 -0.4450
17202TIP3    H273098   6.825   5.561   2.110  0.4442 -0.8322  1.7258
17203TIP3   OH273099   6.425   2.984   3.861 -0.3049 -0.0442  0.0795
17203TIP3    H173100   6.342   3.031   3.873 -0.8913 -1.1675  0.5456
17203TIP3    H273101   6.444   2.992   3.768 -0.4998  0.9266  0.1137
17204TIP3   OH273102   3.478   1.173  15.356 -0.2751  0.0973 -0.3567
17204TIP3    H173103   3.557   1.166  15.409 -0.0499  3.7175  0.0804
17204TIP3    H273104   3.408   1.185  15.420 -0.9593 -1.3372 -0.7977
17205TIP3   OH273105   5.171   4.782   0.081 -0.0541 -0.2502 -0.1418
17205TIP3    H173106   5.132   4.762   0.166 -0.7892 -2.1651 -0.8772
17205TIP3    H273107   5.107   4.840   0.039 -0.5503 -0.7254 -0.0607
17206TIP3   OH273108   4.142   2.053   3.104 -0.9245 -0.0819 -0.7090
17206TIP3    H173109   4.163   2.038   3.196  1.3236 -1.3811 -1.3581
17206TIP3    H273110   4.070   2.116   3.106 -0.5599  0.3776  1.9038
17207TIP3   OH273111   6.495   0.174  14.979 -0.4880 -0.2858 -0.0960
17207TIP3    H173112   6.510   0.100  15.037 -0.5482  0.5326  1.0112
17207TIP3    H273113   6.401   0.192  14.986 -0.4553 -0.0380 -0.2539
17208TIP3   OH273114   4.968   4.443  16.328 -0.2848 -0.3308 -0.2983
17208TIP3    H173115   5.041   4.383  16.311 -0.4101 -1.1583  1.7550
17208TIP3    H273116   4.968   4.454  16.423 -0.6741  2.4578 -0.5521
17209TIP3   OH273117   5.221   5.214  16.451  0.0107  0.7394 -0.1439
17209TIP3    H173118   5.185   5.232  16.538  0.2070  3.6531 -0.5937
17209TIP3    H273119   5.158   5.153  16.412 -1.6673  1.6540  1.0120
17210TIP3   OH273120   1.056   1.285  13.403 -0.1263  0.6349 -0.6457
17210TIP3    H173121   1.045   1.213  13.341  0.4492  0.8799 -1.0396
17210TIP3    H273122   0.971   1.330  13.403 -1.0673 -1.0012  0.8597
17211TIP3   OH273123   5.673   0.482   0.652 -0.5592 -0.1270  0.6634
17211TIP3    H173124   5.690   0.492   0.559  1.8415 -1.0691  0.9357
17211TIP3    H273125   5.587   0.441   0.656 -0.2485 -1.0653 -1.1835
17212TIP3   OH273126   2.711   0.841   4.021 -0.7652 -0.0769  0.3538
17212TIP3    H173127   2.777   0.791   3.974 -0.5422 -0.2181  0.8041
17212TIP3    H273128   2.649   0.775   4.054 -0.4920 -0.0648  0.9152
17213TIP3   OH273129   4.930   3.617  15.906 -0.6308  0.2629  0.2142
17213TIP3    H173130   5.020   3.599  15.932 -0.7942 -1.5625 -0.3517
17213TIP3    H273131   4.916   3.563  15.828 -2.0595  0.9177 -0.0245
17214TIP3   OH273132   5.239   0.050   4.927  0.4201 -0.4918  0.1771
17214TIP3    H173133   5.326   0.084   4.912 -0.2000  1.3657  0.5275
17214TIP3    H273134   5.224   0.064   5.021 -0.6680  0.2997 -0.0942
17215TIP3   OH273135   2.285   1.626  12.949 -0.3003  0.1652 -0.0176
17215TIP3    H173136   2.218   1.684  12.913 -1.5212 -0.1826  1.5881
17215TIP3    H273137   2.251   1.538  12.934  0.0353 -0.0333  0.3690
17216TIP3   OH273138   5.351   5.103  13.698  0.9374 -0.0799  0.0559
17216TIP3    H173139   5.325   5.181  13.649  1.5068 -1.6415 -2.9972
17216TIP3    H273140   5.269   5.068  13.734  0.5298  1.2840  0.4917
17217TIP3   OH273141   3.799   4.578  11.867  0.3854 -0.3043  0.3869
17217TIP3    H173142   3.722   4.632  11.851  1.0388  0.7086  0.5916
17217TIP3    H273143   3.796   4.558  11.961 -0.1045 -1.0251  0.2235
17218TIP3   OH273144   2.046   0.402  12.496 -0.0200 -0.3000 -0.2162
17218TIP3    H173145   2.018   0.494  12.496  0.9400  0.0378  1.5912
17218TIP3    H273146   2.082   0.388  12.583  1.1478 -2.0129 -0.9200
17219TIP3   OH273147   2.377   5.085   0.202 -0.1871 -0.1137 -0.0494
17219TIP3    H173148   2.434   5.157   0.229  0.0685 -0.5288  0.5132
17219TIP3    H273149   2.301   5.092   0.259 -2.0352  2.0753 -2.4630
17220TIP3   OH273150   3.780   6.532   5.741 -0.5163  0.3392  0.0503
17220TIP3    H173151   3.817   6.464   5.685 -0.0239 -0.5699  1.4217
17220TIP3    H273152   3.686   6.512   5.743 -0.5565  0.4431 -0.5055
17221TIP3   OH273153   2.179   2.584   4.677  0.4921  0.1285 -0.5973
17221TIP3    H173154   2.187   2.624   4.590 -2.1197  0.4944 -0.7427
17221TIP3    H273155   2.209   2.652   4.737  0.1118  0.7565 -1.0983
17222TIP3   OH273156   0.024   0.226   4.836 -0.0891  0.2345 -0.6799
17222TIP3    H173157   0.075   0.185   4.906 -0.4211  0.2556 -0.4181
17222TIP3    H273158   0.055   0.316   4.833 -2.5393  1.3488  1.9803
17223TIP3   OH273159   6.795   3.751   4.458  0.0332 -0.6907 -1.0045
17223TIP3    H173160   6.708   3.713   4.467  0.2209 -0.6533  2.1283
17223TIP3    H273161   6.847   3.681   4.417 -1.0699 -1.3597 -1.3030
17224TIP3   OH273162   1.667   3.912  15.350 -0.0719  0.3100 -0.2139
17224TIP3    H173163   1.587   3.860  15.361  0.6810 -0.3594  4.0689
17224TIP3    H273164   1.734   3.849  15.325 -0.3999  0.5052 -1.6828
17225TIP3   OH273165   2.282   3.686   2.349  0.1037  0.1137  0.0163
17225TIP3    H173166   2.312   3.763   2.395 -0.3303 -1.1120  2.5190
17225TIP3    H273167   2.190   3.704   2.330 -0.3768 -0.2489  1.8015
17226TIP3   OH273168   2.961   4.775  15.197 -0.1831 -0.4254  0.2497
17226TIP3    H173169   2.950   4.680  15.202  0.6007 -0.5486 -0.2152
17226TIP3    H273170   3.055   4.787  15.185 -0.3050  0.4053  0.1142
17227TIP3   OH273171   4.641   5.481  12.477 -0.4323  0.3281  0.4970
17227TIP3    H173172   4.559   5.527  12.497  1.2639  3.0425  1.7936
17227TIP3    H273173   4.705   5.551  12.463  2.0384 -1.6600  1.1598
17228TIP3   OH273174   0.032   4.681   5.744  0.5968 -0.2083 -0.1469
17228TIP3    H173175   0.074   4.669   5.829  0.2223 -0.4197  0.0086
17228TIP3    H273176   0.094   4.644   5.681 -0.4708 -2.9447  0.3008
17229TIP3   OH273177   0.473   2.121   5.216  0.3613  0.1564 -0.3929
17229TIP3    H173178   0.496   2.139   5.308  0.9024 -3.0939  0.2255
17229TIP3    H273179   0.407   2.187   5.195  1.8854  2.4571  1.5595
17230TIP3   OH273180   4.934   5.715  12.229  0.4239  0.6808  0.1140
17230TIP3    H173181   5.012   5.756  12.194  2.2474  0.0076  3.0058
17230TIP3    H273182   4.932   5.628  12.190  0.6381  0.9804 -0.5717
17231TIP3   OH273183   0.204   0.705  11.225  0.6709 -0.1550  0.1411
17231TIP3    H173184   0.156   0.786  11.243  1.7104  0.1614  1.7014
17231TIP3    H273185   0.264   0.729  11.154  1.7343  0.8104  1.3057
17232TIP3   OH273186   3.172   2.290  14.388 -0.1248  0.0831  0.9823
17232TIP3    H173187   3.242   2.231  14.417 -1.5240 -1.9739  0.4256
17232TIP3    H273188   3.098   2.269  14.445 -1.4192 -0.5180 -0.8353
17233TIP3   OH273189   0.080   0.087  15.098 -0.3659 -0.1882 -0.0731
17233TIP3    H173190   0.045   0.011  15.143 -2.6360  1.7611  1.7470
17233TIP3    H273191   0.127   0.136  15.165 -0.7070  1.0009 -0.6704
17234TIP3   OH273192   6.123   3.721  16.772 -0.0486 -0.1020  0.0701
17234TIP3    H173193   6.183   3.652  16.746 -2.1405 -1.6172 -1.0229
17234TIP3    H273194   6.113   3.775  16.694  0.1411  0.3521  0.3539
17235TIP3   OH273195   5.748   1.970  13.120  0.0238  0.3283  0.4460
17235TIP3    H173196   5.806   2.043  13.140  1.2010 -0.0836 -1.2595
17235TIP3    H273197   5.692   2.002  13.050 -0.8229  0.2332  1.0682
17236TIP3   OH273198   4.653   1.717   4.829  0.5497 -0.1804 -0.3196
17236TIP3    H173199   4.653   1.706   4.924 -0.2235 -5.0097 -0.6039
17236TIP3    H273200   4.745   1.723   4.806  0.9174 -1.4546  0.6593
17237TIP3   OH273201   5.274   1.072   1.980 -0.0624 -0.4612 -0.3975
17237TIP3    H173202   5.184   1.092   2.005  0.3249  1.4990 -0.4101
17237TIP3    H273203   5.278   1.093   1.887  0.6740  0.6261 -0.1442
17238TIP3   OH273204   2.730   5.987  15.563  0.1958 -0.7013  0.5413
17238TIP3    H173205   2.666   5.946  15.621  1.3136 -1.4483  1.3163
17238TIP3    H273206   2.815   5.966  15.603  0.8855  1.4610  0.3519
17239TIP3   OH273207   0.450   1.106  11.715  0.1175  0.0521 -0.0975
17239TIP3    H173208   0.523   1.068  11.665 -0.2531  0.5645 -1.0498
17239TIP3    H273209   0.423   1.036  11.774 -0.9455 -1.4219 -2.2156
17240TIP3   OH273210   0.283   2.726  15.185  0.2963  0.5296 -0.0638
17240TIP3    H173211   0.279   2.631  15.183 -2.6109  0.5851 -1.1701
17240TIP3    H273212   0.255   2.749  15.274  0.1609  0.3785 -0.0677
17241TIP3   OH273213   4.184   5.875  12.363 -0.5373 -0.2966  0.0292
17241TIP3    H173214   4.272   5.890  12.328 -0.9033 -1.0610 -1.3009
17241TIP3    H273215   4.127   5.930  12.310 -1.2422 -2.3224 -1.4558
17242TIP3   OH273216   4.114   0.553   4.963 -0.1034 -0.6684  0.0926
17242TIP3    H173217   4.115   0.644   4.933  1.6629 -1.4986 -2.6910
17242TIP3    H273218   4.189   0.513   4.921 -1.3563 -3.6724  0.5072
17243TIP3   OH273219   5.594   2.058  14.531 -0.2408  0.2776  0.3785
17243TIP3    H173220   5.636   1.975  14.552 -1.7054 -0.5037  0.3571
17243TIP3    H273221   5.629   2.081  14.444 -1.0545 -1.1982 -0.3843
17244TIP3   OH273222   5.616   6.197  12.353  0.1859 -0.4462  0.0595
17244TIP3    H173223   5.617   6.136  12.279 -0.1567 -0.6829  0.2487
17244TIP3    H273224   5.700   6.241  12.348  0.0862 -0.3168 -0.5952
17245TIP3   OH273225   5.485   6.077  11.939  0.5185 -0.4256  0.2005
17245TIP3    H173226   5.551   6.143  11.914 -0.5166  0.1697 -1.0775
17245TIP3    H273227   5.402   6.125  11.939 -0.2366 -1.6845 -0.5469
17246TIP3   OH273228   0.428   5.174   0.045 -0.4990  0.6109  0.4542
17246TIP3    H173229   0.444   5.266   0.063  0.7201  0.4535  0.2712
17246TIP3    H273230   0.480   5.128   0.111  0.5197  0.0493 -0.7082
17247TIP3   OH273231   0.483   6.664  11.987 -0.4547  0.3843  0.0784
17247TIP3    H173232   0.441   6.628  11.908 -1.6146 -1.1218  1.3249
17247TIP3    H273233   0.544   6.729  11.953 -0.9591 -0.1616 -2.0675
17248TIP3   OH273234   6.405   0.617  14.004 -0.1493 -0.6911 -0.7074
17248TIP3    H173235   6.367   0.665  13.931  0.3001  0.6647 -0.0699
17248TIP3    H273236   6.498   0.638  14.001 -0.4464  1.4772  1.7104
17249TIP3   OH273237   0.793   4.856   2.212  0.0951 -0.2062 -0.0500
17249TIP3    H173238   0.719   4.886   2.265  2.3696  0.8607  2.8359
17249TIP3    H273239   0.764   4.773   2.175 -2.8649  0.6568  0.0990
17250TIP3   OH273240   2.152   1.410  12.854 -0.0306 -0.2237  0.1034
17250TIP3    H173241   2.114   1.424  12.941 -0.5332  0.1585 -0.1683
17250TIP3    H273242   2.099   1.340  12.816 -2.3631  2.0924 -1.3252
17251TIP3   OH273243   0.360   1.054   1.238  0.1381 -0.1446  0.0960
17251TIP3    H173244   0.361   1.004   1.156  1.4733 -0.2963  0.1886
17251TIP3    H273245   0.444   1.036   1.279  1.0275  2.7105 -0.2022
17252TIP3   OH273246   6.736   2.556  15.109 -0.0571 -0.1266  0.6063
17252TIP3    H173247   6.778   2.643  15.115 -0.4994  0.1445 -0.1069
17252TIP3    H273248   6.744   2.533  15.016 -1.1739 -0.2260  0.5278
17253TIP3   OH273249   2.424   1.448   3.032  0.5339 -0.4838 -0.1132
17253TIP3    H173250   2.455   1.452   2.941  0.2035 -1.2819 -0.2705
17253TIP3    H273251   2.484   1.506   3.080  1.5285 -1.0603 -0.6150
17254TIP3   OH273252   0.326   2.553   0.215 -0.3493 -0.1609 -0.2126
17254TIP3    H173253   0.421   2.544   0.226  0.2945  1.4457 -3.2279
17254TIP3    H273254   0.312   2.540   0.121 -3.2460 -0.9910  0.2465
17255TIP3   OH273255   0.719   3.774   0.205  0.4970 -0.4739 -0.1621
17255TIP3    H173256   0.776   3.767   0.128  1.2210  2.3887 -0.0238
17255TIP3    H273257   0.778   3.767   0.280  1.1890  3.9401 -0.0108
17256TIP3   OH273258   5.620   0.787  14.691  0.1495  0.3575 -0.6944
17256TIP3    H173259   5.596   0.694  14.686 -0.4928  0.5112 -0.6393
17256TIP3    H273260   5.623   0.805  14.785  0.1580  0.4193 -0.7069
17257TIP3   OH273261   2.982   2.520  16.004 -0.2246  0.3226  0.0150
17257TIP3    H173262   2.887   2.506  16.006  0.0274 -1.5066  1.3877
17257TIP3    H273263   2.994   2.585  15.934 -2.5123  1.0418  0.1829
17258TIP3   OH273264   2.767   6.427  12.911  0.0867  0.9740 -0.3386
17258TIP3    H173265   2.698   6.432  12.977 -1.3206 -3.3120 -1.1566
17258TIP3    H273266   2.720   6.402  12.831  2.3786 -0.1577 -1.3970
17259TIP3   OH273267   3.030   1.887  11.551 -0.2713 -0.5760 -0.2047
17259TIP3    H173268   2.999   1.819  11.610  0.7127 -0.3740  0.5754
17259TIP3    H273269   2.957   1.947  11.541 -0.7017 -1.0369  0.1683
17260TIP3   OH273270   5.765   1.832   2.440  0.4557 -0.3777 -0.0341
17260TIP3    H173271   5.816   1.816   2.360 -0.9267 -0.4126 -0.9371
17260TIP3    H273272   5.775   1.926   2.455 -0.6749 -0.0304 -1.2677
17261TIP3   OH273273   5.232   6.402  11.112  0.9313  0.1995 -0.0541
17261TIP3    H173274   5.257   6.421  11.203  0.3138 -1.2617  0.4564
17261TIP3    H273275   5.160   6.340  11.120  1.6929 -0.9459 -1.5623
17262TIP3   OH273276   2.554   2.208   3.186  0.2090 -0.2775 -0.4086
17262TIP3    H173277   2.631   2.212   3.129 -0.3309 -0.7934 -1.2081
17262TIP3    H273278   2.555   2.290   3.234  0.7905  0.0889 -1.0236
17263TIP3   OH273279   1.014   4.726  15.616 -0.1197  0.2546 -0.3496
17263TIP3    H173280   0.920   4.744  15.626 -0.4886 -1.8027  0.3733
17263TIP3    H273281   1.051   4.743  15.702 -0.0340 -0.0672 -0.3240
17264TIP3   OH273282   4.171   3.035   2.173  0.5199  0.3436 -0.2682
17264TIP3    H173283   4.239   2.968   2.180 -0.7276 -0.9096  0.4386
17264TIP3    H273284   4.148   3.055   2.264  1.1126  2.0013 -0.4661
17265TIP3   OH273285   6.101   4.031   1.411 -0.5893  0.1999  0.0704
17265TIP3    H173286   6.107   4.126   1.409 -0.3738  0.1875  0.1734
17265TIP3    H273287   6.013   4.012   1.378 -0.3891  0.4042 -0.6109
17266TIP3   OH273288   0.812   0.558   1.557 -0.1760  0.0847  0.3326
17266TIP3    H173289   0.857   0.564   1.473 -0.3137  1.2743  0.3181
17266TIP3    H273290   0.733   0.612   1.546 -0.4982 -0.2206  1.0405
17267TIP3   OH273291   4.160   0.317   3.929  0.2051 -0.5069 -0.4382
17267TIP3    H173292   4.158   0.267   3.847 -0.9970 -0.3332 -0.5193
17267TIP3    H273293   4.213   0.394   3.908  0.9860 -1.0839 -0.6739
17268TIP3   OH273294   6.368   1.133  12.408  0.3840  0.2039 -0.4559
17268TIP3    H173295   6.326   1.217  12.387 -0.6217 -0.3773 -0.8391
17268TIP3    H273296   6.341   1.075  12.338  1.6740 -0.2680 -0.5886
17269TIP3   OH273297   5.760   0.492   3.761 -0.0869 -0.0516 -0.1833
17269TIP3    H173298   5.676   0.522   3.728  0.1028  0.7442  0.0252
17269TIP3    H273299   5.749   0.398   3.776 -0.6878 -0.0982 -0.8997
17270TIP3   OH273300   2.063   3.675   4.537  0.0768 -0.1722  0.4831
17270TIP3    H173301   2.088   3.650   4.626 -1.0217 -1.8029  0.3853
17270TIP3    H273302   1.975   3.639   4.527  0.6787 -1.1976 -1.7100
17271TIP3   OH273303   1.235   5.580  16.580 -0.8139 -0.1968  0.3126
17271TIP3    H173304   1.215   5.537  16.497 -3.7487  0.0935  0.7415
17271TIP3    H273305   1.325   5.555  16.600  0.0972 -0.0433 -3.0546
17272TIP3   OH273306   0.340   4.838  11.844 -0.2481  0.2522  0.3366
17272TIP3    H173307   0.297   4.822  11.760 -0.4238  2.0320  0.0351
17272TIP3    H273308   0.298   4.778  11.906 -1.5695  0.3685 -0.4229
17273TIP3   OH273309   5.508   4.281   1.368  1.0664  0.0461  0.1500
17273TIP3    H173310   5.537   4.332   1.292 -1.8335  0.2152 -0.9773
17273TIP3    H273311   5.477   4.199   1.331  0.9677 -0.4705  1.3417
17274TIP3   OH273312   1.033   1.678  13.226  0.0542  0.5619 -0.0409
17274TIP3    H173313   0.957   1.648  13.176  1.1642 -1.7070 -0.5078
17274TIP3    H273314   1.008   1.664  13.318  0.0379 -0.5719 -0.2047
17275TIP3   OH273315   2.267   5.062   2.517 -0.2416 -0.0962 -0.0138
17275TIP3    H173316   2.207   5.006   2.469  1.1136 -1.3388 -0.3144
17275TIP3    H273317   2.330   5.002   2.557  0.1045  1.0749  1.3100
17276TIP3   OH273318   6.116   3.005  15.959  0.2165  0.0738 -0.3806
17276TIP3    H173319   6.094   3.090  15.997  1.3609  1.5775 -2.7988
17276TIP3    H273320   6.051   2.992  15.890  0.0363 -1.0669 -0.0183
17277TIP3   OH273321   5.721   3.455   2.549 -0.3807 -0.4899 -0.1228
17277TIP3    H173322   5.698   3.391   2.481  1.0111  0.2095 -1.2890
17277TIP3    H273323   5.685   3.418   2.630  0.5827 -2.8690 -0.7159
17278TIP3   OH273324   4.401   3.858   1.592  0.0007  0.8417  0.1461
17278TIP3    H173325   4.395   3.952   1.604 -0.5063  0.9465 -0.7821
17278TIP3    H273326   4.418   3.823   1.679  1.5845  1.8852  0.2966
17279TIP3   OH273327   6.643   6.326   2.055  0.2199  0.2910  0.1190
17279TIP3    H173328   6.626   6.260   2.122  3.1078 -0.0041  0.6883
17279TIP3    H273329   6.649   6.275   1.973  0.1041  0.1713  0.1849
17280TIP3   OH273330   0.764   6.296   1.805  0.3262  0.5325 -0.8173
17280TIP3    H173331   0.749   6.229   1.872  0.4228  2.0579  0.8059
17280TIP3    H273332   0.781   6.246   1.725 -0.5519 -1.3594  0.1025
17281TIP3   OH273333   5.579   2.949   0.456 -0.4396 -0.0901 -0.0489
17281TIP3    H173334   5.528   3.006   0.399 -0.1497 -0.2225 -0.4543
17281TIP3    H273335   5.663   2.939   0.410 -0.5803 -1.0405 -0.1091
17282TIP3   OH273336   6.275   1.284  16.058  0.2942  0.4466 -0.0515
17282TIP3    H173337   6.208   1.311  15.995  0.2433  3.1210  0.9888
17282TIP3    H273338   6.357   1.285  16.008  0.1193  1.5554 -0.3445
17283TIP3   OH273339   4.064   4.245   2.157 -0.1434  0.2239 -0.1460
17283TIP3    H173340   4.107   4.228   2.240 -1.1359  1.3617  0.6449
17283TIP3    H273341   3.992   4.183   2.154 -0.2079  0.2947 -0.0715
17284TIP3   OH273342   0.298   4.606   5.672 -0.2274  0.5284 -0.1071
17284TIP3    H173343   0.373   4.568   5.625 -1.6568 -0.3693 -1.7763
17284TIP3    H273344   0.336   4.679   5.721  1.8347 -0.2308 -0.4473
17285TIP3   OH273345   4.325   3.746   3.210  0.2027 -0.0701 -0.3408
17285TIP3    H173346   4.303   3.764   3.301  2.3029  0.7699  0.0672
17285TIP3    H273347   4.268   3.803   3.159  0.4071  0.9595  0.5470
17286TIP3   OH273348   5.263   1.752  12.356 -0.2312 -0.3511  0.4082
17286TIP3    H173349   5.275   1.719  12.267 -0.1138  0.8295 -0.0368
17286TIP3    H273350   5.341   1.806  12.372 -0.5216 -0.0963  1.0041
17287TIP3   OH273351   6.618   4.592  10.716 -0.0438  0.0014  0.1528
17287TIP3    H173352   6.646   4.682  10.733  0.9237 -0.4226  0.9112
17287TIP3    H273353   6.665   4.567  10.636 -1.4508  0.6432 -0.9011
17288TIP3   OH273354   1.011   5.635  14.299 -0.3359  0.0234 -0.0931
17288TIP3    H173355   0.934   5.675  14.339 -2.5781 -2.2882 -1.7848
17288TIP3    H273356   1.035   5.564  14.358  0.7477  0.9206  0.5801
17289TIP3   OH273357   6.708   4.235  12.936 -0.0529 -0.1073 -0.3707
17289TIP3    H173358   6.676   4.145  12.934 -1.5858  0.3999 -0.0518
17289TIP3    H273359   6.804   4.226  12.942 -0.2595 -1.7582  2.6106
17290TIP3   OH273360   5.903   5.381   5.007  0.4240 -0.1625 -0.4103
17290TIP3    H173361   5.919   5.346   4.919 -0.3967  3.3318 -2.1327
17290TIP3    H273362   5.989   5.408   5.038  0.4105  1.3066 -1.5167
17291TIP3   OH273363   0.755   2.100   0.723  0.3720  0.3177 -0.4216
17291TIP3    H173364   0.844   2.111   0.757  0.1859  0.5036  0.0211
17291TIP3    H273365   0.723   2.190   0.710  0.0277  0.2688  0.0311
17292TIP3   OH273366   2.565   5.057   5.274  0.3459  0.6477  0.1794
17292TIP3    H173367   2.577   4.990   5.342 -1.3520 -0.4160 -0.4955
17292TIP3    H273368   2.600   5.137   5.313  1.9121 -0.4937  1.2428
17293TIP3   OH273369   5.483   0.150  14.831 -0.2984  0.4153  0.1038
17293TIP3    H173370   5.446   0.108  14.909 -0.0278  0.0788  0.0496
17293TIP3    H273371   5.570   0.179  14.858 -0.2216  0.3364 -0.0615
17294TIP3   OH273372   5.907   0.794   1.087 -0.2356  0.2052  0.1487
17294TIP3    H173373   5.973   0.733   1.055 -0.4090 -0.2482  0.6416
17294TIP3    H273374   5.842   0.739   1.130  0.0825  0.7843  1.4438
17295TIP3   OH273375   5.349   4.568   0.029 -0.2714  0.5380  0.2777
17295TIP3    H173376   5.296   4.646   0.011  1.3414  1.3432 -1.2670
17295TIP3    H273377   5.426   4.577  -0.028  0.0094 -2.1674  0.1014
17296TIP3   OH273378   2.878   6.103  10.870 -0.1451  0.7924 -0.0699
17296TIP3    H173379   2.915   6.171  10.927  0.4952  0.3799  0.0268
17296TIP3    H273380   2.904   6.021  10.913 -1.0609  0.4891 -0.0905
17297TIP3   OH273381   3.728   2.946   1.656  0.1426 -0.0659  0.4263
17297TIP3    H173382   3.673   2.868   1.660 -0.7786  0.6009  1.1464
17297TIP3    H273383   3.755   2.962   1.746 -1.0440  1.3677  0.5695
17298TIP3   OH273384   2.027   5.794  15.505  0.0224 -0.5147 -0.0517
17298TIP3    H173385   2.112   5.827  15.475  0.4974 -1.9313 -0.3816
17298TIP3    H273386   1.963   5.856  15.470  0.6595 -1.2504 -2.8112
17299TIP3   OH273387   2.778   4.067   1.618  0.2480 -0.4024  0.1775
17299TIP3    H173388   2.776   4.027   1.531  2.4537 -0.4334  0.0719
17299TIP3    H273389   2.730   4.006   1.673 -0.3729 -0.8640 -0.8363
17300TIP3   OH273390   4.064   6.389   5.844 -0.6826  0.5193 -0.1122
17300TIP3    H173391   4.149   6.349   5.829 -1.2643 -0.8001 -0.0378
17300TIP3    H273392   4.050   6.447   5.769  0.6332  1.4119  0.3051
17301TIP3   OH273393   3.399   4.759   4.612  0.1866 -0.0586 -0.2945
17301TIP3    H173394   3.413   4.791   4.523 -0.4547 -0.2446 -0.4684
17301TIP3    H273395   3.404   4.664   4.604 -1.1588 -0.1419 -0.3786
17302TIP3   OH273396   5.809   0.178   5.208 -0.1393  0.0279  0.2608
17302TIP3    H173397   5.756   0.251   5.175 -0.7656  0.5139  2.2270
17302TIP3    H273398   5.840   0.207   5.293  1.4598 -1.1643  0.1333
17303TIP3   OH273399   0.254   5.020   1.889  0.1537 -0.7776  0.2506
17303TIP3    H173400   0.319   5.049   1.825 -0.1149 -2.1052 -0.6548
17303TIP3    H273401   0.185   4.979   1.837 -2.0733  1.6406  1.0804
17304TIP3   OH273402   5.825   0.842  16.448  0.3919  0.2863 -0.3087
17304TIP3    H173403   5.887   0.913  16.464 -0.6489  0.8697  1.3373
17304TIP3    H273404   5.772   0.837  16.528  0.4051 -2.3208 -0.3714
17305TIP3   OH273405   0.031   1.920   0.879  0.4126 -0.0111  0.1847
17305TIP3    H173406  -0.055   1.957   0.897 -0.9470 -0.9192 -3.5831
17305TIP3    H273407   0.065   1.971   0.806  0.3954 -3.1231 -2.2428
17306TIP3   OH273408   6.492   4.532  14.258  0.3036 -0.8631 -0.2121
17306TIP3    H173409   6.559   4.471  14.227  0.8322  0.8823 -2.8218
17306TIP3    H273410   6.536   4.617  14.260 -1.6047  0.2381 -1.4499
17307TIP3   OH273411   5.169   6.618   4.827 -0.8284  0.8135 -0.6938
17307TIP3    H173412   5.153   6.707   4.858  1.5246  1.0705 -0.0208
17307TIP3    H273413   5.259   6.621   4.794 -0.7896 -1.2683 -0.8622
17308TIP3   OH273414   5.067   0.411  12.177 -0.1958 -0.3728  0.5000
17308TIP3    H173415   4.992   0.423  12.119 -0.4565  1.0868  1.1079
17308TIP3    H273416   5.142   0.442  12.125 -0.2578 -0.2002  0.5132
17309TIP3   OH273417   1.722   3.971  14.781  0.3513 -0.1451 -0.5793
17309TIP3    H173418   1.795   3.988  14.721  1.9829 -0.6435  1.1534
17309TIP3    H273419   1.713   4.053  14.831  0.8539 -0.6237  0.3230
17310TIP3   OH273420   6.618   3.883   1.468 -0.4238  0.0483  0.2724
17310TIP3    H173421   6.533   3.838   1.465  0.2107 -1.1710 -0.0504
17310TIP3    H273422   6.674   3.825   1.519  0.8834 -0.3616 -1.5562
17311TIP3   OH273423   0.034   6.045  15.173 -0.5208  0.2069 -0.1422
17311TIP3    H173424  -0.020   6.095  15.112 -0.3498  1.8415  0.9873
17311TIP3    H273425   0.121   6.083  15.165 -0.0728 -0.7874 -0.1800
17312TIP3   OH273426   5.958   5.089   5.968 -0.0265  0.5912  0.1972
17312TIP3    H173427   5.883   5.050   5.924 -0.8897  0.1343  1.9778
17312TIP3    H273428   5.935   5.087   6.061  1.4733  2.0022  0.6496
17313TIP3   OH273429   0.643   4.936   2.584  0.0656 -0.4156  0.0901
17313TIP3    H173430   0.602   5.022   2.593  0.4206 -0.2079 -0.1983
17313TIP3    H273431   0.737   4.956   2.575  0.7769 -1.0197  4.3268
17314TIP3   OH273432   5.603   3.268   3.563  0.0278  0.0713  0.1636
17314TIP3    H173433   5.601   3.233   3.652  1.5847 -2.3857 -0.6669
17314TIP3    H273434   5.522   3.236   3.523  0.3172 -0.6239  0.1150
17315TIP3   OH273435   4.459   4.282  16.953 -0.1614  0.5493  0.1454
17315TIP3    H173436   4.445   4.357  16.895  0.6490  1.3339  0.9258
17315TIP3    H273437   4.432   4.314  17.039  1.1238  0.2763  0.6650
17316TIP3   OH273438   3.347   3.928  16.349  0.2487  0.0460 -0.4980
17316TIP3    H173439   3.424   3.968  16.389  1.1101 -0.6143 -1.4396
17316TIP3    H273440   3.366   3.834  16.351 -0.1330 -0.0637 -1.5277
17317TIP3   OH273441   6.163   2.693  14.331  0.0224  0.2372  0.4885
17317TIP3    H173442   6.211   2.643  14.265 -0.8286  1.1867 -0.9118
17317TIP3    H273443   6.213   2.680  14.412  0.5445 -1.7695 -0.1009
17318TIP3   OH273444   6.136   4.311   5.726 -0.1663  0.3454  0.2872
17318TIP3    H173445   6.105   4.360   5.801 -1.0856  0.1938  0.0213
17318TIP3    H273446   6.162   4.226   5.762 -0.7356  0.2232  0.4193
17319TIP3   OH273447   0.467   5.606  16.151  0.3024  0.5215  0.0091
17319TIP3    H173448   0.456   5.690  16.104  0.1440  0.3074 -0.3423
17319TIP3    H273449   0.519   5.553  16.092  1.5620  0.8302  0.8166
17320TIP3   OH273450   1.180   1.688   4.917  0.1929 -0.4080  0.5689
17320TIP3    H173451   1.274   1.690   4.903  0.2184  1.0532  0.8520
17320TIP3    H273452   1.144   1.666   4.831  0.7625 -0.3688  0.3173
17321TIP3   OH273453   0.372   6.626  13.163  0.2114  0.2247  0.0515
17321TIP3    H173454   0.380   6.701  13.104  0.6291  0.2926  0.1856
17321TIP3    H273455   0.385   6.663  13.251 -1.4049  0.2894  0.2901
17322TIP3   OH273456   1.264   4.537   5.101 -0.0978  0.1580 -0.4803
17322TIP3    H173457   1.186   4.567   5.055  1.0848  2.1638 -1.2984
17322TIP3    H273458   1.310   4.617   5.125  0.2221 -0.8542  2.7411
17323TIP3   OH273459   1.462   4.534   3.812 -0.2834  0.8554  0.1273
17323TIP3    H173460   1.440   4.453   3.858 -1.2799  0.4199 -1.0629
17323TIP3    H273461   1.394   4.543   3.746 -0.3505  2.8286  0.4085
17324TIP3   OH273462   4.434   3.825  15.994  0.6237 -0.3386  0.1309
17324TIP3    H173463   4.447   3.887  16.066  1.8853 -1.3883  0.8641
17324TIP3    H273464   4.417   3.880  15.918 -2.1842  0.8027  1.4275
17325TIP3   OH273465   5.998   0.602   3.617  0.6851 -0.3268  0.3049
17325TIP3    H173466   6.063   0.532   3.627  1.2858  0.1840  0.0232
17325TIP3    H273467   5.917   0.564   3.652  1.3267 -0.6634  1.4933
17326TIP3   OH273468   0.549   5.080   1.359 -0.5970  0.3654 -0.5637
17326TIP3    H173469   0.502   5.125   1.288 -1.6326  2.4148  1.2934
17326TIP3    H273470   0.480   5.038   1.410  0.0296 -0.2240 -0.2002
17327TIP3   OH273471   5.187   2.414   3.171  0.1677  0.1915 -0.0572
17327TIP3    H173472   5.251   2.351   3.137  0.8300  1.5425 -1.3948
17327TIP3    H273473   5.216   2.432   3.260  0.9044 -0.1733 -0.2168
17328TIP3   OH273474   2.066   4.217   4.406 -0.0119 -0.2851 -0.1112
17328TIP3    H173475   2.021   4.300   4.392  0.3137 -0.0300  0.3372
17328TIP3    H273476   2.040   4.163   4.331  1.9678  1.1449 -1.9796
17329TIP3   OH273477   6.618   5.484  16.448 -0.4065  0.3085  0.1286
17329TIP3    H173478   6.712   5.495  16.459 -0.2831 -0.8804  0.3230
17329TIP3    H273479   6.605   5.477  16.354 -0.4307  1.4112  0.0272
17330TIP3   OH273480   5.241   6.157   3.725 -0.1339  0.1136  0.1484
17330TIP3    H173481   5.261   6.249   3.708 -0.5899  0.2332  0.2558
17330TIP3    H273482   5.145   6.152   3.727 -0.1277 -0.4763 -0.4630
17331TIP3   OH273483   1.605   6.166  14.271 -0.5520 -0.4487 -0.2329
17331TIP3    H173484   1.540   6.104  14.239 -1.4018  0.4290 -0.2577
17331TIP3    H273485   1.641   6.205  14.191  0.4375 -1.3359 -0.2431
17332TIP3   OH273486   6.814   5.858   4.114 -0.0894  0.9054 -0.2888
17332TIP3    H173487   6.895   5.906   4.096  0.6838 -0.1823  0.1723
17332TIP3    H273488   6.767   5.858   4.031  0.2135  1.8443 -0.4738
17333TIP3   OH273489   2.182   3.602  14.196  0.3211  1.1084 -0.2990
17333TIP3    H173490   2.194   3.523  14.249 -2.0530  0.2225 -0.9313
17333TIP3    H273491   2.268   3.616  14.155  0.9234 -0.9327  0.1227
17334TIP3   OH273492   4.382   2.687   0.486 -0.0550 -0.2718 -0.7493
17334TIP3    H173493   4.437   2.609   0.496  1.1826  0.2745 -2.7102
17334TIP3    H273494   4.432   2.757   0.529 -0.6682 -0.3254  0.0811
17335TIP3   OH273495   4.401   0.599   1.712 -0.3738  0.1915 -0.1079
17335TIP3    H173496   4.433   0.566   1.628  3.1471 -0.4602  1.3130
17335TIP3    H273497   4.343   0.672   1.689  0.2158 -0.1614 -3.0800
17336TIP3   OH273498   1.580   1.289   0.637 -0.1884  0.1416  0.3556
17336TIP3    H173499   1.525   1.298   0.715  1.0515 -1.8681  1.5481
17336TIP3    H273500   1.636   1.366   0.638  0.8704 -0.5772  2.4047
17337TIP3   OH273501   3.723   2.086  13.853 -0.0822 -0.2257 -0.2335
17337TIP3    H173502   3.806   2.102  13.808 -0.7347  1.1480 -1.0134
17337TIP3    H273503   3.717   2.158  13.917 -0.0052 -1.1503  0.8377
17338TIP3   OH273504   2.163   5.296   0.801 -0.3294  0.3549  0.4665
17338TIP3    H173505   2.102   5.255   0.862  0.1006  1.7643  1.8946
17338TIP3    H273506   2.242   5.243   0.806 -0.3604  0.3591  0.9729
17339TIP3   OH273507   5.476   2.602  16.659  1.0281  0.2974 -0.1699
17339TIP3    H173508   5.511   2.684  16.694  0.5457  0.5190 -0.2015
17339TIP3    H273509   5.470   2.544  16.735  0.4673  0.6086  0.0287
17340TIP3   OH273510   0.089   4.781   5.264  0.1654  0.1754 -0.1596
17340TIP3    H173511   0.055   4.841   5.331  0.7937 -0.1244  0.4427
17340TIP3    H273512   0.131   4.711   5.314  0.4630 -0.1673 -0.8721
17341TIP3   OH273513   3.198   5.150  11.701  0.6531  0.5497  0.0366
17341TIP3    H173514   3.117   5.192  11.670 -0.6501 -1.0116  1.2130
17341TIP3    H273515   3.234   5.212  11.764 -1.3678 -0.0759  1.9219
17342TIP3   OH273516   5.728   1.394   2.722  0.2832  0.0465 -0.5268
17342TIP3    H173517   5.738   1.472   2.668  0.2077 -0.0487 -0.6784
17342TIP3    H273518   5.763   1.420   2.807 -0.1888  0.3981 -0.4343
17343TIP3   OH273519   1.648   5.235   1.653  0.6297  0.1145 -0.8763
17343TIP3    H173520   1.726   5.222   1.708  0.0988 -2.1248 -0.5484
17343TIP3    H273521   1.636   5.329   1.651  2.6993  0.4663 -0.0120
17344TIP3   OH273522   3.316   0.100  16.243  0.4637 -0.6320  0.2447
17344TIP3    H173523   3.269   0.135  16.318  0.0027  0.0434 -0.3392
17344TIP3    H273524   3.250   0.098  16.173  1.0564 -0.5895 -0.3242
17345TIP3   OH273525   4.594   4.518  15.467  0.6096  0.6155 -0.7760
17345TIP3    H173526   4.611   4.439  15.415  0.4271  0.9153 -1.2935
17345TIP3    H273527   4.680   4.543  15.501  0.2689 -1.8845  2.4683
17346TIP3   OH273528   0.444   0.192  12.177  0.0852  0.1670 -0.2704
17346TIP3    H173529   0.518   0.188  12.116  1.0793 -1.6364  0.9721
17346TIP3    H273530   0.481   0.227  12.258 -0.9232  1.2041 -0.2205
17347TIP3   OH273531   0.692   3.999  12.488 -0.0080 -0.4358 -0.7559
17347TIP3    H173532   0.744   3.923  12.514 -1.6568 -1.2520  0.4100
17347TIP3    H273533   0.752   4.073  12.497  1.2284 -1.4254 -0.4669
17348TIP3   OH273534   0.163   0.354  13.438  0.2353 -0.0016  0.0148
17348TIP3    H173535   0.210   0.437  13.433  2.4434 -0.9832  2.3678
17348TIP3    H273536   0.212   0.295  13.380  1.4229 -0.7426  1.6726
17349TIP3   OH273537   3.448   0.932  10.978 -0.2242  0.2377  0.1004
17349TIP3    H173538   3.472   0.982  10.900 -0.4807 -1.4388 -1.1226
17349TIP3    H273539   3.426   0.998  11.043  0.1920  1.7031 -1.1800
17350TIP3   OH273540   1.372   2.800  16.639  0.0618  0.4038  0.1892
17350TIP3    H173541   1.305   2.746  16.597  0.1289 -1.3414  2.1777
17350TIP3    H273542   1.440   2.738  16.665  1.7887  1.9358 -0.4347
17351TIP3   OH273543   4.924   4.844  13.581  0.2818  0.1249  0.1730
17351TIP3    H173544   4.830   4.843  13.600  0.1237 -1.3150 -0.5387
17351TIP3    H273545   4.947   4.752  13.569  1.8970  0.4128  0.7920
17352TIP3   OH273546   3.168   2.178  16.245  0.0777 -0.2658  0.3946
17352TIP3    H173547   3.185   2.200  16.337 -1.3614  0.8237  0.4311
17352TIP3    H273548   3.136   2.260  16.207  0.5914 -0.7233 -1.0800
17353TIP3   OH273549   2.223   4.509  13.794  0.1412  0.5277  0.7812
17353TIP3    H173550   2.187   4.517  13.706 -0.6546  2.4194  1.2192
17353TIP3    H273551   2.153   4.469  13.845  1.0326 -1.6898  0.3559
17354TIP3   OH273552   2.145   3.208  13.632  0.0060  0.4043 -0.0016
17354TIP3    H173553   2.062   3.166  13.609  0.1969 -0.6888  1.2155
17354TIP3    H273554   2.183   3.151  13.699  1.0125  1.7054  0.5711
17355TIP3   OH273555   1.183   4.191   4.793  0.5840 -0.0868  0.0577
17355TIP3    H173556   1.222   4.135   4.860  0.7872  0.3963  0.3543
17355TIP3    H273557   1.128   4.252   4.842  2.3445  1.6178  0.0334
17356TIP3   OH273558   2.399   0.306  12.255 -0.3328  0.1941 -0.4869
17356TIP3    H173559   2.488   0.269  12.253 -0.8274 -1.1003  0.0871
17356TIP3    H273560   2.346   0.238  12.296 -1.7572  0.5996 -1.5740
17357TIP3   OH273561   4.718   3.944  14.977  0.0593  0.0901 -0.3848
17357TIP3    H173562   4.766   3.888  14.917 -0.1841  0.7124 -1.1766
17357TIP3    H273563   4.725   3.900  15.062 -0.8257 -1.5847 -1.1323
17358TIP3   OH273564   2.201   4.198  14.976 -0.1451  0.0132  0.6073
17358TIP3    H173565   2.244   4.134  15.033  1.6190  0.1557 -0.4846
17358TIP3    H273566   2.184   4.273  15.032  0.4089 -0.3197  1.2315
17359TIP3   OH273567   3.014   5.900   3.306 -0.2821 -0.8549  0.0482
17359TIP3    H173568   3.041   5.967   3.369  0.1224 -2.5060  1.7438
17359TIP3    H273569   3.060   5.923   3.225 -0.4587  1.0940  0.4457
17360TIP3   OH273570   0.200   3.758   4.789 -0.1914 -0.2643 -0.2371
17360TIP3    H173571   0.147   3.766   4.869  2.1267 -2.3180  1.6804
17360TIP3    H273572   0.188   3.841   4.744  0.4286  2.1798  3.6153
17361TIP3   OH273573   2.105   6.207  12.024  0.0828 -0.0057 -0.7768
17361TIP3    H173574   2.052   6.129  12.010 -0.0448  0.1625 -1.2773
17361TIP3    H273575   2.192   6.174  12.046 -0.6684 -0.3305  2.1706
17362TIP3   OH273576   0.779   0.077  14.992 -0.0691  0.5101 -0.2917
17362TIP3    H173577   0.815   0.090  14.905  3.1519 -0.4520  0.7553
17362TIP3    H273578   0.781  -0.018  15.005 -1.2808  0.5740  0.5360
17363TIP3   OH273579   6.787   2.839   2.484  0.9003  0.0340 -0.0740
17363TIP3    H173580   6.716   2.901   2.506 -0.4226 -0.7036 -1.9626
17363TIP3    H273581   6.815   2.803   2.568 -1.1586  0.1851  0.7325
17364TIP3   OH273582   2.524   5.423  17.001 -0.2606 -0.8013 -0.0020
17364TIP3    H173583   2.464   5.413  17.076 -0.1774  0.8018  0.3063
17364TIP3    H273584   2.610   5.436  17.040 -0.4020  1.3713 -0.2798
17365TIP3   OH273585   1.978   3.439   0.404  0.3253 -0.5580 -0.0835
17365TIP3    H173586   1.889   3.405   0.407  0.6596 -1.4366  0.5236
17365TIP3    H273587   1.968   3.534   0.396 -0.6551 -0.6449  0.0073
17366TIP3   OH273588   4.432   1.756   3.760 -0.2112 -0.4933 -0.6824
17366TIP3    H173589   4.392   1.688   3.814 -0.2692 -0.4580 -0.6801
17366TIP3    H273590   4.516   1.775   3.803  0.0086 -0.8768 -0.9359
17367TIP3   OH273591   6.390   5.930   4.624  0.0403  0.3999 -0.0323
17367TIP3    H173592   6.371   5.894   4.711 -1.1895  1.1967  0.0533
17367TIP3    H273593   6.453   6.000   4.641 -1.0842  1.3364  0.3896
17368TIP3   OH273594   5.370   3.939   3.009 -0.2121 -0.5910 -0.3111
17368TIP3    H173595   5.282   3.959   3.043  0.1681  0.5793  0.0360
17368TIP3    H273596   5.407   3.878   3.072 -0.1356  0.2825  0.5117
17369TIP3   OH273597   1.141   2.528   1.548 -0.6466 -0.3489 -0.5755
17369TIP3    H173598   1.100   2.588   1.611 -0.7678 -1.5492  0.5206
17369TIP3    H273599   1.234   2.534   1.567 -0.5732  0.1379 -1.0620
17370TIP3   OH273600   4.441   5.138   2.453  0.3135 -0.0993  0.5039
17370TIP3    H173601   4.400   5.220   2.427 -0.8224 -0.0451  2.2815
17370TIP3    H273602   4.469   5.098   2.371 -0.7762  1.1913 -0.5494
17371TIP3   OH273603   6.618   5.375  17.073 -0.6227 -0.0865 -0.0790
17371TIP3    H173604   6.699   5.414  17.105  0.3324 -2.5566  0.7561
17371TIP3    H273605   6.549   5.423  17.118  0.4984  0.1498  1.4951
17372TIP3   OH273606   5.494   0.736   5.250 -0.1399 -0.4721  0.3139
17372TIP3    H173607   5.511   0.736   5.344  1.4384  1.4338  0.0943
17372TIP3    H273608   5.433   0.808   5.236 -0.2564 -0.6558 -0.1432
17373TIP3   OH273609   0.663   0.765  15.734  0.2018  0.3720 -0.2024
17373TIP3    H173610   0.577   0.794  15.763 -0.3775 -0.3336 -1.1662
17373TIP3    H273611   0.706   0.844  15.702 -0.5039  0.5487 -0.7193
17374TIP3   OH273612   3.383   2.059   3.673  0.4431 -0.3112 -0.6156
17374TIP3    H173613   3.333   1.987   3.634 -0.7425  0.0977  0.0976
17374TIP3    H273614   3.351   2.064   3.763 -0.4484  1.9232 -0.9950
17375TIP3   OH273615   4.777   5.880  11.486  0.1456  0.1268 -0.5925
17375TIP3    H173616   4.785   5.975  11.495 -1.0247  0.2686 -0.9314
17375TIP3    H273617   4.868   5.849  11.481  0.5425  1.2132 -0.3879
17376TIP3   OH273618   1.677   0.054   3.666  0.4105 -0.5909  0.1742
17376TIP3    H173619   1.600   0.051   3.608  1.9879  0.5160 -2.1373
17376TIP3    H273620   1.641   0.078   3.751 -2.0507 -2.3346 -0.2338
17377TIP3   OH273621   4.550   2.768  14.085 -0.0782  0.0026 -0.6005
17377TIP3    H173622   4.469   2.753  14.035  0.0302 -1.0775 -0.4672
17377TIP3    H273623   4.539   2.715  14.164  0.9688 -0.5307 -0.8047
17378TIP3   OH273624   4.739   4.963   1.691  0.0946  0.3726  0.0192
17378TIP3    H173625   4.786   4.959   1.608  0.3757  0.3194  0.1768
17378TIP3    H273626   4.716   5.056   1.701  3.4210  1.2247  1.6704
17379TIP3   OH273627   1.851   3.056  12.729 -0.0179  0.2230  0.1037
17379TIP3    H173628   1.801   3.044  12.809 -0.3533 -1.3020 -0.2991
17379TIP3    H273629   1.786   3.085  12.664  0.2733  1.5643  0.3978
17380TIP3   OH273630   1.881   4.170   5.631  0.0522  0.0320  0.5933
17380TIP3    H173631   1.951   4.194   5.571 -0.0438 -0.0483  0.4482
17380TIP3    H273632   1.926   4.134   5.707  0.2098  1.0015  0.9694
17381TIP3   OH273633   2.419   4.169  13.583  0.1065  0.9938  0.3817
17381TIP3    H173634   2.464   4.149  13.665 -0.3133  0.9901  0.6198
17381TIP3    H273635   2.457   4.110  13.518  0.1659  0.7183  0.6664
17382TIP3   OH273636   6.616   4.467   5.187 -0.2560 -0.1667 -0.0599
17382TIP3    H173637   6.696   4.437   5.231  0.5230 -1.5806 -2.2389
17382TIP3    H273638   6.645   4.543   5.136 -0.2004 -0.8181 -1.0325
17383TIP3   OH273639   3.189   0.698   0.574  0.0719 -0.5120  0.2261
17383TIP3    H173640   3.249   0.626   0.595  0.2221 -0.3224  0.4521
17383TIP3    H273641   3.193   0.755   0.651 -0.2806 -0.4194  0.1749
17384TIP3   OH273642   5.166   2.712   4.774  0.3249  0.2436 -0.2247
17384TIP3    H173643   5.202   2.732   4.688  0.8625 -0.3577 -0.1465
17384TIP3    H273644   5.092   2.772   4.783 -0.4350 -0.4511 -1.5633
17385TIP3   OH273645   5.252   3.293   0.950 -0.3835  0.0667  0.6963
17385TIP3    H173646   5.213   3.308   0.865 -1.6740  1.6250  1.5152
17385TIP3    H273647   5.241   3.199   0.965 -0.5761 -0.1389 -0.6138
17386TIP3   OH273648   1.629   5.431  14.658  0.0601  0.2965  0.8653
17386TIP3    H173649   1.653   5.380  14.735 -0.5801  0.0133  0.8918
17386TIP3    H273650   1.691   5.404  14.591 -1.8752 -2.6679  0.0432
17387TIP3   OH273651   4.480   0.764  14.856 -0.3391 -0.3820  0.9664
17387TIP3    H173652   4.518   0.760  14.768 -0.0722  2.2372  0.9013
17387TIP3    H273653   4.386   0.751  14.842 -0.0384 -2.6341  0.6562
17388TIP3   OH273654   6.747   0.157   1.402 -0.5028  0.1665 -0.2984
17388TIP3    H173655   6.738   0.104   1.482  0.1358  1.8224  0.9351
17388TIP3    H273656   6.776   0.096   1.335 -0.1514 -1.1037  0.9740
17389TIP3   OH273657   1.935   3.381  10.953  0.5294 -0.0325 -0.3523
17389TIP3    H173658   1.919   3.461  10.904  0.9853  0.1940 -0.1406
17389TIP3    H273659   1.880   3.390  11.031 -1.5780 -1.1880 -1.6059
17390TIP3   OH273660   0.601   3.734  12.666 -0.2993 -0.0194  0.1963
17390TIP3    H173661   0.694   3.724  12.645 -0.1836 -0.0943  0.7374
17390TIP3    H273662   0.558   3.740  12.581  0.3656  1.6172 -0.0598
17391TIP3   OH273663   5.201   2.445  11.265 -0.6507 -0.2865  0.6237
17391TIP3    H173664   5.195   2.526  11.316 -2.0282  0.1206 -0.1472
17391TIP3    H273665   5.246   2.470  11.184 -1.5376 -0.1764  0.1628
17392TIP3   OH273666   2.864   3.175  10.294  0.1652  0.0868 -0.0034
17392TIP3    H173667   2.863   3.213  10.206 -0.5884 -0.3650 -0.1936
17392TIP3    H273668   2.951   3.137  10.303  0.5287  0.8457 -0.2445
17393TIP3   OH273669   2.807   3.141   2.980 -0.1205 -0.5888 -0.3171
17393TIP3    H173670   2.738   3.105   3.036 -0.3817  1.5057  0.8156
17393TIP3    H273671   2.881   3.154   3.039 -0.4000  1.6805 -0.3890
17394TIP3   OH273672   0.173   4.315  16.109 -0.1283 -0.0995 -0.2841
17394TIP3    H173673   0.086   4.279  16.095 -0.7679  1.5986 -0.8632
17394TIP3    H273674   0.232   4.247  16.076 -1.2449 -0.8353 -0.8533
17395TIP3   OH273675   6.417   4.260   4.471 -0.1857  0.4754  0.2738
17395TIP3    H173676   6.331   4.234   4.502  0.6369 -2.0937  0.5832
17395TIP3    H273677   6.476   4.240   4.544  1.1015 -1.0047 -1.0995
17396TIP3   OH273678   4.985   5.952   0.191 -0.1815 -0.2039  0.0030
17396TIP3    H173679   5.013   5.879   0.135 -3.7259 -0.6089 -1.4639
17396TIP3    H273680   4.963   6.022   0.130 -0.5832  0.7057  1.1635
17397TIP3   OH273681   5.261   6.426   2.054  0.0868  0.2606 -0.4908
17397TIP3    H173682   5.243   6.404   1.963  0.8228 -0.7349 -0.4169
17397TIP3    H273683   5.209   6.364   2.105 -0.0427  0.5778 -0.2269
17398TIP3   OH273684   6.076   2.954   2.755  0.0691 -0.4989 -0.6495
17398TIP3    H173685   6.034   2.899   2.822 -0.6333 -0.2729 -0.8994
17398TIP3    H273686   6.168   2.929   2.759 -0.0279 -0.7825  0.1259
17399TIP3   OH273687   5.417   4.839   2.275 -0.5893 -0.2039  0.4700
17399TIP3    H173688   5.479   4.788   2.223 -2.2466 -0.0843 -1.7606
17399TIP3    H273689   5.470   4.911   2.311  1.0147 -1.4070  0.6404
17400TIP3   OH273690   0.324   1.269   5.984 -0.0298 -0.0633 -0.3361
17400TIP3    H173691   0.320   1.260   6.079  2.8209  0.2875 -0.0695
17400TIP3    H273692   0.249   1.220   5.951 -0.7305 -0.7318  2.0582
17401TIP3   OH273693   5.082   0.931  12.679  0.4293 -0.4972  0.6331
17401TIP3    H173694   5.097   0.839  12.698 -1.0371 -0.8541  0.1661
17401TIP3    H273695   5.062   0.971  12.763  0.1443 -0.7920  0.7041
17402TIP3   OH273696   1.017   4.445   0.442 -0.0126 -0.3990 -0.1607
17402TIP3    H173697   0.968   4.381   0.390 -0.1318 -2.0051  1.8155
17402TIP3    H273698   1.045   4.510   0.378 -1.4069 -1.4723 -1.9841
17403TIP3   OH273699   5.189   5.230  12.144 -0.2218  0.0629 -0.3117
17403TIP3    H173700   5.154   5.207  12.230  0.5006 -1.5167 -0.3951
17403TIP3    H273701   5.283   5.244  12.160 -0.3084  1.0800 -0.6272
17404TIP3   OH273702   6.346   4.124  13.815  0.7647 -0.1210  0.7831
17404TIP3    H173703   6.363   4.193  13.880  0.6488  0.5344  0.1311
17404TIP3    H273704   6.411   4.139  13.746 -1.5771  1.7445 -1.2098
17405TIP3   OH273705   2.360   0.281  15.165  0.6698 -0.2859 -0.4093
17405TIP3    H173706   2.402   0.364  15.188 -0.3146  0.1892 -0.2794
17405TIP3    H273707   2.361   0.230  15.246  0.0488  0.1514 -0.1144
17406TIP3   OH273708   6.019   2.365   6.098  0.4590  0.1120  0.5702
17406TIP3    H173709   6.100   2.347   6.145  0.2330 -0.4734  0.7469
17406TIP3    H273710   5.950   2.356   6.165  0.1017 -1.0741  0.0779
17407TIP3   OH273711   0.440   5.382  13.014  0.0065  0.6993 -0.3651
17407TIP3    H173712   0.393   5.299  13.006  2.2731 -0.7545  0.6146
17407TIP3    H273713   0.380   5.438  13.063 -0.6674 -1.1710  1.0680
17408TIP3   OH273714   2.089   1.026   5.385  0.0997 -0.3024 -0.0757
17408TIP3    H173715   2.158   1.030   5.318 -0.8438 -0.4306 -1.0880
17408TIP3    H273716   2.086   0.934   5.411 -1.3302 -0.8060 -1.8465
17409TIP3   OH273717   0.486   5.305   0.905  0.2633  0.6186  0.2761
17409TIP3    H173718   0.487   5.396   0.877 -0.9209  1.0007  1.3520
17409TIP3    H273719   0.552   5.300   0.974  0.3092  0.6740  0.2362
17410TIP3   OH273720   2.628   1.487   5.991 -0.0016 -0.7605 -0.0727
17410TIP3    H173721   2.628   1.561   6.053  2.1549  0.7802 -1.7308
17410TIP3    H273722   2.650   1.411   6.045  1.5907  0.4793  1.1386
17411TIP3   OH273723   4.405   6.338   3.949 -0.6633  0.0095  0.1146
17411TIP3    H173724   4.417   6.362   4.041  1.4605  1.4256 -0.4726
17411TIP3    H273725   4.493   6.335   3.913 -1.4309 -0.8309 -1.8345
17412TIP3   OH273726   2.013   2.187  12.722 -0.4631 -0.3333 -0.2487
17412TIP3    H173727   2.106   2.204  12.735 -0.4436 -1.6936  1.6980
17412TIP3    H273728   1.976   2.182  12.810 -2.0854 -1.3415 -0.9376
17413TIP3   OH273729   1.401   4.833   3.273  0.0663  0.6714 -0.1390
17413TIP3    H173730   1.471   4.884   3.233 -0.2510  0.5657 -0.8566
17413TIP3    H273731   1.445   4.774   3.334  0.3540  2.5146  1.5179
17414TIP3   OH273732   6.467   4.098   4.245 -0.1516  0.1134  0.3571
17414TIP3    H173733   6.418   4.153   4.306 -1.1915  0.1994 -0.5025
17414TIP3    H273734   6.452   4.139   4.159  2.1096  0.5894  0.1340
17415TIP3   OH273735   1.370   1.825   6.380 -0.0781 -0.4374  0.3091
17415TIP3    H173736   1.282   1.788   6.374 -1.7153  3.1514  0.0721
17415TIP3    H273737   1.367   1.880   6.458  1.5724  0.7011 -0.3896
17416TIP3   OH273738   1.682   1.551   2.237  0.1778  1.1483 -0.0549
17416TIP3    H173739   1.605   1.506   2.272  0.4076  1.2405  0.5792
17416TIP3    H273740   1.754   1.489   2.248  0.3405  1.3569  0.0617
17417TIP3   OH273741   5.142   0.257  15.524  0.1772 -0.7196  0.2482
17417TIP3    H173742   5.148   0.279  15.617 -0.5607 -0.6190  0.2757
17417TIP3    H273743   5.073   0.313  15.490 -0.5667 -1.7854 -0.0383
17418TIP3   OH273744   2.637   3.577  14.363  0.6140  0.2791  0.1193
17418TIP3    H173745   2.657   3.507  14.425  1.2132 -1.0861 -1.5715
17418TIP3    H273746   2.636   3.656  14.417  3.1244 -0.5704  1.5560
17419TIP3   OH273747   3.704   2.795  12.102  0.1215 -0.5333 -0.4925
17419TIP3    H173748   3.652   2.715  12.103  0.2193 -0.5994  0.8533
17419TIP3    H273749   3.660   2.854  12.162  1.2768 -0.3855  0.2484
17420TIP3   OH273750   4.932   4.006  11.057  0.1278  0.3431 -0.6641
17420TIP3    H173751   4.987   4.038  11.129 -2.2258  1.0500  0.9958
17420TIP3    H273752   4.907   3.918  11.084 -0.8073  0.6309 -0.5237
17421TIP3   OH273753   3.526   2.250   1.653 -0.7125  0.2735  0.1655
17421TIP3    H173754   3.504   2.244   1.746 -0.1744 -0.4082  0.2576
17421TIP3    H273755   3.598   2.313   1.649 -0.6830  0.2425  0.2156
17422TIP3   OH273756   0.523   1.736  11.171 -0.3259  0.1104  0.1554
17422TIP3    H173757   0.460   1.793  11.215 -2.9354 -1.5622 -1.1468
17422TIP3    H273758   0.521   1.764  11.080  0.3800 -0.3484 -0.0058
17423TIP3   OH273759   3.956   2.318  15.166 -0.0181  0.2111 -0.6857
17423TIP3    H173760   4.050   2.306  15.154 -0.0452  0.6000 -1.2970
17423TIP3    H273761   3.918   2.235  15.136  0.2354 -0.6610  1.2597
17424TIP3   OH273762   0.709   3.919   0.544 -0.1541  0.0581 -0.3042
17424TIP3    H173763   0.690   4.001   0.499  2.6160  0.4099 -1.0149
17424TIP3    H273764   0.804   3.912   0.543 -0.0253 -1.1604  3.3687
17425TIP3   OH273765   2.479   2.822  15.926 -0.8470  0.0554 -0.0569
17425TIP3    H173766   2.453   2.742  15.879 -0.6458 -0.2847  0.3946
17425TIP3    H273767   2.512   2.790  16.010  0.9369  0.4534 -0.5604
17426TIP3   OH273768   3.078   6.426   0.555 -0.0669  0.8137 -0.8734
17426TIP3    H173769   3.107   6.451   0.467 -0.6534 -0.2525 -1.3829
17426TIP3    H273770   2.982   6.434   0.552 -0.2630 -1.1859 -0.9799
17427TIP3   OH273771   2.316   0.949   0.796  0.2805 -0.1820  0.1630
17427TIP3    H173772   2.357   0.983   0.716  0.1947 -1.1162 -0.2883
17427TIP3    H273773   2.340   0.856   0.798 -0.0248 -0.2516  1.0346
17428TIP3   OH273774   2.530   4.677  14.987  0.0587 -0.5401 -0.2020
17428TIP3    H173775   2.576   4.698  15.069  0.6213 -0.3468 -0.5576
17428TIP3    H273776   2.449   4.728  14.991  1.3972  1.8200 -1.0572
17429TIP3   OH273777   3.096   2.783  17.084  0.0688 -0.8298  0.2191
17429TIP3    H173778   3.017   2.766  17.134 -0.7536  1.0981 -0.3557
17429TIP3    H273779   3.161   2.807  17.150 -0.4539 -0.2433  0.5313
17430TIP3   OH273780   2.486   1.006   0.587  0.2424 -0.3348  0.7280
17430TIP3    H173781   2.581   1.017   0.580  0.3517 -1.9304 -1.0342
17430TIP3    H273782   2.452   1.041   0.505 -0.7451  0.3445  1.4018
17431TIP3   OH273783   3.053   4.685   0.061  0.9540 -0.0909  0.1490
17431TIP3    H173784   3.034   4.617   0.125 -1.4024  0.8570  0.5577
17431TIP3    H273785   3.080   4.638  -0.017  0.6597 -1.4250  0.8232
17432TIP3   OH273786   3.110   0.492  14.784  0.1373  0.0327  0.2665
17432TIP3    H173787   3.185   0.449  14.742  1.1374  0.6098  1.3876
17432TIP3    H273788   3.077   0.428  14.845  0.1744  0.0333  0.2871
17433TIP3   OH273789   2.059   2.074  15.957  0.0549 -0.1703  0.6280
17433TIP3    H173790   2.116   2.031  16.021  1.3543  1.3244  0.5368
17433TIP3    H273791   2.075   2.025  15.876 -0.5455 -1.1930  1.1049
17434TIP3   OH273792   6.092   4.514  13.273  0.2551  0.0903  0.1854
17434TIP3    H173793   6.046   4.593  13.301  2.2999  1.7419 -0.7929
17434TIP3    H273794   6.180   4.545  13.250  0.5299 -2.1050 -2.1990
17435TIP3   OH273795   2.125   6.169   0.913 -0.5495  0.1253  0.2629
17435TIP3    H173796   2.090   6.133   0.995  2.4473 -0.4842  1.4128
17435TIP3    H273797   2.179   6.099   0.877 -1.0869  0.7192 -1.8171
17436TIP3   OH273798   3.384   3.576  13.661  0.1357  0.1696 -0.3907
17436TIP3    H173799   3.324   3.502  13.667 -2.4827  2.0755 -1.0351
17436TIP3    H273800   3.359   3.620  13.580  2.1067  1.3366 -0.4164
17437TIP3   OH273801   5.019   3.759  12.585 -0.0100  0.5139  0.0067
17437TIP3    H173802   4.974   3.701  12.647  0.8585 -0.3503 -0.1486
17437TIP3    H273803   4.948   3.805  12.540 -0.7385 -0.6742 -0.0923
17438TIP3   OH273804   6.075   3.540   4.702 -0.2717 -0.4193  0.0754
17438TIP3    H173805   6.080   3.604   4.631  1.0158  0.3795  0.8507
17438TIP3    H273806   6.047   3.459   4.660  1.5081 -0.2467 -1.5618
17439TIP3   OH273807   6.481   3.738  16.376  0.4770  0.4332 -0.3222
17439TIP3    H173808   6.396   3.723  16.334 -0.9183  0.6177  2.2297
17439TIP3    H273809   6.471   3.822  16.420  1.5632 -0.1049  0.9992
17440TIP3   OH273810   2.592   5.623   0.143 -0.1106  0.3354 -0.3524
17440TIP3    H173811   2.622   5.580   0.062  0.4350  0.4329 -0.2010
17440TIP3    H273812   2.656   5.597   0.209 -0.3106  0.6195 -0.0459
17441TIP3   OH273813   5.516   3.885   0.152 -0.7366 -0.0458  0.3794
17441TIP3    H173814   5.515   3.922   0.241 -1.7222  0.1111  0.3038
17441TIP3    H273815   5.474   3.800   0.161  0.1900 -0.5312  0.2644
17442TIP3   OH273816   1.797   3.690  16.761 -0.4797  0.1173  0.0156
17442TIP3    H173817   1.776   3.664  16.851 -0.8885  0.5861  0.0610
17442TIP3    H273818   1.873   3.636  16.738 -0.4550 -0.1075  0.5912
17443TIP3   OH273819   2.062   0.861  13.093  0.3888 -0.1525  0.5343
17443TIP3    H173820   2.082   0.797  13.025 -0.8863 -0.8388  0.7657
17443TIP3    H273821   2.116   0.937  13.071  0.6135 -0.6582 -0.7712
17444TIP3   OH273822   3.202   4.427  14.141  0.1712  0.0292 -0.5077
17444TIP3    H173823   3.112   4.396  14.147  0.3845 -0.9296 -1.7967
17444TIP3    H273824   3.255   4.348  14.152  0.8469  0.5092 -0.2523
17445TIP3   OH273825   0.214   4.583  13.246  0.9487  0.5004  0.3773
17445TIP3    H173826   0.152   4.511  13.233 -0.9582  2.3967 -1.9389
17445TIP3    H273827   0.299   4.540  13.250 -0.2126 -1.9798  0.6177
17446TIP3   OH273828   2.497   1.279  13.617 -0.4616  0.0363 -0.4376
17446TIP3    H173829   2.430   1.332  13.573 -1.2324  0.2985  1.0017
17446TIP3    H273830   2.448   1.205  13.653  0.2683 -0.5204 -0.5656
17447TIP3   OH273831   0.476   4.740   2.902  0.4360  0.0481 -0.0447
17447TIP3    H173832   0.495   4.834   2.915 -0.2678  0.1752  0.1043
17447TIP3    H273833   0.449   4.734   2.810 -0.7014  0.2059  0.2634
17448TIP3   OH273834   6.058   4.497   6.334  0.5528 -0.0303 -0.5189
17448TIP3    H173835   6.084   4.410   6.365 -1.9795 -0.0187  2.1579
17448TIP3    H273836   6.074   4.555   6.409 -0.7970  1.1486 -1.0975
17449TIP3   OH273837   5.007   4.861  15.142 -0.7005 -0.3833 -0.2960
17449TIP3    H173838   5.066   4.793  15.176 -1.7818 -1.9942 -1.4602
17449TIP3    H273839   4.935   4.864  15.204 -0.3157  0.2102  0.1236
17450TIP3   OH273840   6.212   6.275   0.383  0.0657  0.2629 -0.4374
17450TIP3    H173841   6.297   6.311   0.407  0.3749  0.1925 -1.4062
17450TIP3    H273842   6.159   6.285   0.462  1.4755 -1.3194  0.7797
17451TIP3   OH273843   3.783   1.226   0.508 -0.4455 -0.5769 -0.0889
17451TIP3    H173844   3.766   1.159   0.443 -0.1698  2.2675 -3.3607
17451TIP3    H273845   3.862   1.271   0.477 -0.6873  1.3706  1.8246
17452TIP3   OH273846   3.817   3.799  13.173 -0.1648  0.2179  0.4019
17452TIP3    H173847   3.856   3.743  13.105 -0.6860  1.8525 -1.3403
17452TIP3    H273848   3.889   3.821  13.231  0.5331 -0.3588 -0.2259
17453TIP3   OH273849   1.605   1.134  13.578  0.3852  0.6623 -0.1494
17453TIP3    H173850   1.598   1.130  13.482  2.4794 -1.1330 -0.3058
17453TIP3    H273851   1.551   1.062  13.609 -0.9302  1.7211  0.1318
17454TIP3   OH273852   5.736   4.589   5.701 -0.6253  0.1880  0.4169
17454TIP3    H173853   5.760   4.633   5.782 -0.7099 -0.0338  0.5634
17454TIP3    H273854   5.645   4.561   5.715 -0.2315 -0.9727  0.7374
17455TIP3   OH273855   1.342   0.903   1.294  0.1843 -0.3768 -0.2507
17455TIP3    H173856   1.268   0.866   1.344  1.4036 -1.7110  0.6501
17455TIP3    H273857   1.411   0.914   1.358  1.2747 -0.5805 -1.3610
17456TIP3   OH273858   3.524   3.300  13.451 -0.5044 -0.2357  0.2541
17456TIP3    H173859   3.460   3.326  13.517 -0.4942  0.3029  0.0591
17456TIP3    H273860   3.563   3.383  13.422  0.6350 -0.5828  0.7380
17457TIP3   OH273861   0.654   3.420  14.003 -0.2287 -0.5149  0.1994
17457TIP3    H173862   0.624   3.400  14.092 -1.2355 -1.1517 -0.2731
17457TIP3    H273863   0.577   3.455  13.959  0.8167  2.0275  0.2215
17458TIP3   OH273864   0.464   5.390  11.924 -0.6937 -0.2285 -0.1692
17458TIP3    H173865   0.421   5.403  11.839  0.1696 -1.3671 -0.7972
17458TIP3    H273866   0.447   5.299  11.946 -1.4180  0.1995  1.2100
17459TIP3   OH273867   6.198   0.421   3.610 -0.4317 -0.5828  0.1440
17459TIP3    H173868   6.163   0.333   3.623 -0.8753 -0.6695 -1.5376
17459TIP3    H273869   6.280   0.408   3.563 -0.6189 -0.0844 -0.3327
17460TIP3   OH273870   2.187   1.867   0.924 -0.2056 -0.6472 -0.7032
17460TIP3    H173871   2.188   1.962   0.938 -0.2934 -0.7738  0.2081
17460TIP3    H273872   2.115   1.852   0.863 -0.4210 -0.1671 -0.5689
17461TIP3   OH273873   4.397   3.218  11.314 -0.0964  0.0273 -0.0422
17461TIP3    H173874   4.372   3.310  11.308  0.7961  0.2930  0.1998
17461TIP3    H273875   4.355   3.177  11.238 -1.5198  0.3754  0.5174
17462TIP3   OH273876   0.050   1.097  10.571 -0.0093  0.4849  0.1064
17462TIP3    H173877  -0.003   1.089  10.650 -1.9721  2.0155 -0.9516
17462TIP3    H273878   0.028   1.183  10.536  2.2621  0.6545 -1.1269
17463TIP3   OH273879   5.475   1.455  12.033  0.3441  0.3332  0.0945
17463TIP3    H173880   5.522   1.386  12.079 -0.3749  0.1434  0.5561
17463TIP3    H273881   5.527   1.471  11.954 -0.7941 -2.5425 -1.3701
17464TIP3   OH273882   3.222   4.514   1.930 -0.1839  0.0290  0.4358
17464TIP3    H173883   3.309   4.522   1.970 -0.0881  1.1295  0.0453
17464TIP3    H273884   3.162   4.541   2.000 -0.0390  1.5864  0.0072
17465TIP3   OH273885   4.221   5.615   1.213  0.4854  0.4205 -1.0272
17465TIP3    H173886   4.204   5.529   1.252  0.8431 -0.4802 -2.7404
17465TIP3    H273887   4.138   5.662   1.222 -0.0054 -0.4479 -0.8624
17466TIP3   OH273888   6.183   5.985  12.890 -0.0737 -0.1053  0.0279
17466TIP3    H173889   6.196   6.068  12.936 -0.5780 -0.2782  0.4894
17466TIP3    H273890   6.105   5.947  12.930  0.5047 -1.1018  0.2427
17467TIP3   OH273891   5.395   2.623  15.714  0.0660 -0.4824 -0.3816
17467TIP3    H173892   5.411   2.529  15.722  2.7456 -0.1126 -0.6033
17467TIP3    H273893   5.457   2.663  15.775 -0.5179  1.1662 -0.8320
17468TIP3   OH273894   1.692   1.983  10.724 -0.2678  0.3161 -0.0203
17468TIP3    H173895   1.686   1.997  10.630  0.5046 -0.0965 -0.1397
17468TIP3    H273896   1.653   1.896  10.737 -0.3584  0.3656  0.0403
17469TIP3   OH273897   0.851   2.315   3.972  0.2606  0.0046 -0.0683
17469TIP3    H173898   0.929   2.329   4.025 -0.4171  2.5877  0.3832
17469TIP3    H273899   0.786   2.279   4.033  1.1076 -2.5009 -0.5249
17470TIP3   OH273900   4.136   1.734  16.953  0.0742  0.3458 -0.0319
17470TIP3    H173901   4.102   1.757  17.039 -0.3534 -0.6609  0.0797
17470TIP3    H273902   4.082   1.785  16.892 -0.1763  0.4256  0.2538
17471TIP3   OH273903   3.565   4.040  12.747  0.0725  0.6609 -0.0846
17471TIP3    H173904   3.595   4.083  12.827  1.7680 -2.6831  1.2496
17471TIP3    H273905   3.614   4.082  12.676  0.8008  1.6355  0.9813
17472TIP3   OH273906   5.863   1.801   5.494 -0.1657 -0.3590 -0.0449
17472TIP3    H173907   5.939   1.820   5.549 -1.2768  2.4422  0.6775
17472TIP3    H273908   5.867   1.866   5.424 -2.2211  0.3101  0.3914
17473TIP3   OH273909   4.321   5.026  11.535 -0.4377  0.3371  0.2071
17473TIP3    H173910   4.352   5.046  11.446 -1.5170  0.2310 -0.2079
17473TIP3    H273911   4.230   5.053  11.535 -0.6492 -0.3339  1.0674
17474TIP3   OH273912   4.027   4.335   1.768  0.3948 -0.6641  0.3038
17474TIP3    H173913   3.934   4.356   1.761  0.3903  0.7927  3.2631
17474TIP3    H273914   4.030   4.261   1.829  1.1907  1.2306  2.7665
17475TIP3   OH273915   6.535   3.232   3.451 -0.2283 -0.0420 -0.3742
17475TIP3    H173916   6.618   3.254   3.410 -0.1518 -2.7901 -1.9083
17475TIP3    H273917   6.518   3.142   3.424 -3.7683  0.4439 -0.2049
17476TIP3   OH273918   2.640   0.913   0.164  0.2475 -0.2017  0.4380
17476TIP3    H173919   2.563   0.954   0.203  1.6542  0.8422  2.2588
17476TIP3    H273920   2.617   0.820   0.159 -1.7557  0.2869 -0.7429
17477TIP3   OH273921   0.687   5.391  12.534 -0.1376 -0.0838  0.2220
17477TIP3    H173922   0.611   5.339  12.508 -0.4346  0.2085  0.4983
17477TIP3    H273923   0.687   5.388  12.630  1.2308 -1.5645  0.2256
17478TIP3   OH273924   3.747   3.374  12.801 -0.1964  0.2322  0.7351
17478TIP3    H173925   3.699   3.441  12.751  1.2518  0.6713 -0.1308
17478TIP3    H273926   3.836   3.408  12.807 -0.0795 -0.3284  2.7464
17479TIP3   OH273927   2.519   3.170  14.327 -0.3916 -0.3145  0.2027
17479TIP3    H173928   2.501   3.078  14.347 -1.1573 -0.4544 -1.0195
17479TIP3    H273929   2.502   3.216  14.409 -2.8829 -0.9040  0.1018
17480TIP3   OH273930   0.695   2.575  10.491 -0.4115 -0.2094 -0.3865
17480TIP3    H173931   0.713   2.525  10.411 -0.5542 -0.1519 -0.4555
17480TIP3    H273932   0.758   2.542  10.555 -0.9991 -1.0051 -0.2134
17481TIP3   OH273933   1.190   6.527  14.227 -0.2178  0.0502  0.2230
17481TIP3    H173934   1.225   6.574  14.152 -0.2170 -1.6003 -0.8572
17481TIP3    H273935   1.220   6.436  14.215 -1.5258 -0.5695  1.3644
17482TIP3   OH273936   1.279   0.008   3.298 -0.6172 -0.5095 -0.2408
17482TIP3    H173937   1.236  -0.037   3.225  1.4297 -0.8645 -1.3341
17482TIP3    H273938   1.343  -0.056   3.330  0.0713  0.4485  0.3514
17483TIP3   OH273939   1.387   2.404   2.716  0.1154 -0.1692 -0.1012
17483TIP3    H173940   1.434   2.422   2.635  1.5184  0.9217  0.8886
17483TIP3    H273941   1.389   2.308   2.725  0.9814 -0.2229 -0.7633
17484TIP3   OH273942   3.703   4.924   1.919  0.7593  0.2010 -0.2062
17484TIP3    H173943   3.631   4.956   1.865 -1.5316 -3.9836 -0.0827
17484TIP3    H273944   3.775   4.910   1.857 -0.0841  0.2154 -1.2074
17485TIP3   OH273945   6.317   3.932   2.246 -0.4390 -0.1454  0.0192
17485TIP3    H173946   6.266   3.908   2.169  1.1171 -1.2479 -0.7278
17485TIP3    H273947   6.321   4.028   2.243 -0.2601 -0.1750 -1.3739
17486TIP3   OH273948   0.340   6.510  11.405  0.5033  0.6743  0.2410
17486TIP3    H173949   0.398   6.439  11.381 -1.3004 -0.2622 -1.6613
17486TIP3    H273950   0.370   6.538  11.491  2.2626 -1.3043  0.3389
17487TIP3   OH273951   1.085   6.137   2.477 -0.0927  0.6829 -0.0829
17487TIP3    H173952   1.094   6.054   2.523 -0.0678  1.7980  2.0545
17487TIP3    H273953   1.104   6.203   2.543  0.0405  2.4047 -1.7588
17488TIP3   OH273954   6.422   1.332   1.618  0.0824 -0.6559  0.0449
17488TIP3    H173955   6.515   1.353   1.610  0.0408 -0.0053  1.0214
17488TIP3    H273956   6.377   1.406   1.579 -0.0400  0.2285  1.7799
17489TIP3   OH273957   2.232   0.477  17.216 -0.5417 -0.2687  0.4205
17489TIP3    H173958   2.248   0.384  17.230  0.2289 -0.1875  0.1438
17489TIP3    H273959   2.184   0.506  17.294  2.6920 -0.0590  2.5043
17490TIP3   OH273960   5.580   3.629  11.593  0.5514 -0.8826 -0.1743
17490TIP3    H173961   5.644   3.633  11.521  0.2126  1.6797 -0.4390
17490TIP3    H273962   5.607   3.700  11.652 -1.3906 -0.4514  0.2620
17491TIP3   OH273963   2.462   1.464   4.393 -0.5032 -0.8600  0.1653
17491TIP3    H173964   2.488   1.544   4.437 -1.2810 -0.1862 -0.5595
17491TIP3    H273965   2.435   1.405   4.464 -0.4181 -0.2927  0.6746
17492TIP3   OH273966   3.129   3.519  15.586  0.2509  0.1831 -0.0734
17492TIP3    H173967   3.077   3.541  15.509 -0.1646 -0.2467  0.0785
17492TIP3    H273968   3.104   3.584  15.652  1.2775  1.1045 -0.5847
17493TIP3   OH273969   1.834   0.128  12.638  0.0558  0.2082  0.3375
17493TIP3    H173970   1.883   0.179  12.702 -0.5513  0.8182  0.3276
17493TIP3    H273971   1.762   0.089  12.687 -0.9290  1.3927 -0.1097
17494TIP3   OH273972   6.196   4.800   4.498 -0.2167 -0.2305  0.1135
17494TIP3    H173973   6.255   4.729   4.475 -0.1114  0.0258 -0.4129
17494TIP3    H273974   6.140   4.812   4.421 -0.9576 -0.4716  0.6061
17495TIP3   OH273975   0.232   4.374  16.608  0.1148 -0.1886 -0.2375
17495TIP3    H173976   0.192   4.432  16.673 -0.0738 -0.1196 -0.4142
17495TIP3    H273977   0.243   4.429  16.531  0.0599 -0.3529 -0.3620
17496TIP3   OH273978   3.592   2.676   3.200 -0.0640  0.3702  0.7491
17496TIP3    H173979   3.579   2.608   3.267  0.6830 -0.1815  0.3433
17496TIP3    H273980   3.503   2.700   3.173 -0.3509 -0.0645  1.2774
17497TIP3   OH273981   6.661   2.503   5.856 -0.1830  0.0496 -0.8873
17497TIP3    H173982   6.752   2.476   5.843  0.9398  2.2547  1.4816
17497TIP3    H273983   6.637   2.545   5.774  0.9407 -0.4864 -1.5269
17498TIP3   OH273984   0.916   2.634  16.960 -0.3622  0.2992 -0.3888
17498TIP3    H173985   0.966   2.568  17.007  0.2304  0.6363 -0.5462
17498TIP3    H273986   0.826   2.622  16.991  0.0055  0.4919  0.7951
17499TIP3   OH273987   2.030   3.500  15.089 -0.1963  0.3099 -0.1594
17499TIP3    H173988   1.976   3.577  15.069  0.1815  0.7330  0.4153
17499TIP3    H273989   2.112   3.515  15.044 -0.0756  0.3060  0.0566
17500TIP3   OH273990   6.757   4.335  10.117  0.2411 -0.5715  0.4622
17500TIP3    H173991   6.731   4.248  10.148 -2.5969 -0.1798 -0.4550
17500TIP3    H273992   6.707   4.396  10.171 -0.4964  0.3082 -1.1306
17501TIP3   OH273993   4.257   3.126  15.507 -0.2779  0.6208  0.1351
17501TIP3    H173994   4.307   3.154  15.584 -0.4646  1.3088  0.0112
17501TIP3    H273995   4.182   3.078  15.543  0.2089 -0.0052  0.3385
17502TIP3   OH273996   1.124   3.337   0.096  0.0743 -0.0388 -0.0930
17502TIP3    H173997   1.148   3.425   0.125  0.8570 -0.0215 -0.7484
17502TIP3    H273998   1.197   3.310   0.040 -0.4382 -0.8713 -0.3710
17503TIP3   OH273999   2.013   2.120   0.951 -0.0029 -0.5237  0.2872
17503TIP3    H174000   2.081   2.186   0.961  0.0194 -0.2509 -1.3566
17503TIP3    H274001   1.979   2.134   0.863 -2.8475 -0.0690  1.3707
17504TIP3   OH274002   0.071   2.762   3.945  0.0021  0.3638 -0.0324
17504TIP3    H174003   0.118   2.680   3.932  0.7116  0.6886  0.4346
17504TIP3    H274004   0.008   2.743   4.015 -1.2950 -0.3505 -1.3215
17505TIP3   OH274005   5.921   0.674  15.334 -0.5071  0.0122 -0.1529
17505TIP3    H174006   5.872   0.602  15.294  0.8181 -1.7135  1.1450
17505TIP3    H274007   6.003   0.679  15.284 -0.5475  0.5506 -0.1734
17506TIP3   OH274008   1.206   5.279  16.783 -0.1875 -0.2998 -0.0793
17506TIP3    H174009   1.153   5.345  16.738 -1.7402 -1.4478  0.0073
17506TIP3    H274010   1.231   5.321  16.866 -0.7238  0.3496 -0.2417
17507TIP3   OH274011   6.220   5.517   0.720  0.1774  0.0559  0.1231
17507TIP3    H174012   6.173   5.479   0.794  0.2666  1.7110  1.0919
17507TIP3    H274013   6.167   5.592   0.693 -0.1628 -0.8659 -1.9227
17508TIP3   OH274014   3.108   6.818   0.774 -0.4543 -0.0453  0.1102
17508TIP3    H174015   3.095   6.743   0.833 -1.4991  2.1380  2.8573
17508TIP3    H274016   3.203   6.829   0.770 -0.3431  0.7994  2.9571
17509TIP3   OH274017   3.548   3.075  13.279  0.3729  0.2084 -0.2499
17509TIP3    H174018   3.492   2.998  13.264  1.5278 -0.7184  0.0863
17509TIP3    H274019   3.512   3.115  13.359 -0.0539 -0.1356 -0.2643
17510TIP3   OH274020   4.474   5.601  15.108  0.1217  0.1119  0.2786
17510TIP3    H174021   4.383   5.580  15.088  0.0487  0.5752  0.1065
17510TIP3    H274022   4.472   5.693  15.136  0.6827  0.4980 -0.8750
17511TIP3   OH274023   6.358   1.816  15.910 -0.9174 -0.1615 -0.0259
17511TIP3    H174024   6.354   1.765  15.991 -0.9461  2.2786  1.6073
17511TIP3    H274025   6.450   1.843  15.903 -0.8188 -0.7195 -1.0809
17512TIP3   OH274026   0.426   4.853   4.474  0.3530  0.2200  0.5916
17512TIP3    H174027   0.505   4.833   4.424  1.2454  0.8487  1.7115
17512TIP3    H274028   0.411   4.775   4.527 -0.5059 -0.3856 -0.5047
17513TIP3   OH274029   2.776   6.153   3.564 -0.2543 -0.3615  0.2783
17513TIP3    H174030   2.684   6.169   3.586 -0.4876 -1.1437 -0.0959
17513TIP3    H274031   2.824   6.183   3.641 -0.6650  1.7418 -0.2224
17514TIP3   OH274032   0.285   3.511  12.533  0.1167  0.2005 -0.3502
17514TIP3    H174033   0.333   3.513  12.450  0.3732  0.8969 -0.1918
17514TIP3    H274034   0.324   3.582  12.584  0.1953 -0.4413  0.4971
17515TIP3   OH274035   0.660   0.890   1.635  0.5075  0.5513  0.1819
17515TIP3    H174036   0.594   0.958   1.646  1.4410  2.2083 -3.1816
17515TIP3    H274037   0.612   0.814   1.602 -0.3455 -0.1169  2.7255
17516TIP3   OH274038   1.701   0.163   5.192 -0.2492 -0.1344 -0.1467
17516TIP3    H174039   1.735   0.105   5.261  2.0922 -0.3610 -1.3800
17516TIP3    H274040   1.725   0.119   5.110 -0.6223  1.3975 -1.1226
17517TIP3   OH274041   1.808   5.119  13.200  0.0793  0.0571  0.9892
17517TIP3    H174042   1.727   5.068  13.197 -0.6493  1.2191  0.0877
17517TIP3    H274043   1.870   5.070  13.146 -0.3521 -0.2861  0.8069
17518TIP3   OH274044   1.126   0.123  12.363 -0.2979  0.6894 -0.5985
17518TIP3    H174045   1.213   0.112  12.402 -0.8085  0.5760  0.5482
17518TIP3    H274046   1.143   0.163  12.278  0.8379  1.2895 -0.1096
17519TIP3   OH274047   0.296   3.032  13.010  0.3485 -0.8621  0.1672
17519TIP3    H174048   0.319   2.939  13.005  2.2082 -0.4697  0.6622
17519TIP3    H274049   0.277   3.048  13.102 -0.9618 -0.9328 -0.0674
17520TIP3   OH274050   5.629   3.170   1.874 -0.0110  0.6580  0.2472
17520TIP3    H174051   5.542   3.173   1.915 -0.2505  0.0963 -0.2089
17520TIP3    H274052   5.672   3.094   1.913  0.6313  1.4624  1.1510
17521TIP3   OH274053   1.500   5.043   1.523 -0.5454  0.4551  0.4640
17521TIP3    H174054   1.489   4.951   1.547  2.7226 -0.3578 -0.6389
17521TIP3    H274055   1.554   5.080   1.593 -0.4762  1.0648  0.0981
17522TIP3   OH274056   0.986   0.077  16.569 -0.0265 -0.4999  0.8960
17522TIP3    H174057   0.951  -0.001  16.527  1.2619 -0.4900 -0.2666
17522TIP3    H274058   0.921   0.146  16.552  0.4465 -0.4973 -1.1177
17523TIP3   OH274059   1.446   0.481  13.843 -1.0694 -0.1619  0.1926
17523TIP3    H174060   1.415   0.477  13.752 -0.3696  0.2770 -0.0787
17523TIP3    H274061   1.486   0.396  13.859 -0.7859 -0.0789 -0.0671
17524TIP3   OH274062   3.233   4.786   2.290  0.3523 -0.1666 -0.0398
17524TIP3    H174063   3.168   4.849   2.260  0.2220 -0.8860 -1.3412
17524TIP3    H274064   3.315   4.834   2.291 -0.2069  0.9024  2.1078
17525TIP3   OH274065   6.002   5.147   0.232  0.2979 -0.4927 -0.5605
17525TIP3    H174066   6.077   5.196   0.198  0.9082  0.6249  2.1224
17525TIP3    H274067   6.018   5.141   0.326 -2.7008 -0.7033  0.0380
17526TIP3   OH274068   3.512   0.362  13.722 -0.1583 -0.3584  0.6989
17526TIP3    H174069   3.562   0.335  13.799  2.6682  0.9203 -0.5348
17526TIP3    H274070   3.543   0.451  13.704  0.1063 -0.9875 -2.4967
17527TIP3   OH274071   4.931   1.302   1.338  0.6938 -0.1547  0.3954
17527TIP3    H174072   5.019   1.315   1.373 -0.1476 -0.8299  2.9743
17527TIP3    H274073   4.939   1.223   1.284  1.7500 -0.0021  0.3110
17528TIP3   OH274074   0.653   5.558  15.504 -0.2420  0.1957 -0.2497
17528TIP3    H174075   0.574   5.520  15.465 -1.4930 -1.3281  3.2907
17528TIP3    H274076   0.712   5.483  15.516 -0.6272  0.1746  2.1258
17529TIP3   OH274077   2.595   3.955  16.970 -0.1690  0.2786  0.7713
17529TIP3    H174078   2.677   3.921  16.934  1.3148  2.3236  2.0377
17529TIP3    H274079   2.561   4.013  16.901 -0.4270 -0.3537  0.3581
17530TIP3   OH274080   0.854   1.634   2.398 -0.5603 -0.0039 -0.7004
17530TIP3    H174081   0.893   1.721   2.411  0.9314 -0.7245 -0.1384
17530TIP3    H274082   0.923   1.583   2.356 -0.8929 -1.3182  0.2819
17531TIP3   OH274083   6.102   5.068  12.171  0.1048 -0.1947 -0.6141
17531TIP3    H174084   6.181   5.063  12.118  0.5771  1.2608 -0.1005
17531TIP3    H274085   6.068   5.157  12.156 -1.1125 -0.5904 -0.3810
17532TIP3   OH274086   0.799   0.943  11.027 -0.2623 -0.3928 -0.0903
17532TIP3    H174087   0.893   0.927  11.033  0.1742  2.1393  1.3140
17532TIP3    H274088   0.788   0.995  10.948 -0.0072  1.6250  1.1241
17533TIP3   OH274089   6.680   4.883  13.491  0.1576 -1.0980 -0.6593
17533TIP3    H174090   6.592   4.861  13.462 -0.1861 -1.0801  0.3312
17533TIP3    H274091   6.702   4.962  13.442 -0.3723 -1.1089 -0.9220
17534TIP3   OH274092   3.799   5.364   3.453  0.0587  0.1472 -0.0896
17534TIP3    H174093   3.866   5.296   3.458 -0.3768 -0.4786 -1.8497
17534TIP3    H274094   3.830   5.433   3.512  1.3810 -0.8307  0.4174
17535TIP3   OH274095   5.188   4.974   5.338 -0.5953 -0.0606  0.5970
17535TIP3    H174096   5.156   4.899   5.388 -2.0832 -0.2519 -0.5950
17535TIP3    H274097   5.252   4.937   5.277 -0.7555 -0.2309  0.5340
17536TIP3   OH274098   4.045   2.419   1.604  0.9187  0.0877  0.2368
17536TIP3    H174099   4.085   2.467   1.532 -0.0279  1.9224  0.8708
17536TIP3    H274100   4.050   2.480   1.679 -2.3700  0.1940  0.5196
17537TIP3   OH274101   1.392   2.525   3.510  0.1168 -0.2457  0.2611
17537TIP3    H174102   1.362   2.615   3.522 -0.1640 -0.4161  0.9135
17537TIP3    H274103   1.464   2.515   3.572  1.9579  0.3240 -1.6796
17538TIP3   OH274104   2.465   3.600  14.148  0.1949  0.0678 -0.1920
17538TIP3    H174105   2.524   3.571  14.218 -1.1725 -0.0293  0.9819
17538TIP3    H274106   2.431   3.519  14.110 -0.5317  0.0983  0.3598
17539TIP3   OH274107   6.254   4.504   1.873  0.5331 -0.2914  0.0249
17539TIP3    H174108   6.201   4.477   1.949  0.5934 -0.1311  0.1237
17539TIP3    H274109   6.268   4.598   1.886  2.5195 -0.6828  1.0382
17540TIP3   OH274110   1.034   6.297   1.530  0.0555  0.4580  0.8614
17540TIP3    H174111   0.997   6.213   1.502  1.5387  0.6223 -1.9938
17540TIP3    H274112   0.972   6.363   1.499  1.3335  0.5956 -1.6798
17541TIP3   OH274113   1.527   1.460   2.455 -0.2826 -0.3497 -0.1149
17541TIP3    H174114   1.505   1.535   2.510  0.4191  0.1016 -0.4380
17541TIP3    H274115   1.600   1.418   2.500 -2.6310 -2.7536  1.7870
17542TIP3   OH274116   4.728   3.364   3.827 -0.3492  0.4272 -0.0560
17542TIP3    H174117   4.753   3.457   3.832 -0.4233  0.5144 -0.9884
17542TIP3    H274118   4.692   3.344   3.913  2.9607  0.2702  1.4377
17543TIP3   OH274119   0.145   0.561  16.498 -0.2081  0.2450 -0.3903
17543TIP3    H174120   0.218   0.622  16.489  0.0615  0.7980  3.8327
17543TIP3    H274121   0.179   0.479  16.461  2.0145  0.8626  0.1246
17544TIP3   OH274122   3.176   4.604   5.328  0.1761 -0.1279  0.2591
17544TIP3    H174123   3.142   4.515   5.325 -1.2774  0.3333  1.9391
17544TIP3    H274124   3.151   4.643   5.244  0.6411 -1.2139 -0.3954
17545TIP3   OH274125   2.755   6.744  13.125 -0.8102 -0.2197  0.2102
17545TIP3    H174126   2.725   6.782  13.042 -1.1438  1.3517  1.0041
17545TIP3    H274127   2.843   6.711  13.107 -1.0356 -0.2443 -0.8669
17546TIP3   OH274128   0.616   2.886   0.579 -0.3507 -0.1615 -0.8090
17546TIP3    H174129   0.665   2.932   0.647 -0.1524 -1.1588 -0.2548
17546TIP3    H274130   0.529   2.926   0.581 -0.8232 -1.1391  1.1011
17547TIP3   OH274131   3.861   6.546  16.919 -0.3532 -0.2275  0.6769
17547TIP3    H174132   3.941   6.519  16.965  0.4923  2.2142  0.8066
17547TIP3    H274133   3.802   6.576  16.988 -0.4179  0.2395  0.4273
17548TIP3   OH274134   1.947   6.446   4.422  0.2109  0.3633  0.0428
17548TIP3    H174135   1.859   6.458   4.457  0.5955  1.6567  0.6110
17548TIP3    H274136   1.956   6.513   4.354  1.3400  1.4048  1.1744
17549TIP3   OH274137   5.464   6.370   0.752  0.3198 -0.3273  0.4557
17549TIP3    H174138   5.471   6.281   0.715  0.2533 -0.1696  0.0562
17549TIP3    H274139   5.481   6.428   0.677 -0.2228  0.0058  0.5880
17550TIP3   OH274140   1.550   1.986  11.824 -0.5163 -0.2636 -0.1670
17550TIP3    H174141   1.626   2.003  11.769  0.8273 -1.2605  1.3090
17550TIP3    H274142   1.504   1.915  11.779 -0.0671 -0.2951 -0.5832
17551TIP3   OH274143   1.455   3.907  13.134 -0.0957 -0.3012  0.0155
17551TIP3    H174144   1.428   3.847  13.064 -0.1002  0.2975 -0.4978
17551TIP3    H274145   1.551   3.905  13.131 -0.0738  1.2337 -1.3325
17552TIP3   OH274146   1.443   3.271  16.646 -0.1561  0.3041 -0.0179
17552TIP3    H174147   1.407   3.359  16.652  0.2762  0.6178 -1.4932
17552TIP3    H274148   1.538   3.284  16.646 -0.0792  0.0066 -1.6817
17553TIP3   OH274149   3.352   6.776  14.804 -0.0781  0.0296  0.4082
17553TIP3    H174150   3.436   6.803  14.765  0.6374 -2.0935  0.3617
17553TIP3    H274151   3.324   6.701  14.751 -1.3617 -0.0871  1.2218
17554TIP3   OH274152   2.999   6.141  11.486 -0.0827  0.0869 -0.0244
17554TIP3    H174153   3.009   6.073  11.552  0.7076  1.0707  0.9078
17554TIP3    H274154   3.039   6.104  11.407  1.2401 -0.1668  0.7389
17555TIP3   OH274155   1.719   2.219  11.322 -0.0228  0.6010  0.0761
17555TIP3    H174156   1.628   2.199  11.345  0.1658  2.0975  2.4606
17555TIP3    H274157   1.712   2.275  11.244 -1.3281  2.2218  1.2777
17556TIP3   OH274158   2.491   0.846  15.456 -0.1150 -0.2104  0.5987
17556TIP3    H174159   2.474   0.920  15.515  0.0696 -0.8085  1.4262
17556TIP3    H274160   2.411   0.838  15.404 -0.4110  0.1196  0.9928
17557TIP3   OH274161   2.142   4.006   4.651 -0.7646  0.1121  0.3006
17557TIP3    H174162   2.071   4.068   4.637 -1.1913 -0.2906  0.6225
17557TIP3    H274163   2.109   3.947   4.719 -0.2163 -0.2263  0.2804
17558TIP3   OH274164   2.778   5.414   3.844  0.8646 -0.2350  0.2063
17558TIP3    H174165   2.709   5.478   3.864 -0.7400 -1.9220  0.3187
17558TIP3    H274166   2.859   5.458   3.869 -0.2059  1.5900  0.6690
17559TIP3   OH274167   4.842   2.143  11.610  0.0194  0.6275 -0.6744
17559TIP3    H174168   4.836   2.048  11.601  1.1391  0.7176 -3.7661
17559TIP3    H274169   4.765   2.177  11.563 -0.9651  1.3050  1.3164
17560TIP3   OH274170   4.293   4.564   2.447  0.2976 -0.4788  0.2345
17560TIP3    H174171   4.377   4.607   2.435 -0.0054 -0.3226 -1.7200
17560TIP3    H274172   4.229   4.627   2.414 -0.6224 -0.5255  1.8457
17561TIP3   OH274173   5.822   0.451   2.830 -0.4175 -0.3410  0.7054
17561TIP3    H174174   5.734   0.426   2.857 -0.3815 -0.7688  0.4445
17561TIP3    H274175   5.810   0.497   2.747 -0.6211  1.8570  1.8906
17562TIP3   OH274176   4.835   3.475   1.628  0.7149  0.0042 -0.1260
17562TIP3    H174177   4.770   3.544   1.640  0.8888  0.0401  0.6777
17562TIP3    H274178   4.801   3.401   1.678  0.5373 -0.5002 -0.9706
17563TIP3   OH274179   4.972   4.956  16.114  0.3281 -0.1703 -1.0511
17563TIP3    H174180   4.952   5.045  16.086 -1.3036 -1.2175 -3.4757
17563TIP3    H274181   4.890   4.922  16.149  0.6398 -1.0935 -1.1827
17564TIP3   OH274182   4.106   5.595  16.633  0.9714  0.2301  0.3922
17564TIP3    H174183   4.093   5.574  16.540  1.7691 -1.3480  0.5917
17564TIP3    H274184   4.191   5.640  16.635  1.1154 -0.0369  0.3821
17565TIP3   OH274185   6.735   1.173  16.957  0.1300 -0.0865  0.3867
17565TIP3    H174186   6.798   1.102  16.947 -0.2501 -0.3262 -0.3256
17565TIP3    H274187   6.764   1.219  17.036  1.1404 -0.2510  0.1289
17566TIP3   OH274188   2.282   0.886  11.152 -0.2418 -0.2624  0.2648
17566TIP3    H174189   2.279   0.790  11.149 -3.3110 -0.2711  0.8709
17566TIP3    H274190   2.191   0.913  11.152  0.4835  2.8217 -2.4291
17567TIP3   OH274191   2.855   4.470   4.666 -0.3928  0.3705  0.2079
17567TIP3    H174192   2.911   4.399   4.636 -0.9538  0.6034 -1.5141
17567TIP3    H274193   2.789   4.426   4.720  0.0013 -0.2516  0.1962
17568TIP3   OH274194   1.133   6.169  15.545 -0.4199 -0.5211  0.1102
17568TIP3    H174195   1.052   6.123  15.564  0.1234 -1.4889  0.1463
17568TIP3    H274196   1.202   6.115  15.585  0.6358 -1.8449 -3.2207
17569TIP3   OH274197   4.971   1.367  10.601 -0.5422  0.3880  0.0721
17569TIP3    H174198   4.942   1.451  10.636  0.0108 -0.8466  3.9634
17569TIP3    H274199   5.059   1.355  10.638 -1.1677 -2.4828  0.8300
17570TIP3   OH274200   2.380   5.232  14.835  0.1049 -0.3204 -0.0345
17570TIP3    H174201   2.347   5.184  14.912 -1.8920  0.9950  0.0043
17570TIP3    H274202   2.453   5.284  14.869  0.8540 -1.6110  0.3963
17571TIP3   OH274203   6.259   1.543   1.162 -0.1948 -0.3064  0.1313
17571TIP3    H174204   6.291   1.633   1.170 -1.5989  0.1686  0.7056
17571TIP3    H274205   6.335   1.489   1.184  1.3737  0.6251 -2.5638
17572TIP3   OH274206   1.000   3.670  12.904  0.0824  0.5362  0.3331
17572TIP3    H174207   0.907   3.651  12.899  0.3252 -0.7728  0.4001
17572TIP3    H274208   1.008   3.761  12.875 -0.9967  0.0849 -1.5453
17573TIP3   OH274209   2.185   5.109  16.476  0.3704  0.6721 -0.4916
17573TIP3    H174210   2.216   5.190  16.436  0.1616  0.8422 -0.3058
17573TIP3    H274211   2.133   5.067  16.408  0.5235  0.6661 -0.6072
17574TIP3   OH274212   5.797   1.102  13.276 -0.2977 -0.2634  0.0783
17574TIP3    H174213   5.791   1.186  13.230  0.2522  0.3284  1.0359
17574TIP3    H274214   5.858   1.050  13.224 -0.2346  0.1352 -0.2514
17575TIP3   OH274215   0.567   6.608   0.115  0.3378  0.1792 -0.1265
17575TIP3    H174216   0.509   6.684   0.110  0.5579  0.3019 -1.2666
17575TIP3    H274217   0.509   6.535   0.137 -0.1089  0.4589 -0.3515
17576TIP3   OH274218   3.375   6.466   3.002 -0.5815  0.4412 -0.1837
17576TIP3    H174219   3.429   6.411   2.945  0.1974  0.2287  0.7365
17576TIP3    H274220   3.291   6.420   3.005 -1.2449  1.3596 -2.5227
17577TIP3   OH274221   5.204   2.759  16.077  0.0570  0.0171  0.4253
17577TIP3    H174222   5.146   2.753  16.153 -0.7698 -0.4578 -0.2169
17577TIP3    H274223   5.292   2.746  16.112 -0.3508 -0.6235  1.2501
17578TIP3   OH274224   4.993   4.401  12.797  0.4168  0.2439 -0.3910
17578TIP3    H174225   4.961   4.316  12.767 -0.1994  0.4104 -0.2200
17578TIP3    H274226   5.029   4.442  12.719 -0.3033  0.2803 -0.7041
17579TIP3   OH274227   1.846   0.199   2.521 -0.2988 -0.0433 -0.3003
17579TIP3    H174228   1.853   0.236   2.609 -0.1874 -0.1045 -0.2831
17579TIP3    H274229   1.827   0.275   2.465 -3.7663 -0.3957  0.1923
17580TIP3   OH274230   0.736   2.795   5.320 -0.1444  0.1326 -0.1054
17580TIP3    H174231   0.821   2.757   5.343 -0.1486  0.3685  0.3161
17580TIP3    H274232   0.744   2.887   5.345 -0.3720  0.2509 -0.4717
17581TIP3   OH274233   3.999   0.921  12.085  0.3234  0.1375 -0.7615
17581TIP3    H174234   3.960   1.000  12.048 -1.3832 -0.4744 -0.3696
17581TIP3    H274235   3.929   0.856  12.081  0.2443 -0.1870  2.7611
17582TIP3   OH274236   0.282   2.948  10.818  0.1238 -0.1227  0.0264
17582TIP3    H174237   0.191   2.921  10.801  0.5085 -1.4562 -0.0223
17582TIP3    H274238   0.274   3.035  10.856 -1.2904 -0.8946  1.6527
17583TIP3   OH274239   3.466   5.478   2.336  0.4514 -0.0652 -0.6355
17583TIP3    H174240   3.505   5.498   2.421 -1.9084  1.6391  0.1668
17583TIP3    H274241   3.380   5.441   2.358  0.0707 -0.2295 -2.2851
17584TIP3   OH274242   1.467   2.939  13.105 -0.3444  0.4924  0.5008
17584TIP3    H174243   1.432   3.008  13.161 -0.7166  0.9297 -0.2503
17584TIP3    H274244   1.533   2.895  13.158 -1.9936 -0.3524  1.9820
17585TIP3   OH274245   0.985   3.915  16.947  0.0493  0.9582 -0.0778
17585TIP3    H174246   1.057   3.874  16.995  1.5917 -0.5865 -3.3182
17585TIP3    H274247   1.023   3.996  16.911 -0.9000  1.8286  0.8213
17586TIP3   OH274248   4.052   0.588  16.317 -0.1672  0.1885  0.8836
17586TIP3    H174249   4.033   0.657  16.254  0.8442  1.4637  1.9294
17586TIP3    H274250   4.003   0.613  16.395 -0.9136 -1.0480  0.8371
17587TIP3   OH274251   0.849   6.572  14.615 -0.1211 -0.1175  0.0615
17587TIP3    H174252   0.856   6.480  14.640 -0.0313 -0.1283 -0.0038
17587TIP3    H274253   0.932   6.591  14.571  0.6898  0.5026  1.7599
17588TIP3   OH274254   1.059   3.494   0.968  0.0706 -0.0560  0.1871
17588TIP3    H174255   1.015   3.570   0.930 -1.0832 -0.5997  0.3797
17588TIP3    H274256   1.010   3.476   1.049 -0.7211 -1.9573 -0.6587
17589TIP3   OH274257   6.451   0.209   5.783 -0.4057 -0.0824 -0.6342
17589TIP3    H174258   6.495   0.282   5.826 -1.5300  1.0438 -1.3047
17589TIP3    H274259   6.476   0.132   5.834  0.7901  0.7626  0.1155
17590TIP3   OH274260   6.763   2.682   0.491  0.7911 -0.7629 -0.1820
17590TIP3    H174261   6.843   2.670   0.440  1.3997 -0.7189  0.7558
17590TIP3    H274262   6.701   2.722   0.429  1.7253 -0.1041 -0.7064
17591TIP3   OH274263   2.401   6.417  16.975 -0.5388  0.5087  0.3331
17591TIP3    H174264   2.483   6.465  16.964 -1.4987  1.7518 -2.2508
17591TIP3    H274265   2.373   6.437  17.064  1.5867  0.5614  1.0668
17592TIP3   OH274266   2.304   4.940   1.128 -0.1272 -0.0271  0.7946
17592TIP3    H174267   2.214   4.969   1.146  0.1489  1.2986  0.1337
17592TIP3    H274268   2.358   4.991   1.187  0.3126  0.2962  0.1271
17593TIP3   OH274269   4.165   4.141  16.290 -0.1319  0.5840 -0.0873
17593TIP3    H174270   4.242   4.164  16.342 -0.3275  0.7661  0.1214
17593TIP3    H274271   4.091   4.154  16.349 -0.3567  0.8023 -0.4129
17594TIP3   OH274272   1.556   1.613   4.355 -0.6984  0.0803  0.2202
17594TIP3    H174273   1.570   1.540   4.414  0.5812 -0.3798 -0.6004
17594TIP3    H274274   1.471   1.649   4.380 -0.6838 -0.7719  1.5905
17595TIP3   OH274275   5.640   2.669   3.283 -0.3526 -0.1499 -0.6038
17595TIP3    H174276   5.720   2.711   3.313 -0.0093 -1.2229  0.0587
17595TIP3    H274277   5.650   2.663   3.188 -0.0046  0.4171 -0.6074
17596TIP3   OH274278   3.681   0.503   1.425  0.3786 -0.0205  0.3594
17596TIP3    H174279   3.632   0.513   1.507 -0.8322  0.2219 -0.3633
17596TIP3    H274280   3.772   0.521   1.449  0.2923 -1.4101  1.9499
17597TIP3   OH274281   6.560   2.400   0.417  0.3354  0.6861 -0.1861
17597TIP3    H174282   6.479   2.436   0.455  1.1143  1.3027  0.9327
17597TIP3    H274283   6.618   2.476   0.411  1.4580 -0.0854  0.7175
17598TIP3   OH274284   0.684   6.136  14.014 -0.4259 -0.4233 -0.0632
17598TIP3    H174285   0.746   6.069  14.044 -0.4862  0.4354  2.1842
17598TIP3    H274286   0.671   6.192  14.090 -1.4682  1.3371 -1.4602
17599TIP3   OH274287   1.148   1.061  13.895 -0.1276  0.4843  0.5113
17599TIP3    H174288   1.145   1.032  13.804  0.3425 -0.6800  0.8512
17599TIP3    H274289   1.185   0.987  13.943 -1.4080  0.6392  1.8182
17600TIP3   OH274290   5.151   0.551  14.092 -0.6798  0.5750  0.4562
17600TIP3    H174291   5.063   0.517  14.080 -1.4256  2.2201  0.9473
17600TIP3    H274292   5.206   0.474  14.104 -1.7230 -0.5916 -1.7045
17601TIP3   OH274293   2.012   6.665   2.963  0.1898 -0.1087 -0.1480
17601TIP3    H174294   1.928   6.686   2.923  0.5824  0.5679 -0.6432
17601TIP3    H274295   2.017   6.570   2.960 -0.5050 -0.1472 -0.2221
17602TIP3   OH274296   3.220   0.352   2.909 -0.4819  0.6349  0.2864
17602TIP3    H174297   3.167   0.349   2.989 -0.1184 -0.0220  0.5125
17602TIP3    H274298   3.156   0.344   2.838 -0.7031 -0.0285  0.5519
17603TIP3   OH274299   4.698   3.676   5.646  0.0134 -0.5128  0.0958
17603TIP3    H174300   4.623   3.736   5.638  0.4574  0.1808  0.9750
17603TIP3    H274301   4.719   3.677   5.739  0.3206 -1.6971  0.0494
17604TIP3   OH274302   0.001   0.367  16.254 -0.2089  0.0599 -0.0004
17604TIP3    H174303   0.063   0.377  16.326 -2.1808 -0.1681  1.8177
17604TIP3    H274304   0.033   0.426  16.186  1.6545  0.3812  1.1006
17605TIP3   OH274305   4.446   3.723  14.225  0.3232 -0.4246 -0.1466
17605TIP3    H174306   4.424   3.654  14.162  1.6451 -1.2901  0.2768
17605TIP3    H274307   4.446   3.678  14.310  2.4402 -0.2522  0.0017
17606TIP3   OH274308   1.533   1.684   3.699 -0.5088 -0.1563 -0.0985
17606TIP3    H174309   1.505   1.603   3.742  2.0599 -1.3216 -0.3973
17606TIP3    H274310   1.503   1.674   3.609 -0.6513 -0.5369 -0.0128
17607TIP3   OH274311   3.907   3.648  12.921 -0.1110  0.1886  0.4711
17607TIP3    H174312   3.949   3.563  12.907  0.5538  0.9513 -3.0132
17607TIP3    H274313   3.973   3.712  12.894 -1.9782  1.6083 -0.9857
17608TIP3   OH274314   0.406   2.985   3.924 -0.1239 -0.2265  0.0194
17608TIP3    H174315   0.380   2.894   3.935 -0.7655 -0.0936 -0.3543
17608TIP3    H274316   0.489   2.993   3.971  0.0133 -1.0429 -0.0802
17609TIP3   OH274317   5.038   6.772  13.279 -0.3312  0.0338  0.1094
17609TIP3    H174318   5.079   6.727  13.206 -1.9319  0.1842 -0.9512
17609TIP3    H274319   5.090   6.851  13.291 -0.7053  0.6143 -1.7135
17610TIP3   OH274320   5.230   1.457  15.158  0.3017 -0.4836 -0.3216
17610TIP3    H174321   5.302   1.517  15.176 -0.9245  0.7640  0.6180
17610TIP3    H274322   5.194   1.485  15.074  0.9695 -1.1925 -0.8573
17611TIP3   OH274323   1.550   2.596  14.934 -0.2054  0.5219  0.1024
17611TIP3    H174324   1.534   2.509  14.970 -1.8279  0.5599 -0.4649
17611TIP3    H274325   1.641   2.616  14.958  0.5052 -1.6981 -0.5097
17612TIP3   OH274326   4.636   6.154  12.038  0.5344  0.1124  0.1509
17612TIP3    H174327   4.586   6.077  12.010  0.9486 -0.4255  0.8329
17612TIP3    H274328   4.642   6.145  12.133  1.5268  0.3990  0.1313
17613TIP3   OH274329   6.629   2.099   0.868  0.0657 -0.2095 -0.0148
17613TIP3    H174330   6.641   2.189   0.840 -0.8178  0.0017  0.2387
17613TIP3    H274331   6.561   2.064   0.810  1.8437 -1.3856 -1.4901
17614TIP3   OH274332   3.902   1.078  11.474 -0.0654  0.8438 -0.0135
17614TIP3    H174333   3.820   1.070  11.426 -0.2694  0.5995  0.3737
17614TIP3    H274334   3.943   1.156  11.437  0.2669  0.0880 -1.3075
17615TIP3   OH274335   3.646   3.066  15.436  0.5276 -0.5570 -0.3722
17615TIP3    H174336   3.706   3.092  15.506  1.2658 -1.5030 -0.6290
17615TIP3    H274337   3.634   2.972  15.448 -2.1409 -0.1668  0.5901
17616TIP3   OH274338   3.443   4.863   5.686 -0.3377  0.1161  0.0974
17616TIP3    H174339   3.483   4.834   5.604 -0.7977 -1.3328  0.3503
17616TIP3    H274340   3.400   4.945   5.664  2.5389  1.6481 -0.2254
17617TIP3   OH274341   4.935   1.913   1.006 -0.5360  0.2051  0.5864
17617TIP3    H174342   4.946   1.989   1.063 -0.3402  0.5421  0.1123
17617TIP3    H274343   5.018   1.867   1.010 -1.1554 -0.8590  2.0842
17618TIP3   OH274344   1.500   1.672   2.654  0.1966  0.4883  0.1354
17618TIP3    H174345   1.500   1.658   2.749 -1.6064  0.3884  0.1483
17618TIP3    H274346   1.586   1.712   2.636  1.0945 -0.6655  1.5983
17619TIP3   OH274347   0.193   4.096   4.981 -0.0829  0.3814  0.1333
17619TIP3    H174348   0.230   4.015   5.016 -1.0487 -0.0757  0.1312
17619TIP3    H274349   0.248   4.165   5.017 -0.3586 -0.1466  1.6749
17620TIP3   OH274350   1.325   5.701  11.022 -0.0253 -0.5988 -0.2961
17620TIP3    H174351   1.347   5.651  10.943 -1.2167 -1.5046 -0.0788
17620TIP3    H274352   1.397   5.764  11.031  0.4235 -0.8576 -1.7743
17621TIP3   OH274353   2.728   2.357  17.193 -0.1267  0.8105  0.8033
17621TIP3    H174354   2.634   2.345  17.207 -0.0347 -0.1809  0.6321
17621TIP3    H274355   2.738   2.451  17.180 -0.8152  1.1973  2.7881
17622TIP3   OH274356   5.975   3.251   4.235  0.5659  0.1174  0.4004
17622TIP3    H174357   5.979   3.343   4.261 -0.4453  0.5342 -0.7869
17622TIP3    H274358   5.899   3.216   4.282 -2.0022  1.1744 -2.5938
17623TIP3   OH274359   2.396   2.560  15.104 -0.0243  0.5043  0.0540
17623TIP3    H174360   2.335   2.630  15.128 -0.4012 -0.0075  0.5977
17623TIP3    H274361   2.399   2.503  15.181  0.6924  0.2101 -0.1870
17624TIP3   OH274362   1.005   2.137   2.543  0.3043 -0.4946 -0.0827
17624TIP3    H174363   0.948   2.205   2.507  0.5764 -0.7011 -0.9262
17624TIP3    H274364   0.972   2.124   2.632 -0.7602 -0.3881 -0.4392
17625TIP3   OH274365   0.221   5.992   4.089  0.1329  0.7607  0.3952
17625TIP3    H174366   0.253   5.997   3.999  0.2476 -1.0002  0.3185
17625TIP3    H274367   0.287   6.039   4.140  1.3521 -0.3164 -0.1456
17626TIP3   OH274368   0.717   5.327   2.905  0.4718 -0.7742 -0.1005
17626TIP3    H174369   0.652   5.394   2.926  1.9300  2.0375 -3.5381
17626TIP3    H274370   0.670   5.264   2.849 -0.1218 -0.8441  0.4659
17627TIP3   OH274371   2.604   2.810   2.230 -0.2573 -0.3785  0.5553
17627TIP3    H174372   2.528   2.757   2.253  0.7535 -2.0057  0.2870
17627TIP3    H274373   2.572   2.871   2.163 -1.1633 -1.5307 -0.0820
17628TIP3   OH274374   3.806   2.032  12.111  0.3291  0.1252 -0.4335
17628TIP3    H174375   3.749   1.979  12.054  0.2389 -0.0512 -0.1805
17628TIP3    H274376   3.784   2.123  12.088 -0.1692  0.0622 -0.2367
17629TIP3   OH274377   0.168   3.450   5.467 -0.0873  0.2126 -0.0212
17629TIP3    H174378   0.234   3.405   5.414 -0.4629 -0.1300 -0.1950
17629TIP3    H274379   0.102   3.480   5.404 -0.8693 -0.7672  0.3193
17630TIP3   OH274380   1.017   0.593   4.432 -0.5045 -0.4854 -0.2443
17630TIP3    H174381   1.010   0.642   4.351  0.8230 -0.7259 -0.5321
17630TIP3    H274382   1.038   0.504   4.405 -0.5047 -0.6750  0.3511
17631TIP3   OH274383   4.404   6.512  16.760 -0.4661  0.1566 -0.5226
17631TIP3    H174384   4.379   6.593  16.804 -1.6721 -0.5728  0.1763
17631TIP3    H274385   4.500   6.517  16.754 -0.5636  2.0776 -1.3976
17632TIP3   OH274386   5.700   0.802   4.747  0.2711 -0.6283 -0.3289
17632TIP3    H174387   5.641   0.833   4.816 -1.3750 -0.5932 -1.6868
17632TIP3    H274388   5.784   0.843   4.767  0.0710 -1.2696  2.0950
17633TIP3   OH274389   5.282   5.178   0.686 -0.2247 -0.0546  0.6174
17633TIP3    H174390   5.276   5.270   0.711 -0.5065  0.1757 -0.2767
17633TIP3    H274391   5.199   5.140   0.713  0.1788 -0.2280  1.6639
17634TIP3   OH274392   3.376   6.785  14.235  0.0729  0.7802  0.4552
17634TIP3    H174393   3.466   6.815  14.221  0.1823  0.7540  1.1051
17634TIP3    H274394   3.347   6.829  14.314 -1.2858  2.5305 -0.9336
17635TIP3   OH274395   3.165   1.945   3.413 -0.4932 -0.0773  0.3932
17635TIP3    H174396   3.165   1.919   3.505  0.9482  1.2432  0.8002
17635TIP3    H274397   3.255   1.931   3.383 -0.6811  0.5319 -0.5079
17636TIP3   OH274398   5.065   1.209   0.322 -0.0231 -0.0236  0.2744
17636TIP3    H174399   4.993   1.190   0.262  0.8318  0.2936 -0.8823
17636TIP3    H274400   5.050   1.150   0.396  0.5479 -2.6723 -1.5697
17637TIP3   OH274401   1.633   0.257   4.059 -0.0100  0.3818 -0.2622
17637TIP3    H174402   1.565   0.282   3.997 -0.5788 -0.5239 -0.0143
17637TIP3    H274403   1.714   0.286   4.018 -0.5388  1.4917 -0.5474
17638TIP3   OH274404   4.634   2.677   2.948  0.0125  0.1075 -0.2202
17638TIP3    H174405   4.591   2.596   2.919 -0.8503  0.4727  0.0109
17638TIP3    H274406   4.648   2.664   3.042  1.6741 -0.5644 -0.5268
17639TIP3   OH274407   1.529   5.366  15.299  0.2020 -0.6995  0.2816
17639TIP3    H174408   1.461   5.340  15.237  0.1334 -1.3784  0.6300
17639TIP3    H274409   1.515   5.460  15.313  0.4436 -0.4464 -1.0011
17640TIP3   OH274410   6.286   0.031  10.718 -0.6047 -0.3501 -0.0263
17640TIP3    H174411   6.248  -0.055  10.696 -0.8215  0.2441 -2.2175
17640TIP3    H274412   6.312   0.022  10.809 -3.3117 -1.7754  0.7380
17641TIP3   OH274413   3.073   0.830  14.457  0.3416  0.0907  0.2188
17641TIP3    H174414   3.166   0.850  14.447  1.0470 -0.9636  3.4621
17641TIP3    H274415   3.053   0.769  14.386  2.1638  0.1326 -0.3780
17642TIP3   OH274416   1.738   0.982   0.859 -0.4000 -0.2288 -0.3800
17642TIP3    H174417   1.725   1.010   0.949 -3.5932 -0.7225 -0.5567
17642TIP3    H274418   1.827   1.011   0.837 -0.4655  2.2500  2.0457
17643TIP3   OH274419   4.248   6.591  11.651  0.2391 -0.0352 -0.5634
17643TIP3    H174420   4.197   6.588  11.570  0.4628 -0.3049 -0.6982
17643TIP3    H274421   4.266   6.684  11.665  0.6237 -0.0215 -1.0983
17644TIP3   OH274422   5.605   5.653  13.376  0.6949  0.2607 -0.1371
17644TIP3    H174423   5.653   5.571  13.368 -0.0600 -0.7412  3.6313
17644TIP3    H274424   5.518   5.634  13.339  1.2820  0.2623 -1.6078
17645TIP3   OH274425   3.501   4.630  13.068 -0.0243  0.0623 -0.4551
17645TIP3    H174426   3.424   4.623  13.125  0.7018 -0.7640  0.4736
17645TIP3    H274427   3.574   4.609  13.126  0.7163 -1.1119 -1.7571
17646TIP3   OH274428   1.373   0.021  12.922  0.7163 -0.3835 -0.2441
17646TIP3    H174429   1.326  -0.052  12.882  2.3868 -1.1022 -1.0125
17646TIP3    H274430   1.377  -0.000  13.015  2.7997 -2.3038 -0.6930
17647TIP3   OH274431   1.211   5.547  15.985 -0.0528  0.5374  0.4657
17647TIP3    H174432   1.250   5.561  15.899 -1.6317  0.0320 -0.3845
17647TIP3    H274433   1.263   5.478  16.025  1.0867  1.2140  0.1998
17648TIP3   OH274434   4.458   6.370   0.958  0.4051 -0.0026 -0.1123
17648TIP3    H174435   4.512   6.310   1.009  1.1540  1.2038  0.5607
17648TIP3    H274436   4.519   6.439   0.930 -0.4681  0.5479 -0.6940
17649TIP3   OH274437   1.915   6.264  12.247 -0.3275 -0.3137 -0.1097
17649TIP3    H174438   2.010   6.256  12.233  0.0423  1.5360  0.9408
17649TIP3    H274439   1.897   6.357  12.232 -2.0998 -0.7402 -0.8148
17650TIP3   OH274440   6.203   2.673  12.052  0.0446 -0.3108 -0.4058
17650TIP3    H174441   6.117   2.659  12.013 -1.3422  2.1550  1.4147
17650TIP3    H274442   6.187   2.671  12.147  2.2870 -1.1748  0.0211
17651TIP3   OH274443   1.314   1.219  11.324  0.1825  0.2073  0.5180
17651TIP3    H174444   1.249   1.169  11.275  0.3948  0.2185  0.2257
17651TIP3    H274445   1.268   1.299  11.351  0.2666  0.5366 -0.2768
17652TIP3   OH274446   5.484   4.530   5.793 -0.2068  0.1300  0.1488
17652TIP3    H174447   5.399   4.574   5.795 -0.0911  0.3595  1.8221
17652TIP3    H274448   5.469   4.450   5.743 -1.1015  0.7379 -0.5881
17653TIP3   OH274449   6.415   0.661   3.859 -0.5046 -0.0926 -0.1530
17653TIP3    H174450   6.337   0.606   3.867 -0.8122  0.5691  2.4514
17653TIP3    H274451   6.384   0.750   3.876  0.7162  0.2581  0.3732
17654TIP3   OH274452   5.895   6.149   2.529  0.3144 -0.3569  0.0896
17654TIP3    H174453   5.874   6.211   2.460 -0.6884  0.0736  0.7556
17654TIP3    H274454   5.841   6.177   2.604 -1.7549 -3.1567 -0.1800
17655TIP3   OH274455   1.347   0.875  16.409 -0.3824  0.0375 -0.3431
17655TIP3    H174456   1.294   0.828  16.473 -3.0251  0.7212 -1.8891
17655TIP3    H274457   1.284   0.913  16.349  1.8852  1.4082 -2.0140
17656TIP3   OH274458   1.469   6.806  15.084  0.8270 -0.4097  0.3435
17656TIP3    H174459   1.552   6.852  15.095  0.1378  1.2531 -0.8799
17656TIP3    H274460   1.489   6.735  15.024  1.3833 -0.0507  0.0938
17657TIP3   OH274461   4.058   2.158  11.598 -0.1040 -0.7079  0.0016
17657TIP3    H174462   4.126   2.150  11.665 -0.4541 -1.0631  0.3167
17657TIP3    H274463   4.044   2.253  11.590 -0.1633 -0.6670  0.5395
17658TIP3   OH274464   5.184   6.265   3.027  0.1704  0.0626 -0.0862
17658TIP3    H174465   5.101   6.311   3.041 -0.2660 -0.6197 -0.4043
17658TIP3    H274466   5.197   6.265   2.932  1.9792  2.6521  0.0536
17659TIP3   OH274467   2.113   0.076   5.203 -0.1552 -0.4669 -0.3903
17659TIP3    H174468   2.157   0.101   5.121 -0.9942  0.4195 -0.5885
17659TIP3    H274469   2.172   0.107   5.272  1.0094 -2.0397 -0.6268
17660TIP3   OH274470   1.215   4.709  10.934  0.1780  0.1222  0.0342
17660TIP3    H174471   1.305   4.719  10.902  0.9301  0.8238  2.2280
17660TIP3    H274472   1.166   4.680  10.857  2.3809 -0.8960 -1.0822
17661TIP3   OH274473   5.946   2.953  17.212 -0.1571  0.3260  0.9102
17661TIP3    H174474   5.976   3.033  17.256  0.8641 -0.7464  2.2478
17661TIP3    H274475   6.024   2.898  17.207 -1.4853 -2.0116  3.2773
17662TIP3   OH274476   0.016   3.374   2.864  0.5642  0.0852 -0.4937
17662TIP3    H174477   0.024   3.305   2.798  0.4477 -0.0228 -0.3940
17662TIP3    H274478   0.060   3.449   2.824 -1.5203  0.7461 -1.7013
17663TIP3   OH274479   0.022   5.139  16.924  0.1233  0.1454  0.3647
17663TIP3    H174480   0.008   5.208  16.860  0.7730  1.4960  1.6005
17663TIP3    H274481   0.080   5.178  16.989  0.4644 -1.5588  1.1549
17664TIP3   OH274482   3.076   2.785   3.504 -0.8627 -0.2773 -0.3094
17664TIP3    H174483   3.001   2.818   3.552 -0.5856 -0.3328  0.1680
17664TIP3    H274484   3.086   2.694   3.534  1.0292  0.4972  1.7095
17665TIP3   OH274485   1.279   3.633  13.419  0.4225  0.7798 -0.1886
17665TIP3    H174486   1.242   3.545  13.421 -0.1788  1.0344  0.7084
17665TIP3    H274487   1.204   3.691  13.437  1.1680  1.3210  1.4534
17666TIP3   OH274488   6.517   0.780  14.816 -0.1477  0.7675 -0.8955
17666TIP3    H174489   6.598   0.823  14.843 -0.6284  0.2307  1.6706
17666TIP3    H274490   6.481   0.836  14.748  2.0684  1.3153 -1.6985
17667TIP3   OH274491   4.340   2.932   4.436 -0.0180 -0.4867  0.1088
17667TIP3    H174492   4.392   2.883   4.501  0.4878  0.6038  0.5460
17667TIP3    H274493   4.265   2.875   4.419  0.4837 -1.3605  0.6998
17668TIP3   OH274494   4.572   1.982   1.907 -0.3251  0.2520  0.3464
17668TIP3    H174495   4.487   1.956   1.872 -0.7835  1.9052  0.1566
17668TIP3    H274496   4.562   2.075   1.929  0.4678 -0.2688  3.2819
17669TIP3   OH274497   3.480   0.473  10.755  0.3986  0.1374 -0.3328
17669TIP3    H174498   3.501   0.455  10.847  0.1903 -1.1509 -0.5141
17669TIP3    H274499   3.518   0.399  10.707 -0.3331  0.2894 -1.1764
17670TIP3   OH274500   4.442   4.235  11.102  0.1512  0.0506  0.6920
17670TIP3    H174501   4.437   4.329  11.120  2.2506  0.0497  1.5579
17670TIP3    H274502   4.536   4.217  11.094 -0.2308 -1.8975  0.0360
17671TIP3   OH274503   4.733   4.236   3.420  0.4305  0.1072 -0.0809
17671TIP3    H174504   4.806   4.298   3.430  0.9724 -0.4376 -0.5189
17671TIP3    H274505   4.758   4.184   3.344 -0.1639 -0.4482  0.1026
17672TIP3   OH274506   0.118   4.923  13.710 -0.1246 -0.3707 -0.2193
17672TIP3    H174507   0.076   4.979  13.775 -0.3815 -1.4398  0.5717
17672TIP3    H274508   0.060   4.927  13.634 -1.2835 -1.2080  0.5839
17673TIP3   OH274509   0.751   5.264   0.207 -0.3532  0.2153  0.0347
17673TIP3    H174510   0.739   5.354   0.238 -1.0947  0.5757 -1.2587
17673TIP3    H274511   0.720   5.265   0.117  0.4174 -1.1522 -0.2699
17674TIP3   OH274512   6.404   4.251  12.162  0.1822 -0.2667  0.1362
17674TIP3    H174513   6.475   4.238  12.224  0.1058  0.9892  0.5160
17674TIP3    H274514   6.413   4.342  12.134 -0.7303 -0.3575 -0.4964
17675TIP3   OH274515   0.519   2.523   3.110  0.0512 -0.7224 -0.3831
17675TIP3    H174516   0.574   2.560   3.041 -0.5263 -0.0430 -0.4925
17675TIP3    H274517   0.576   2.520   3.187  0.3315 -0.2938 -0.5698
17676TIP3   OH274518   1.538   3.904  14.523 -0.6279  0.7345  0.0823
17676TIP3    H174519   1.593   3.946  14.589 -2.3760 -0.4299  2.3887
17676TIP3    H274520   1.476   3.851  14.572 -2.7651  0.6500 -2.4472
17677TIP3   OH274521   2.920   5.399   6.400  0.0895 -0.0142 -0.0864
17677TIP3    H174522   2.960   5.485   6.406  1.0433 -0.5253  2.0543
17677TIP3    H274523   2.992   5.340   6.378 -0.1179 -0.5096  0.5109
17678TIP3   OH274524   3.745   4.212   2.556 -0.2567  0.1968 -0.0600
17678TIP3    H174525   3.818   4.234   2.613 -0.4810  2.1674 -0.4455
17678TIP3    H274526   3.698   4.142   2.603  1.0283 -0.0630  0.8838
17679TIP3   OH274527   5.926   3.983   5.748  0.2679 -0.4744  0.0848
17679TIP3    H174528   5.873   3.947   5.820  0.3222 -0.9839 -0.1250
17679TIP3    H274529   6.015   3.986   5.783  0.0457  0.7664  0.5797
17680TIP3   OH274530   0.518   3.832   4.987 -0.4885 -0.3947  0.0171
17680TIP3    H174531   0.423   3.817   4.983 -0.2696 -1.6687 -1.3505
17680TIP3    H274532   0.554   3.746   5.008  0.3160  0.4019  2.1674
17681TIP3   OH274533   4.930   1.100   4.258  0.0779 -0.7391  0.5343
17681TIP3    H174534   4.947   1.007   4.274  1.0766 -0.4952  1.0040
17681TIP3    H274535   5.017   1.137   4.241 -0.5042 -0.2639 -1.7701
17682TIP3   OH274536   2.773   0.593   3.535  0.5784  0.5340  0.4752
17682TIP3    H174537   2.776   0.678   3.490 -1.9073 -0.5242 -2.0233
17682TIP3    H274538   2.712   0.607   3.607 -0.9370  0.6104 -0.7671
17683TIP3   OH274539   1.353   2.543  13.171 -0.6567 -0.3686 -0.0178
17683TIP3    H174540   1.406   2.616  13.202 -1.1462 -0.7363  1.7789
17683TIP3    H274541   1.389   2.466  13.216 -2.0460 -0.7679  0.4519
17684TIP3   OH274542   5.314   0.472  12.767  0.2736 -0.0804  0.4445
17684TIP3    H174543   5.408   0.476  12.782  0.5314  1.0637 -1.2246
17684TIP3    H274544   5.305   0.442  12.676 -0.8981  1.1281  0.1264
17685TIP3   OH274545   6.337   6.326  13.845  0.6355 -0.0330 -0.5238
17685TIP3    H174546   6.358   6.315  13.937  1.0617 -0.8722 -0.7076
17685TIP3    H274547   6.407   6.279  13.799 -1.3798 -2.6023 -1.1719
17686TIP3   OH274548   0.361   6.779  11.076  0.2634 -0.1079  0.0523
17686TIP3    H174549   0.440   6.831  11.084 -0.2357  0.7930 -0.6601
17686TIP3    H274550   0.332   6.764  11.166  1.1317 -0.2939  0.3067
17687TIP3   OH274551   2.278   2.150  14.879  0.2868 -0.0257  0.2207
17687TIP3    H174552   2.276   2.239  14.844 -1.4419 -0.1322 -0.0419
17687TIP3    H274553   2.365   2.118  14.858  0.0501  0.6748 -2.0666
17688TIP3   OH274554   0.859   2.265   5.437  0.4824  0.7049 -0.0257
17688TIP3    H174555   0.900   2.197   5.489  0.0936 -1.3973 -2.3033
17688TIP3    H274556   0.765   2.250   5.447  0.3896  0.9207 -0.5268
17689TIP3   OH274557   2.380   1.783  12.624  0.2154  0.4241 -0.3924
17689TIP3    H174558   2.311   1.843  12.593  1.3973  1.0858 -1.9331
17689TIP3    H274559   2.378   1.710  12.562  1.9860  1.2917 -1.5735
17690TIP3   OH274560   0.500   5.989  11.256 -0.4808 -0.9055  0.1958
17690TIP3    H174561   0.558   6.026  11.190  0.9033  1.6104  2.5820
17690TIP3    H274562   0.534   5.900  11.272  1.1855 -0.3683 -0.2189
17691TIP3   OH274563   5.223   4.040   4.129 -0.5199 -0.3790  0.3294
17691TIP3    H174564   5.203   4.086   4.211  0.6691  0.1261  0.3556
17691TIP3    H274565   5.141   4.045   4.079 -1.2299 -0.6034  1.4338
17692TIP3   OH274566   5.767   2.635   4.813 -0.4203 -0.0918  0.4147
17692TIP3    H174567   5.747   2.700   4.746 -0.2806  0.7548  1.1798
17692TIP3    H274568   5.862   2.640   4.823 -0.0487 -2.1866 -1.2760
17693TIP3   OH274569   1.719   1.333   2.630  0.6497  0.5573  0.2189
17693TIP3    H174570   1.677   1.280   2.698 -1.9464  2.4147  0.2153
17693TIP3    H274571   1.757   1.407   2.677  1.1903  0.5002 -0.1197
17694TIP3   OH274572   6.590   0.776  15.878  0.1635  0.3928 -0.3343
17694TIP3    H174573   6.580   0.870  15.895 -0.1944  0.3941 -0.5572
17694TIP3    H274574   6.502   0.745  15.859  0.5209  0.3640 -2.0847
17695TIP3   OH274575   3.110   0.057  12.863  0.1129  0.4936 -0.1535
17695TIP3    H174576   3.106  -0.034  12.835  1.5817  0.1216  0.7776
17695TIP3    H274577   3.186   0.093  12.817  1.6222  0.2887  2.0480
17696TIP3   OH274578   0.835   3.263  13.840 -0.1576 -0.7372 -0.4683
17696TIP3    H174579   0.792   3.324  13.899 -1.2819 -1.9361  0.0166
17696TIP3    H274580   0.807   3.290  13.753 -0.4016 -0.3857 -0.2820
17697TIP3   OH274581   4.033   5.375  13.177 -0.0481 -0.1432 -0.0086
17697TIP3    H174582   4.006   5.384  13.086  1.8233 -3.2781 -1.0171
17697TIP3    H274583   4.127   5.389  13.175  0.0007 -0.1272  1.4870
17698TIP3   OH274584   5.574   3.766   3.382  0.0275 -0.0554  0.3912
17698TIP3    H174585   5.551   3.733   3.295  0.3316 -0.1499  0.3475
17698TIP3    H274586   5.536   3.854   3.385 -0.9281 -0.4601  0.5652
17699TIP3   OH274587   3.310   0.673   2.361  0.1296 -0.2336 -0.1627
17699TIP3    H174588   3.343   0.763   2.363 -1.0609  0.2153 -0.2744
17699TIP3    H274589   3.333   0.638   2.447 -0.2345  0.4946  0.2418
17700TIP3   OH274590   5.687   0.819  13.088  0.1903  0.8761 -0.4169
17700TIP3    H174591   5.621   0.769  13.135  0.4206  2.5647  1.8773
17700TIP3    H274592   5.681   0.788  12.998 -0.5159 -2.3169  0.5963
17701TIP3   OH274593   0.813   6.409  13.593 -0.4507  0.0647 -0.7384
17701TIP3    H174594   0.770   6.397  13.678 -1.3052 -0.1997 -1.2074
17701TIP3    H274595   0.841   6.321  13.568 -0.1347  0.1538 -0.7076
17702TIP3   OH274596   3.770   4.029   5.514  0.0766 -0.2639 -0.5190
17702TIP3    H174597   3.684   4.043   5.476 -0.5688 -0.7040  0.7150
17702TIP3    H274598   3.764   4.065   5.602  1.1006 -0.4554 -0.3534
17703TIP3   OH274599   1.040   4.368   6.412 -0.8255 -0.0398  0.2820
17703TIP3    H174600   1.107   4.427   6.445 -2.9620  2.0515  1.1924
17703TIP3    H274601   1.050   4.288   6.464 -0.2028  0.9226  1.6906
17704TIP3   OH274602   3.666   4.540  10.761  0.5124  0.0197 -0.2578
17704TIP3    H174603   3.650   4.447  10.747  0.1014 -0.8112  4.3256
17704TIP3    H274604   3.582   4.582  10.741 -0.5341 -1.2002  1.3751
17705TIP3   OH274605   0.163   1.877   1.645  0.0840  0.4499  0.0129
17705TIP3    H174606   0.224   1.899   1.575  0.0236  0.0540 -0.1698
17705TIP3    H274607   0.117   1.959   1.664 -1.3328  0.1636 -1.8177
17706TIP3   OH274608   0.981   2.000  14.721  0.0926  0.0132  0.1842
17706TIP3    H174609   1.039   2.045  14.660  0.5034 -0.1114  0.4796
17706TIP3    H274610   0.944   1.928  14.670 -0.7001  0.7708 -0.3434
17707TIP3   OH274611   3.237   0.708   0.030  0.0459 -0.2263  0.2089
17707TIP3    H174612   3.193   0.790   0.055 -0.2331 -0.4589  0.4813
17707TIP3    H274613   3.329   0.723   0.052  0.0238  0.0768  0.1004
17708TIP3   OH274614   6.025   2.784  15.529  0.9645 -0.3911  0.2425
17708TIP3    H174615   5.932   2.791  15.553  1.1538  0.6066  0.7411
17708TIP3    H274616   6.037   2.692  15.506  0.2093 -0.8943  1.7234
17709TIP3   OH274617   5.596   3.630   4.912 -0.5454 -0.0071  0.1724
17709TIP3    H174618   5.590   3.715   4.957 -1.4429 -0.1825  0.3980
17709TIP3    H274619   5.517   3.583   4.938 -0.8532 -0.3041 -1.2083
17710TIP3   OH274620   4.975   4.876   3.800  0.4329  0.2040 -0.0059
17710TIP3    H174621   4.901   4.932   3.776  0.4414  0.5994  0.8506
17710TIP3    H274622   5.040   4.892   3.731 -0.0518  0.2888 -0.4509
17711TIP3   OH274623   4.560   5.169   3.840  0.1180 -0.7130  0.3669
17711TIP3    H174624   4.556   5.264   3.847 -1.2666 -0.4772 -2.2639
17711TIP3    H274625   4.473   5.143   3.811  1.1012 -2.4894 -1.2843
17712TIP3   OH274626   2.235   2.674  10.555  0.4150  0.3834 -0.0501
17712TIP3    H174627   2.147   2.660  10.588  0.2514  0.2080 -0.5561
17712TIP3    H274628   2.288   2.609  10.601 -0.0479 -0.7993 -1.1279
17713TIP3   OH274629   3.163   6.205   5.469  0.7032  0.0643  0.4427
17713TIP3    H174630   3.084   6.151   5.466  1.4760 -1.0932  0.0142
17713TIP3    H274631   3.131   6.295   5.463 -0.5361 -0.4108 -0.5373
17714TIP3   OH274632   3.705   1.125  12.208  0.0537  0.6099 -0.0573
17714TIP3    H174633   3.738   1.049  12.256 -1.0661 -0.1279 -0.4152
17714TIP3    H274634   3.749   1.120  12.123 -1.6630 -0.9779 -0.9261
17715TIP3   OH274635   3.732   5.591  12.401 -0.6707 -0.2288 -0.0262
17715TIP3    H174636   3.738   5.546  12.485 -0.2524 -0.0917  0.0238
17715TIP3    H274637   3.650   5.639  12.405 -0.4544  0.1140  0.4811
17716TIP3   OH274638   2.896   0.784   3.261  0.3109  0.1361 -0.5918
17716TIP3    H174639   2.944   0.851   3.310  0.2450 -1.7079  2.2183
17716TIP3    H274640   2.955   0.758   3.191  1.6995  0.8011  0.2909
17717TIP3   OH274641   2.888   0.762   4.786  0.1824 -0.0101  0.2730
17717TIP3    H174642   2.825   0.823   4.748  0.2758 -0.4387 -0.6004
17717TIP3    H274643   2.859   0.749   4.876 -0.2246  0.7957  0.2589
17718TIP3   OH274644   0.756   4.732   1.849  0.2295 -0.9010  0.2227
17718TIP3    H174645   0.736   4.721   1.942  2.6188 -0.6155  0.8303
17718TIP3    H274646   0.702   4.807   1.822  0.6748  0.0476  1.8120
17719TIP3   OH274647   3.316   3.976   2.438 -0.5917 -0.5309 -0.4121
17719TIP3    H174648   3.224   3.998   2.457 -0.5476 -1.5732  1.2647
17719TIP3    H274649   3.315   3.882   2.421  0.0765 -0.4150 -1.1067
17720TIP3   OH274650   3.585   4.351   3.850  0.6909 -0.3192 -0.3423
17720TIP3    H174651   3.591   4.446   3.852 -1.2163 -0.1795  1.8628
17720TIP3    H274652   3.504   4.333   3.803 -0.4178 -0.6866  1.6032
17721TIP3   OH274653   4.445   0.450  14.307  0.5995  0.2447  0.6593
17721TIP3    H174654   4.509   0.431  14.375  0.8549  0.9861  0.6359
17721TIP3    H274655   4.367   0.477  14.355 -1.0097 -4.0001  0.8942
17722TIP3   OH274656   5.296   1.126  14.520  0.5956 -1.0357 -0.1807
17722TIP3    H174657   5.231   1.056  14.515  1.0491 -1.4371 -0.6320
17722TIP3    H274658   5.275   1.173  14.600 -0.8993 -0.5007 -0.8474
17723TIP3   OH274659   2.118   1.405  12.384 -0.2652 -0.0318  0.5243
17723TIP3    H174660   2.067   1.409  12.303  0.8957 -2.2529 -0.3815
17723TIP3    H274661   2.061   1.359  12.446 -1.8252  3.0893  1.6233
17724TIP3   OH274662   5.895   2.205   4.982  0.0367 -0.0974  0.5052
17724TIP3    H174663   5.826   2.146   5.012  0.1476 -0.1023  0.7538
17724TIP3    H274664   5.953   2.149   4.930 -0.7567  0.1431 -0.6668
17725TIP3   OH274665   0.505   5.053   3.899  0.5941 -0.7067  0.1470
17725TIP3    H174666   0.545   5.110   3.833  1.5165 -2.9130 -1.3209
17725TIP3    H274667   0.485   5.111   3.972 -0.7651  1.9449 -2.1590
17726TIP3   OH274668   2.368   5.119   2.994 -0.4560  0.9550  0.2053
17726TIP3    H174669   2.324   5.146   2.913  2.2950  0.8139 -1.5013
17726TIP3    H274670   2.447   5.173   2.997  1.6711 -1.8810  0.4397
17727TIP3   OH274671   5.857   1.546   5.394  0.0746 -0.4989 -0.6074
17727TIP3    H174672   5.895   1.601   5.325  0.1473 -0.6155 -0.6614
17727TIP3    H274673   5.814   1.608   5.453 -1.9750 -0.5352 -1.9629
17728TIP3   OH274674   5.959   6.267   6.247 -0.1243  0.1475  0.4849
17728TIP3    H174675   5.906   6.240   6.322 -1.1154  2.4320  0.7196
17728TIP3    H274676   6.022   6.329   6.284  0.6125 -0.1413 -0.2862
17729TIP3   OH274677   4.659   6.605   0.164 -0.5229  0.1386 -0.0912
17729TIP3    H174678   4.703   6.647   0.090 -0.2118  1.0726  0.6082
17729TIP3    H274679   4.594   6.669   0.192 -0.7633 -0.2864  0.3324
17730TIP3   OH274680   5.651   6.503  15.433  0.3967  0.2255 -0.3879
17730TIP3    H174681   5.689   6.438  15.374  0.9238 -0.5260  0.7261
17730TIP3    H274682   5.713   6.507  15.507 -1.0377 -0.1029  0.8853
17731TIP3   OH274683   0.565   3.831  12.924 -0.1421 -0.7630 -0.2963
17731TIP3    H174684   0.528   3.785  12.848 -0.9267  0.0867 -0.4523
17731TIP3    H274685   0.599   3.913  12.887  0.3431 -0.7752  0.1244
17732TIP3   OH274686   2.432   4.567   4.386  0.3269 -0.6306 -0.2283
17732TIP3    H174687   2.374   4.511   4.335  1.3145  0.8451 -3.2167
17732TIP3    H274688   2.376   4.604   4.454 -1.7165 -0.8949 -1.6685
17733TIP3   OH274689   1.207   3.360   0.781 -0.1792 -0.3475 -0.1700
17733TIP3    H174690   1.141   3.321   0.723 -0.9922  2.9627 -1.6604
17733TIP3    H274691   1.158   3.382   0.860  0.4469 -2.7768  1.0035
17734TIP3   OH274692   1.959   1.117   3.037 -0.7059 -0.3539  0.5423
17734TIP3    H174693   2.021   1.145   3.104 -0.8178  0.3825  0.3435
17734TIP3    H274694   2.013   1.079   2.968 -0.6427 -2.0548  1.4609
17735TIP3   OH274695   1.228   0.865  15.368  0.1886  0.5522 -0.1082
17735TIP3    H174696   1.307   0.831  15.411  0.4621  0.7228 -0.4667
17735TIP3    H274697   1.262   0.918  15.295 -0.2682  0.2408 -0.5511
17736TIP3   OH274698   0.945   6.681   4.982  0.3284 -0.1479  0.0751
17736TIP3    H174699   0.968   6.595   5.016 -0.1878 -1.0833 -1.7788
17736TIP3    H274700   0.957   6.741   5.056  1.5595 -1.6591  1.1610
17737TIP3   OH274701   3.856   6.736  13.463  0.5167  0.2082  0.0898
17737TIP3    H174702   3.768   6.753  13.431  0.3985  0.8214  0.7009
17737TIP3    H274703   3.914   6.780  13.400  0.3010  1.1907  0.5589
17738TIP3   OH274704   4.132   2.136  16.090  0.7314  0.2381  0.2845
17738TIP3    H174705   4.201   2.115  16.027  1.5632 -0.3930  1.3920
17738TIP3    H274706   4.173   2.127  16.176 -0.1245  1.9927  0.9276
17739TIP3   OH274707   5.698   1.885  12.592  0.1824  0.0183  0.4860
17739TIP3    H174708   5.647   1.877  12.672  0.3288 -2.4604  0.4039
17739TIP3    H274709   5.760   1.812  12.595  0.9615  0.5337 -1.3549
17740TIP3   OH274710   0.059   4.166   2.152 -0.4978  0.5944  0.2074
17740TIP3    H174711   0.129   4.170   2.217 -0.7345  0.6869  0.4608
17740TIP3    H274712  -0.006   4.229   2.183 -1.0156 -0.0079  0.3544
17741TIP3   OH274713   4.799   0.300  11.325  0.0242 -0.7333 -0.2069
17741TIP3    H174714   4.799   0.220  11.273  0.6014 -1.9620  1.6285
17741TIP3    H274715   4.708   0.310  11.355 -0.1953 -0.3017 -0.9745
17742TIP3   OH274716   0.674   0.052  16.341 -0.3411 -0.6038 -0.4599
17742TIP3    H174717   0.736  -0.012  16.307 -1.2889 -1.9448  0.2273
17742TIP3    H274718   0.728   0.119  16.382  0.6712 -2.1964  0.9486
17743TIP3   OH274719   3.880   3.265  15.070  0.5436  0.2836 -0.5885
17743TIP3    H174720   3.938   3.327  15.026  1.2370  0.3071  0.3192
17743TIP3    H274721   3.891   3.183  15.022  0.4407  0.5811 -1.1286
17744TIP3   OH274722   2.790   5.259  12.391  0.0441 -0.0052  0.0705
17744TIP3    H174723   2.872   5.241  12.436  0.6130 -0.3287 -1.0553
17744TIP3    H274724   2.778   5.185  12.332 -1.2958 -0.1836  0.5268
17745TIP3   OH274725   0.949   6.023  13.386  0.2224 -0.1879 -0.2325
17745TIP3    H174726   0.989   5.961  13.447  2.4508  0.4518 -0.9241
17745TIP3    H274727   0.870   6.054  13.431  0.9391 -0.9086  1.6247
17746TIP3   OH274728   2.945   2.663  13.622  0.3887  0.2146 -0.0501
17746TIP3    H174729   2.993   2.692  13.545 -0.6158 -0.1397 -0.8271
17746TIP3    H274730   2.981   2.577  13.643  1.0699  0.5658  0.2411
17747TIP3   OH274731   6.253   5.513   5.837  0.1339 -1.0085 -0.4119
17747TIP3    H174732   6.322   5.451   5.861 -0.6553 -1.5454  0.5568
17747TIP3    H274733   6.258   5.519   5.742  3.5585  1.3773 -0.2520
17748TIP3   OH274734   3.463   5.212  14.188 -0.0827  0.2561 -0.6925
17748TIP3    H174735   3.496   5.204  14.277  0.5199 -2.0406 -1.0566
17748TIP3    H274736   3.370   5.189  14.194 -0.0779  0.2472 -0.6533
17749TIP3   OH274737   6.163   4.639   1.631  0.3337 -0.1403 -0.4592
17749TIP3    H174738   6.243   4.598   1.665  0.8019 -0.6913 -2.1051
17749TIP3    H274739   6.103   4.641   1.705  1.6684 -0.2652  0.6552
17750TIP3   OH274740   4.239   1.496  16.851 -0.6294  0.3156  0.1091
17750TIP3    H174741   4.203   1.580  16.877  0.6503  0.7404  0.6337
17750TIP3    H274742   4.333   1.503  16.871 -0.2711 -0.7701 -1.0292
17751TIP3   OH274743   4.672   5.925   1.494  0.1387  0.0163  0.1896
17751TIP3    H174744   4.660   5.888   1.406  0.9867 -0.8441  0.4157
17751TIP3    H274745   4.670   6.020   1.480 -1.7453 -0.0755 -0.4617
17752TIP3   OH274746   0.865   1.477   3.144  0.0339 -0.6719 -0.0365
17752TIP3    H174747   0.896   1.565   3.163 -1.0290 -0.3862  0.4593
17752TIP3    H274748   0.849   1.477   3.049  0.4519 -0.4791 -0.1083
17753TIP3   OH274749   0.424   6.671  12.825 -0.2089 -0.1113  0.3797
17753TIP3    H174750   0.461   6.613  12.891 -1.1494  0.7490  1.6951
17753TIP3    H274751   0.476   6.750  12.831 -1.1487  0.4719  1.0520
17754TIP3   OH274752   6.209   0.344   6.835 -0.0105 -0.0139  0.3580
17754TIP3    H174753   6.192   0.436   6.857  0.3702  0.3865 -0.9357
17754TIP3    H274754   6.305   0.336   6.836 -0.0164 -0.2207 -0.1414
17755TIP3   OH274755   5.335   3.014   5.570  0.1029 -0.5753  0.0477
17755TIP3    H174756   5.320   2.932   5.523  1.3924 -0.7961 -0.0072
17755TIP3    H274757   5.369   2.986   5.655 -1.5103 -0.1576  0.8694
17756TIP3   OH274758   1.704   3.358   0.470  0.2406  0.4195  0.1834
17756TIP3    H174759   1.643   3.292   0.439  0.3531  1.1232 -1.6792
17756TIP3    H274760   1.658   3.441   0.459  1.5254  0.9678 -1.3671
17757TIP3   OH274761   6.174   2.781   5.697  0.4370 -0.2363  0.2633
17757TIP3    H174762   6.263   2.815   5.696  0.4971 -0.4037  0.0383
17757TIP3    H274763   6.123   2.846   5.650  0.9719 -1.6185 -2.4605
17758TIP3   OH274764   6.057   0.243  11.956  0.1190 -0.6429 -0.6427
17758TIP3    H174765   5.999   0.279  11.889  0.5760  0.7327 -0.3207
17758TIP3    H274766   6.037   0.149  11.956 -0.7946 -0.4768 -1.8038
17759TIP3   OH274767   6.571   4.257  16.729  0.6369 -0.2939  0.0241
17759TIP3    H174768   6.536   4.172  16.757 -0.2146 -0.0590 -0.2876
17759TIP3    H274769   6.666   4.248  16.740  0.3822 -0.0286  3.4723
17760TIP3   OH274770   3.814   4.123  17.194  0.5276 -0.2813 -0.3562
17760TIP3    H174771   3.829   4.217  17.190 -1.6385  0.1360  0.1982
17760TIP3    H274772   3.899   4.084  17.176  1.4450  1.7769 -0.6689
17761TIP3   OH274773   1.237   4.607  13.050 -0.2086 -0.2426  0.0750
17761TIP3    H174774   1.196   4.532  13.007  2.7206 -1.9660  0.0335
17761TIP3    H274775   1.262   4.574  13.136  0.2438  1.0302  0.4557
17762TIP3   OH274776   4.941   6.194   5.554  0.2619 -0.1453  0.5536
17762TIP3    H174777   4.888   6.247   5.614  1.4721 -0.5569  2.0555
17762TIP3    H274778   4.894   6.111   5.548 -0.5106  0.3174 -0.0913
17763TIP3   OH274779   6.422   6.409   1.837  0.0521 -0.4899  0.2450
17763TIP3    H174780   6.468   6.331   1.810 -2.4327 -1.5500 -1.2905
17763TIP3    H274781   6.329   6.386   1.831 -0.8138  2.6263 -0.5537
17764TIP3   OH274782   4.828   5.693   1.800  0.0188  0.0815  0.2612
17764TIP3    H174783   4.810   5.787   1.800  3.8069  0.9391  0.1019
17764TIP3    H274784   4.763   5.657   1.740 -0.7520  2.7563 -0.6545
17765TIP3   OH274785   6.444   6.280   3.388  0.6392 -0.6002 -0.1943
17765TIP3    H174786   6.391   6.201   3.400  0.0053 -0.1852 -0.2012
17765TIP3    H274787   6.410   6.341   3.453  1.8741 -0.6986  0.5761
17766TIP3   OH274788   5.713   1.365  15.836  0.4219 -0.5174  0.3139
17766TIP3    H174789   5.754   1.309  15.770  2.6001 -1.2499  2.1718
17766TIP3    H274790   5.642   1.311  15.872 -1.2864  0.1631 -1.8326
17767TIP3   OH274791   0.764   2.502   4.836 -0.0390 -0.3793  0.2586
17767TIP3    H174792   0.778   2.519   4.743  1.4879  1.4806  0.7497
17767TIP3    H274793   0.836   2.445   4.861 -0.8413 -1.4439  0.1824
17768TIP3   OH274794   2.706   0.916   3.433 -0.1567 -0.2089  0.0695
17768TIP3    H174795   2.758   0.872   3.366 -2.2873  0.4759 -2.1856
17768TIP3    H274796   2.616   0.894   3.412 -1.0609  1.9955  1.2399
17769TIP3   OH274797   5.718   1.194   5.756  0.3932 -0.1344  0.8872
17769TIP3    H174798   5.677   1.198   5.842  1.1836  0.4033  1.2564
17769TIP3    H274799   5.653   1.228   5.695 -0.3334 -0.9273  1.1989
17770TIP3   OH274800   5.686   2.732   1.366  0.2598 -0.1277  0.4251
17770TIP3    H174801   5.718   2.817   1.337  0.7666 -0.4371  0.0540
17770TIP3    H274802   5.616   2.710   1.304  0.4463 -0.1918  0.2366
17771TIP3   OH274803   6.033   1.941  11.980 -0.8237  0.5990 -0.0135
17771TIP3    H174804   5.957   1.946  11.921 -1.0428 -0.5705  0.1441
17771TIP3    H274805   6.005   1.882  12.050  0.6601 -0.9603 -0.6520
17772TIP3   OH274806   3.987   5.672  13.092  0.3905  0.0643 -0.5411
17772TIP3    H174807   3.979   5.665  13.187 -0.2185  0.6401 -0.5462
17772TIP3    H274808   3.935   5.599  13.058  0.5848 -0.1238 -0.4429
17773TIP3   OH274809   5.510   1.394  12.978 -0.8749  0.5689  0.5233
17773TIP3    H174810   5.417   1.374  12.968 -0.4760 -0.8758 -0.6185
17773TIP3    H274811   5.551   1.357  12.900  0.4635  2.6714  0.1377
17774TIP3   OH274812   2.523   2.548   4.608 -0.1744 -0.1768  0.1311
17774TIP3    H174813   2.597   2.593   4.568 -0.8973  0.0458 -0.9863
17774TIP3    H274814   2.540   2.455   4.592 -0.7668 -0.0632 -1.2975
17775TIP3   OH274815   2.913   2.868   3.734  0.0104 -0.1335  0.3380
17775TIP3    H174816   2.835   2.845   3.786 -1.5084 -0.3350 -1.8985
17775TIP3    H274817   2.926   2.962   3.751  0.4386 -0.4818  2.1411
17776TIP3   OH274818   6.579   5.123   2.245  0.3882  0.0222 -0.1270
17776TIP3    H174819   6.506   5.115   2.183 -1.0950  1.4145  1.3404
17776TIP3    H274820   6.657   5.103   2.193 -0.7793  1.1025 -2.4409
17777TIP3   OH274821   0.509   0.502  12.656 -0.8313  0.1842 -0.3118
17777TIP3    H174822   0.485   0.575  12.599 -0.8923 -0.4939 -1.1883
17777TIP3    H274823   0.426   0.457  12.674 -0.4584 -1.9930 -3.1097
17778TIP3   OH274824   2.549   3.101  16.482  0.1667 -0.1972 -0.4789
17778TIP3    H174825   2.483   3.036  16.457  0.3468 -0.4924 -0.2026
17778TIP3    H274826   2.616   3.050  16.528 -0.5968  0.4399  1.4287
17779TIP3   OH274827   3.471   1.991   0.008  0.7245 -0.0246 -0.1901
17779TIP3    H174828   3.445   2.020   0.096  0.8125 -1.2693  0.2716
17779TIP3    H274829   3.430   2.054  -0.051  2.3593  2.0543  0.7952
17780TIP3   OH274830   4.276   5.364  13.067  0.5214 -0.6868  0.2615
17780TIP3    H174831   4.306   5.431  13.129 -0.2422 -0.0837 -0.0091
17780TIP3    H274832   4.342   5.295  13.074  0.7260 -0.4067  1.3693
17781TIP3   OH274833   4.891   2.936   3.180  0.0080  0.2068  0.4719
17781TIP3    H174834   4.871   2.980   3.263 -0.5118  2.2551 -0.6501
17781TIP3    H274835   4.807   2.932   3.135  0.1993 -1.3369  0.2246
17782TIP3   OH274836   2.527   1.775  12.299  0.1920  0.5132 -0.0148
17782TIP3    H174837   2.455   1.838  12.313  1.5709  2.0147  0.6750
17782TIP3    H274838   2.488   1.690  12.320 -1.4771  1.2423  0.0253
17783TIP3   OH274839   2.209   1.660  16.623 -0.1899 -0.0136  0.0315
17783TIP3    H174840   2.210   1.665  16.527 -0.0392 -2.1446 -0.1247
17783TIP3    H274841   2.300   1.677  16.649 -0.1064 -0.0148 -0.2543
17784TIP3   OH274842   3.349   5.901  15.328  0.4472 -0.6271 -0.4671
17784TIP3    H174843   3.258   5.873  15.334  0.5359 -0.5522  2.1689
17784TIP3    H274844   3.345   5.995  15.310  0.0004 -0.6058 -0.2552
17785TIP3   OH274845   5.123   3.949  16.553  0.1342 -0.1728  0.0476
17785TIP3    H174846   5.073   4.018  16.596  0.3198  0.6084 -0.9639
17785TIP3    H274847   5.168   3.903  16.624 -0.5193  0.3255  0.7855
17786TIP3   OH274848   2.025   3.861  17.003 -0.5075  0.1010 -0.4479
17786TIP3    H174849   1.989   3.904  17.080  0.7834 -1.4595  1.1186
17786TIP3    H274850   2.089   3.923  16.968 -1.2372  0.8986 -0.3904
17787TIP3   OH274851   3.519   1.856   2.627  0.4947  0.0442 -0.5170
17787TIP3    H174852   3.472   1.798   2.687  0.8998  1.1033  0.8713
17787TIP3    H274853   3.479   1.942   2.640 -1.2029 -0.0799 -3.6925
17788TIP3   OH274854   5.173   1.776   2.409  0.1575 -0.5148 -0.2238
17788TIP3    H174855   5.123   1.745   2.334  0.4514 -0.4314 -0.4571
17788TIP3    H274856   5.114   1.767   2.483  1.3555 -5.4898  0.5359
17789TIP3   OH274857   2.475   4.311  17.002  0.0796  0.2895  0.2699
17789TIP3    H174858   2.569   4.327  16.995 -0.2707  1.8911 -2.3717
17789TIP3    H274859   2.453   4.263  16.922 -1.2547 -0.9870  1.3286
17790TIP3   OH274860   2.123   2.798   1.219 -0.0764 -0.2644  0.4318
17790TIP3    H174861   2.148   2.826   1.131  1.6570 -1.1660  0.5870
17790TIP3    H274862   2.195   2.741   1.247 -0.7807 -0.3108  2.2846
17791TIP3   OH274863   5.024   6.639   3.497  0.6878 -0.2324 -0.7083
17791TIP3    H174864   4.959   6.597   3.553  1.8194  1.4553  2.0999
17791TIP3    H274865   4.978   6.659   3.416 -1.8194 -0.5500  0.5538
17792TIP3   OH274866   2.343   4.588   3.407  0.3322 -0.7546 -0.5789
17792TIP3    H174867   2.397   4.585   3.328  0.5505  0.2633 -0.4795
17792TIP3    H274868   2.278   4.655   3.388 -0.4679 -1.4648 -0.4109
17793TIP3   OH274869   4.686   4.090   3.888  0.2451  0.0067  0.0245
17793TIP3    H174870   4.728   4.037   3.819 -0.0451  0.3834 -0.4441
17793TIP3    H274871   4.620   4.141   3.842 -0.5102 -0.3282  0.7061
17794TIP3   OH274872   0.338   3.801  16.338  0.4681  0.7372  0.3630
17794TIP3    H174873   0.329   3.882  16.389 -0.6425  0.4309  0.6889
17794TIP3    H274874   0.293   3.734  16.391 -0.6453  0.3926 -0.9466
17795TIP3   OH274875   3.048   5.343   0.389  0.0968 -0.0286  0.3003
17795TIP3    H174876   3.062   5.434   0.366  1.2215 -0.2277  0.1485
17795TIP3    H274877   2.992   5.308   0.319  0.6990  0.2266 -0.3155
17796TIP3   OH274878   5.445   5.556   4.110  0.0618 -0.1560 -0.0491
17796TIP3    H174879   5.516   5.600   4.062  0.9695  0.6460  1.9094
17796TIP3    H274880   5.402   5.627   4.158 -1.4710 -0.7850 -0.4319
17797TIP3   OH274881   3.463   4.291   5.976  0.0117 -0.3402  0.9996
17797TIP3    H174882   3.445   4.350   6.050  0.2611  1.1180 -0.0481
17797TIP3    H274883   3.403   4.217   5.989 -0.2355  0.0769  2.4291
17798TIP3   OH274884   2.835   5.366   4.723  0.1612  0.2886 -0.1771
17798TIP3    H174885   2.745   5.335   4.730  1.7453 -4.7406  2.2954
17798TIP3    H274886   2.858   5.353   4.631 -1.2832  0.7750 -0.6356
17799TIP3   OH274887   0.646   3.376  14.973  0.1490  0.1436 -0.0424
17799TIP3    H174888   0.730   3.407  15.008  0.3411 -0.2768 -0.1341
17799TIP3    H274889   0.582   3.436  15.011  0.6859  1.8524 -1.6900
17800TIP3   OH274890   0.430   3.464  13.572 -0.1931  0.6920 -0.4145
17800TIP3    H174891   0.426   3.502  13.484 -3.9551 -0.2379 -0.8235
17800TIP3    H274892   0.445   3.371  13.558  0.0553  0.6651 -0.0002
17801TIP3   OH274893   3.944   0.718   3.304  0.2628  0.0409  0.0959
17801TIP3    H174894   3.850   0.733   3.291  0.1935 -0.7840 -0.4084
17801TIP3    H274895   3.950   0.685   3.394 -0.1629 -1.7219 -0.4936
17802TIP3   OH274896   0.568   0.434   4.805  0.0384 -0.8206  0.4111
17802TIP3    H174897   0.577   0.339   4.819  1.2277 -0.8459 -0.3955
17802TIP3    H274898   0.551   0.443   4.712 -0.7888 -0.2543  0.5978
17803TIP3   OH274899   3.887   5.651  16.770 -0.4092 -0.9779  0.4408
17803TIP3    H174900   3.967   5.638  16.720  0.3646  2.1644  0.6601
17803TIP3    H274901   3.895   5.589  16.843  1.5930 -1.0751  0.2080
17804TIP3   OH274902   2.165   5.600  13.711 -0.5559  0.3088 -0.3194
17804TIP3    H174903   2.075   5.627  13.694 -1.6519 -2.8286 -0.0942
17804TIP3    H274904   2.197   5.564  13.628 -0.3605 -0.6968  0.1717
17805TIP3   OH274905   3.480   4.552  11.852  0.0295 -0.4115  0.3103
17805TIP3    H174906   3.540   4.543  11.927  1.3714  0.1664 -0.6414
17805TIP3    H274907   3.484   4.645  11.830 -0.8747 -0.4596 -0.0622
17806TIP3   OH274908   5.010   5.337  12.525  0.0618 -0.3219  0.5764
17806TIP3    H174909   5.090   5.298  12.490  0.0646 -0.4568  0.7321
17806TIP3    H274910   4.939   5.286  12.485  0.0844 -1.4806  1.9002
17807TIP3   OH274911   4.624   3.118  11.407 -0.3222 -0.1282 -0.3651
17807TIP3    H174912   4.538   3.156  11.389 -0.6817 -0.4376  0.6301
17807TIP3    H274913   4.610   3.061  11.482  1.2975  1.9613  1.6603
17808TIP3   OH274914   4.220   4.662   3.497  0.3081 -0.2388 -0.7925
17808TIP3    H174915   4.146   4.665   3.437  0.4832  0.3191 -0.9869
17808TIP3    H274916   4.297   4.670   3.440  0.5028 -0.4939 -0.5654
17809TIP3   OH274917   6.016   1.088  11.854  0.1144 -0.3818 -0.0891
17809TIP3    H174918   6.027   1.089  11.759  1.8648 -0.1695  0.0729
17809TIP3    H274919   6.091   1.037  11.886 -0.2033 -0.0764  1.1952
17810TIP3   OH274920   1.672   5.912  13.706 -0.1659  0.8147 -0.0773
17810TIP3    H174921   1.577   5.910  13.706 -0.1741 -1.2843 -0.7752
17810TIP3    H274922   1.694   5.985  13.648 -1.3672  0.5931 -0.8480
17811TIP3   OH274923   0.025   4.014  10.413  0.7154  0.0208  0.6838
17811TIP3    H174924   0.073   4.080  10.464 -1.1651  3.2109 -1.3597
17811TIP3    H274925   0.085   3.990  10.343  1.1175  0.2255  0.9529
17812TIP3   OH274926   5.274   4.763   4.013 -0.2216 -0.0137  0.4148
17812TIP3    H174927   5.218   4.698   4.057  1.1183 -1.3535  0.2433
17812TIP3    H274928   5.267   4.741   3.920  0.1962  0.1258  0.3502
17813TIP3   OH274929   4.447   0.512   1.459  0.0319 -0.0995 -0.2140
17813TIP3    H174930   4.542   0.510   1.453 -0.0241 -0.0256 -1.1932
17813TIP3    H274931   4.421   0.421   1.468  0.0805 -0.3226 -2.0518
17814TIP3   OH274932   0.968   0.422  13.283  0.4489  0.3361 -1.3863
17814TIP3    H174933   1.002   0.337  13.258  0.7230  0.8364 -2.8176
17814TIP3    H274934   1.043   0.481  13.278  0.3117  0.6416 -0.2000
17815TIP3   OH274935   5.228   1.111   0.088 -0.7896  0.0665 -0.5328
17815TIP3    H174936   5.147   1.077   0.127 -0.0124 -2.0347 -0.5794
17815TIP3    H274937   5.275   1.032   0.059  1.8538  1.0923  0.6027
17816TIP3   OH274938   0.892   5.868   5.002  0.0912  0.4296 -0.4754
17816TIP3    H174939   0.855   5.903   5.083  0.2536  2.3118 -1.1669
17816TIP3    H274940   0.819   5.824   4.959 -0.3518  0.6958 -0.0047
17817TIP3   OH274941   0.766   4.240   1.832 -0.2083 -0.2280  0.1606
17817TIP3    H174942   0.795   4.148   1.826 -1.2283 -0.5452 -0.0493
17817TIP3    H274943   0.846   4.289   1.849  0.4230 -1.1082 -0.2059
17818TIP3   OH274944   3.424   3.139   1.377 -0.3092  0.4819  0.1085
17818TIP3    H174945   3.444   3.105   1.290 -0.5746  2.8099 -0.9337
17818TIP3    H274946   3.509   3.153   1.418 -0.1777 -0.4372  0.1697
17819TIP3   OH274947   0.284   2.096   1.510  0.2371 -0.3643  0.7731
17819TIP3    H174948   0.224   2.101   1.436  0.0849  0.3314  0.9381
17819TIP3    H274949   0.233   2.127   1.585  0.9424  0.7290  0.8229
17820TIP3   OH274950   5.361   2.983  10.850 -0.3612  1.0094 -0.0230
17820TIP3    H174951   5.268   2.988  10.828 -0.9274  1.9839  2.3229
17820TIP3    H274952   5.374   2.892  10.878 -0.3006  0.5678 -1.3884
17821TIP3   OH274953   2.720   6.642   5.564  0.4617  0.5090 -0.6173
17821TIP3    H174954   2.726   6.725   5.610 -0.0204  0.4937 -0.5224
17821TIP3    H274955   2.626   6.627   5.553  0.5212 -0.3459 -0.0447
17822TIP3   OH274956   4.481   3.498   3.761  0.5325 -0.3130 -0.3386
17822TIP3    H174957   4.546   3.445   3.716 -0.1522 -1.4377 -0.0447
17822TIP3    H274958   4.433   3.436   3.816 -0.3907  0.5859 -0.0934
17823TIP3   OH274959   1.061   0.415  12.970  0.1821 -0.2527 -0.2181
17823TIP3    H174960   0.967   0.422  12.988 -0.1433 -4.0042  0.3540
17823TIP3    H274961   1.084   0.327  12.999  3.5282 -0.1076 -1.9861
17824TIP3   OH274962   4.231   0.482  11.667 -0.2916 -0.1633  0.2853
17824TIP3    H174963   4.179   0.539  11.611  1.7723 -0.7139 -2.4480
17824TIP3    H274964   4.294   0.540  11.709 -1.2635  0.1412  1.3435
17825TIP3   OH274965   0.625   2.066   5.467 -0.6807  0.0291 -0.5482
17825TIP3    H174966   0.710   2.034   5.438  0.8789  1.6789  1.8345
17825TIP3    H274967   0.593   1.997   5.526  0.5417  0.7544  1.0220
17826TIP3   OH274968   3.770   1.706  12.659  0.1163 -0.9969 -0.3305
17826TIP3    H174969   3.782   1.730  12.567 -0.2607  0.9971  0.1042
17826TIP3    H274970   3.708   1.633  12.657 -0.7701 -0.2496 -1.6053
17827TIP3   OH274971   4.712   3.235  14.689  0.0480  0.2308 -0.1750
17827TIP3    H174972   4.734   3.154  14.641 -1.8699  0.4342 -1.5042
17827TIP3    H274973   4.623   3.221  14.720  0.9843  0.3959  2.8798
17828TIP3   OH274974   5.038   3.224  16.011  0.4666  0.0560  0.2959
17828TIP3    H174975   5.132   3.225  16.030  0.7358  0.6770 -1.0043
17828TIP3    H274976   5.024   3.140  15.967  0.7044  0.6226 -0.8775
17829TIP3   OH274977   4.967   4.697   3.233 -0.3219 -0.1493 -0.2221
17829TIP3    H174978   5.057   4.727   3.241 -0.2518 -0.3344 -0.3132
17829TIP3    H274979   4.914   4.772   3.259 -0.1598  0.1582 -0.7672
17830TIP3   OH274980   1.823   6.761   0.414 -0.4085 -0.2536  0.4066
17830TIP3    H174981   1.817   6.690   0.478  1.8406  0.4558  1.4885
17830TIP3    H274982   1.901   6.810   0.439 -1.5293  2.2578 -0.6816
17831TIP3   OH274983   5.493   0.566   6.328 -0.6039  0.0678  0.6677
17831TIP3    H174984   5.530   0.533   6.246  0.3354  0.9339  0.7141
17831TIP3    H274985   5.402   0.536   6.328 -0.7785  0.4987 -0.9598
17832TIP3   OH274986   5.860   5.556   6.382 -0.3759  0.7068  0.0176
17832TIP3    H174987   5.837   5.563   6.290  0.8596  0.3792 -0.3414
17832TIP3    H274988   5.859   5.462   6.400 -0.1848  0.7428  0.2207
17833TIP3   OH274989   1.549   1.623  12.551  0.3745 -0.5918  0.1339
17833TIP3    H174990   1.581   1.628  12.461 -2.4827  0.7792 -0.9153
17833TIP3    H274991   1.558   1.712  12.586 -2.9594  0.1307 -0.5647
17834TIP3   OH274992   2.112   6.225  16.010 -0.1989  0.7380  0.7478
17834TIP3    H174993   2.193   6.225  16.061  0.2483 -0.1416  0.0651
17834TIP3    H274994   2.042   6.221  16.076  0.3443  0.4901  1.3228
17835TIP3   OH274995   3.668   2.328  13.242  0.3929  0.0035  0.6031
17835TIP3    H174996   3.619   2.318  13.161  2.4210 -1.3307 -0.5340
17835TIP3    H274997   3.606   2.305  13.311 -0.4827 -2.0522 -0.7935
17836TIP3   OH274998   2.298   0.726  16.727 -0.6817  0.2784 -0.1457
17836TIP3    H174999   2.304   0.760  16.638  0.1769 -1.6538 -0.8776
17836TIP3    H275000   2.208   0.745  16.754 -0.4014  2.6034 -0.6442
17837TIP3   OH275001   3.155   5.578   5.011  0.0761  0.0139 -0.1079
17837TIP3    H175002   3.202   5.659   4.991  0.0528  0.2849  0.9024
17837TIP3    H275003   3.081   5.578   4.950  0.9021 -0.0133 -1.1528
17838TIP3   OH275004   4.579   6.109  11.304 -0.4044 -0.8349  0.2065
17838TIP3    H175005   4.621   6.072  11.226  1.1598 -1.1510  1.1665
17838TIP3    H275006   4.643   6.169  11.341 -0.7698 -1.3132  1.7087
17839TIP3   OH275007   4.391   5.423   1.786 -0.4300 -0.1829 -0.3446
17839TIP3    H175008   4.482   5.407   1.809 -0.2147  0.7538 -0.5055
17839TIP3    H275009   4.384   5.518   1.777 -0.9782 -0.3386 -2.1243
17840TIP3   OH275010   4.558   2.003  15.595  0.3825  0.0580 -0.1874
17840TIP3    H175011   4.569   1.916  15.632  1.2410  0.9470  1.7827
17840TIP3    H275012   4.644   2.044  15.605  0.3466  0.7570 -2.2071
17841TIP3   OH275013   2.421   1.701  14.944 -1.1831  0.1382  0.0856
17841TIP3    H175014   2.348   1.761  14.937  0.0752  1.8893  1.1008
17841TIP3    H275015   2.436   1.670  14.855 -1.7390  1.5265 -0.5171
17842TIP3   OH275016   1.721   4.409   3.843 -0.5676 -0.2155  0.4663
17842TIP3    H175017   1.655   4.478   3.852  0.6572  0.8882  1.2756
17842TIP3    H275018   1.759   4.424   3.756  0.0242  0.4521  0.8290
17843TIP3   OH275019   3.167   2.663   6.629  0.0471 -0.2763 -0.3492
17843TIP3    H175020   3.177   2.693   6.720 -3.1676 -1.1795  0.4118
17843TIP3    H275021   3.196   2.737   6.576  0.7637  0.7575  1.4006
17844TIP3   OH275022   0.612   6.129  10.755  0.0458 -0.4524 -0.3860
17844TIP3    H175023   0.519   6.136  10.736 -0.5462 -0.2070  2.1339
17844TIP3    H275024   0.644   6.220  10.750 -0.8862  0.2004  2.7712
17845TIP3   OH275025   2.986   4.719  12.795 -0.4991  0.5224  0.2613
17845TIP3    H175026   3.058   4.655  12.795 -1.2785 -0.3860  0.9472
17845TIP3    H275027   2.909   4.667  12.772 -0.8153  1.6547 -1.3899
17846TIP3   OH275028   3.036   0.982   4.044 -0.0389  0.6246  0.2562
17846TIP3    H175029   3.047   0.896   4.004  0.1261  0.5111  0.5446
17846TIP3    H275030   3.120   1.026   4.030  0.3047  0.2858  1.1889
17847TIP3   OH275031   0.508   0.568  14.519 -0.0457  0.1309  0.1829
17847TIP3    H175032   0.575   0.617  14.470  0.0511 -0.2754 -0.0981
17847TIP3    H275033   0.558   0.513  14.579 -0.0967 -0.6083 -0.4378
17848TIP3   OH275034   1.266   3.133   3.406  0.9399  1.0299  0.0114
17848TIP3    H175035   1.325   3.079   3.460  0.0151  0.8222  0.8424
17848TIP3    H275036   1.285   3.106   3.316  2.3029  1.1637  0.2388
17849TIP3   OH275037   0.541   5.997   5.621  0.0928  0.4425  0.5445
17849TIP3    H175038   0.449   5.974   5.605 -0.0246  0.8991  0.5657
17849TIP3    H275039   0.554   5.981   5.714  0.4810 -1.1714  0.2489
17850TIP3   OH275040   4.475   5.157  14.149 -0.3729  0.6647  0.3393
17850TIP3    H175041   4.470   5.116  14.235  0.4693 -0.5637 -0.1656
17850TIP3    H275042   4.411   5.228  14.153 -0.7168  0.3160  1.7984
17851TIP3   OH275043   1.276   5.084   5.233  0.1596 -0.3744  0.0629
17851TIP3    H175044   1.313   5.172   5.226  0.2209 -0.2862  1.2025
17851TIP3    H275045   1.223   5.086   5.313 -0.2655 -1.2267 -0.1743
17852TIP3   OH275046   5.905   2.756  14.887 -0.2208 -0.2359  0.0684
17852TIP3    H175047   5.910   2.748  14.792 -0.9850  1.9723 -0.2179
17852TIP3    H275048   5.830   2.813  14.903  0.2025 -0.1226  1.9702
17853TIP3   OH275049   5.732   0.719  10.590  0.3387 -0.6069  0.6106
17853TIP3    H175050   5.649   0.730  10.637 -0.6296 -0.3909 -1.0740
17853TIP3    H275051   5.776   0.804  10.599 -0.7819  0.1412 -0.5535
17854TIP3   OH275052   6.147   1.916  14.923 -0.1843 -0.1880  0.8858
17854TIP3    H175053   6.238   1.936  14.948 -0.0015 -0.5677  0.5440
17854TIP3    H275054   6.094   1.977  14.973  0.2959  0.4042  0.6762
17855TIP3   OH275055   6.605   2.140  11.619 -0.3042 -0.5055  0.7094
17855TIP3    H175056   6.583   2.133  11.526  0.0440  0.5018  0.5451
17855TIP3    H275057   6.568   2.060  11.658 -2.2171  0.0098  0.0568
17856TIP3   OH275058   3.001   0.871  16.100 -0.3160  0.4970  0.3961
17856TIP3    H175059   3.046   0.800  16.146 -0.1740 -0.0672 -0.6013
17856TIP3    H275060   2.923   0.889  16.154 -0.1743 -0.1772  0.8294
17857TIP3   OH275061   6.370   3.018  12.833 -0.2026 -0.1258  0.0487
17857TIP3    H175062   6.335   2.932  12.807  0.7720 -0.0134 -1.8568
17857TIP3    H275063   6.301   3.056  12.887 -1.7506 -1.1028 -1.1370
17858TIP3   OH275064   2.224   3.297  14.870  0.2903  0.7338 -0.2506
17858TIP3    H175065   2.203   3.224  14.928  0.4981 -0.4529 -1.6070
17858TIP3    H275066   2.143   3.348  14.866  0.0643  0.4605  0.5430
17859TIP3   OH275067   0.902   4.158  14.481  0.0474  0.0892 -0.5467
17859TIP3    H175068   0.881   4.245  14.516 -0.8775 -0.1137 -0.5730
17859TIP3    H275069   0.992   4.143  14.508 -0.8301 -0.4133  2.5470
17860TIP3   OH275070   2.539   0.653   0.153 -0.0548  0.6189  0.5232
17860TIP3    H175071   2.464   0.635   0.209 -1.2229  1.6164 -0.6236
17860TIP3    H275072   2.525   0.599   0.075  2.6063 -2.3514  1.8917
17861TIP3   OH275073   2.657   5.714   6.085 -0.7215  0.5647  0.3407
17861TIP3    H175074   2.740   5.702   6.132 -0.0286  1.1888 -0.6652
17861TIP3    H275075   2.603   5.640   6.112  0.6186 -0.5633  0.0778
17862TIP3   OH275076   0.310   1.205   3.613 -0.2232  0.4812 -0.0137
17862TIP3    H175077   0.330   1.174   3.701  0.2778  1.9617  0.4237
17862TIP3    H275078   0.280   1.295   3.625 -0.9205  0.4443 -1.2885
17863TIP3   OH275079   6.801   4.220   4.843  0.0577 -0.6003  0.2254
17863TIP3    H175080   6.860   4.250   4.774 -1.2480 -0.4412 -0.8737
17863TIP3    H275081   6.852   4.156   4.892  0.7809 -1.3548 -1.4199
17864TIP3   OH275082   1.350   5.767   3.357 -0.1723 -0.3470  0.3488
17864TIP3    H175083   1.339   5.676   3.385 -2.9589 -0.5482 -1.0644
17864TIP3    H275084   1.391   5.762   3.271 -2.0131 -0.4597 -0.5743
17865TIP3   OH275085   3.519   2.341  14.221  0.1829  0.3224 -0.2108
17865TIP3    H175086   3.450   2.284  14.186 -0.7928  0.6076  1.1859
17865TIP3    H275087   3.482   2.377  14.302  1.2321  2.0045 -0.4299
17866TIP3   OH275088   1.924   5.278  14.838  0.1829  0.2783 -0.1671
17866TIP3    H175089   1.954   5.256  14.750 -1.3741 -0.2822 -0.5878
17866TIP3    H275090   1.979   5.351  14.865  0.4891  0.6498 -1.7310
17867TIP3   OH275091   4.578   6.648  14.900 -0.3847  0.1586  0.8629
17867TIP3    H175092   4.648   6.624  14.961 -2.2825 -1.3255  2.5885
17867TIP3    H275093   4.570   6.743  14.907  1.3270  0.3416  0.7139
17868TIP3   OH275094   4.670   0.025  12.677 -0.3001 -0.5424 -0.1255
17868TIP3    H175095   4.597   0.071  12.637 -0.8689 -0.3729  1.0599
17868TIP3    H275096   4.744   0.085  12.668 -0.9124  0.4370  0.9393
17869TIP3   OH275097   4.130   5.587  11.854 -0.2814 -0.0240  0.0808
17869TIP3    H175098   4.224   5.597  11.871 -0.4332  0.4147  0.7210
17869TIP3    H275099   4.118   5.494  11.838  0.1404 -0.2163  0.8229
17870TIP3   OH275100   3.060   3.514   2.779  0.9284  0.0773 -0.3786
17870TIP3    H175101   3.020   3.429   2.761  1.1054 -0.3234  1.0302
17870TIP3    H275102   3.082   3.511   2.872 -0.1981  2.1265  0.0167
17871TIP3   OH275103   2.333   2.148  15.225  0.4505  0.4559 -0.4098
17871TIP3    H175104   2.387   2.104  15.291 -2.1098 -1.3804  0.6167
17871TIP3    H275105   2.383   2.138  15.144  1.5363 -1.4838  0.4063
17872TIP3   OH275106   3.353   5.989  11.778  0.6646 -0.3235 -0.2328
17872TIP3    H175107   3.301   6.069  11.787 -0.2525 -0.9057 -0.2712
17872TIP3    H275108   3.428   6.003  11.836  0.0687  0.2168  0.4264
17873TIP3   OH275109   4.797   3.235  15.851  0.0505 -0.5283 -0.2661
17873TIP3    H175110   4.871   3.265  15.904 -0.9681 -2.2199  2.3404
17873TIP3    H275111   4.720   3.271  15.896 -0.8025  0.9024 -2.6967
17874TIP3   OH275112   4.045   3.102  14.302 -0.3116  0.1902  1.0801
17874TIP3    H175113   3.992   3.038  14.254  0.6099 -1.2956  1.9622
17874TIP3    H275114   4.025   3.085  14.394  0.2385  0.9296  1.3409
17875TIP3   OH275115   6.707   3.921   1.210 -0.3832  0.5493 -1.0974
17875TIP3    H175116   6.633   3.972   1.178 -1.5345 -0.0007  0.5685
17875TIP3    H275117   6.698   3.921   1.305  1.6707  0.3128 -0.8397
17876TIP3   OH275118   5.969   6.552  16.206  0.4970  0.0891  0.2459
17876TIP3    H175119   5.904   6.483  16.220 -1.0753  1.3819 -0.3412
17876TIP3    H275120   5.926   6.614  16.148  2.1603  1.1811  0.1021
17877TIP3   OH275121   0.817   4.626   3.137  0.2117  0.0667  0.3763
17877TIP3    H175122   0.840   4.537   3.111  0.6066 -0.1282  1.3626
17877TIP3    H275123   0.900   4.675   3.131 -0.1034  0.4959 -0.6506
17878TIP3   OH275124   5.473   2.586  17.206 -0.0866 -0.3816 -0.0443
17878TIP3    H175125   5.512   2.507  17.244  2.1523 -0.5145 -2.3599
17878TIP3    H275126   5.488   2.654  17.272  1.4327 -1.0948  0.4031
17879TIP3   OH275127   5.201   3.973  14.186  0.5173  0.8254  0.2104
17879TIP3    H175128   5.165   3.976  14.098  1.2015  0.5411 -0.0782
17879TIP3    H275129   5.241   3.886  14.193  0.1461  0.6988  0.9319
17880TIP3   OH275130   1.693   5.451   4.023 -0.5792 -0.4158 -0.5084
17880TIP3    H175131   1.629   5.403   4.076 -3.4153  1.0373 -2.3570
17880TIP3    H275132   1.728   5.385   3.963 -0.1315 -1.2845  0.6724
17881TIP3   OH275133   2.795   0.134   2.833 -0.9152 -0.6168  0.1224
17881TIP3    H175134   2.765   0.055   2.789  0.8967 -1.2712 -0.0311
17881TIP3    H275135   2.718   0.191   2.835 -2.2339 -2.3045  0.1138
17882TIP3   OH275136   1.713   4.545  15.848  0.1944 -0.0386  0.2537
17882TIP3    H175137   1.628   4.528  15.806 -0.2861  1.1250  0.7133
17882TIP3    H275138   1.747   4.622  15.802 -0.6508  1.6829  2.3543
17883TIP3   OH275139   5.614   1.582   0.883 -0.1367  0.4863 -0.3477
17883TIP3    H175140   5.700   1.608   0.852 -0.3593  3.3255  1.0038
17883TIP3    H275141   5.621   1.584   0.978 -1.7284  1.0778 -0.2028
17884TIP3   OH275142   3.096   3.243  11.118  0.2827  0.0292 -0.2141
17884TIP3    H175143   3.076   3.150  11.118 -1.6624  0.3886  1.6463
17884TIP3    H275144   3.190   3.247  11.136  0.3873 -1.5528 -0.2913
17885TIP3   OH275145   0.785   1.209  15.996 -0.4099  0.1076  0.3669
17885TIP3    H175146   0.786   1.114  15.989  1.6855  0.1317 -0.6265
17885TIP3    H275147   0.841   1.239  15.924 -1.2391  2.1072  0.4828
17886TIP3   OH275148   3.886   0.654  12.539  0.7002  0.9928 -0.2615
17886TIP3    H175149   3.940   0.697  12.604 -1.6163  2.5711  0.7596
17886TIP3    H275150   3.936   0.660  12.458  2.8093  0.6894  0.9455
17887TIP3   OH275151   4.995   4.117   1.241  0.1723  0.0387 -0.5134
17887TIP3    H175152   5.046   4.189   1.278  1.5624 -1.3875  0.4625
17887TIP3    H275153   5.043   4.038   1.266 -2.3546 -1.3816  0.2546
17888TIP3   OH275154   3.716   3.862   1.335 -0.3067 -0.0227 -0.6878
17888TIP3    H175155   3.666   3.912   1.398 -1.1830 -1.8857  0.1713
17888TIP3    H275156   3.803   3.853   1.374  0.9019  3.3144 -2.2355
17889TIP3   OH275157   6.559   6.439  14.731 -0.3046 -0.0927  0.0443
17889TIP3    H175158   6.512   6.509  14.686  1.6630  1.3017 -0.0107
17889TIP3    H275159   6.565   6.368  14.667  1.0653  1.2421 -1.3900
17890TIP3   OH275160   6.273   5.870  17.058  0.1168 -0.2986  0.1032
17890TIP3    H175161   6.271   5.847  17.151 -2.6307  0.5329  0.3467
17890TIP3    H275162   6.341   5.936  17.051  0.4781 -0.4950  1.4904
17891TIP3   OH275163   3.098   0.637   1.552 -0.4739  0.5570 -0.5049
17891TIP3    H175164   3.087   0.580   1.476 -0.4274 -1.1384  0.7057
17891TIP3    H275165   3.180   0.684   1.535 -0.2412 -0.1030 -1.3081
17892TIP3   OH275166   0.476   0.396  15.003  0.0293  0.7404  0.1374
17892TIP3    H175167   0.566   0.423  14.984  0.2733 -0.7854 -1.0902
17892TIP3    H275168   0.469   0.400  15.098  0.9905  2.0718  0.1731
17893TIP3   OH275169   3.097   2.335  13.333  0.2944  0.5811  0.2518
17893TIP3    H175170   3.023   2.277  13.313  0.5560  0.9244 -1.9905
17893TIP3    H275171   3.125   2.308  13.421 -2.0985  0.0509  0.9348
17894TIP3   OH275172   0.206   4.078  13.441 -0.2977 -0.2388 -0.3688
17894TIP3    H175173   0.158   4.062  13.360 -0.3019  1.4461 -0.7413
17894TIP3    H275174   0.149   4.045  13.510 -0.7331 -0.8061 -0.9931
17895TIP3   OH275175   3.635   5.293   2.262  0.2010 -0.5568  0.1028
17895TIP3    H175176   3.567   5.227   2.248 -1.7717  1.0190  1.7162
17895TIP3    H275177   3.588   5.372   2.287  2.6188  0.7918  0.7319
17896TIP3   OH275178   1.781   4.346  14.562  0.2954  0.2615 -0.7789
17896TIP3    H175179   1.763   4.427  14.609 -0.9287 -0.9408  0.9020
17896TIP3    H275180   1.734   4.355  14.479  0.4785  1.4021 -0.7733
17897TIP3   OH275181   6.235   1.433  12.027  0.0632 -0.4235  0.5680
17897TIP3    H175182   6.322   1.408  11.998 -0.5660 -2.1829  0.0497
17897TIP3    H275183   6.230   1.528  12.013  2.0324 -0.2142  1.0750
17898TIP3   OH275184   6.054   2.326   6.693  0.0291  0.6569  0.7185
17898TIP3    H175185   6.010   2.241   6.687  1.7091 -0.2800  1.1311
17898TIP3    H275186   6.082   2.345   6.603  1.9982 -0.5645  1.0242
17899TIP3   OH275187   2.244   5.647  16.461  0.4595  0.3765  0.4071
17899TIP3    H175188   2.277   5.699  16.534 -1.4181  0.7936  0.9961
17899TIP3    H275189   2.172   5.698  16.424  0.0789 -0.7394 -0.4812
17900TIP3   OH275190   0.639   0.817  14.779  0.1725 -0.3346  0.0563
17900TIP3    H175191   0.658   0.800  14.687 -2.0590 -2.6841 -0.0649
17900TIP3    H275192   0.581   0.893  14.778 -0.0483 -0.5059 -0.5228
17901TIP3   OH275193   5.461   0.894   1.730 -0.2397  0.4758  0.0910
17901TIP3    H175194   5.523   0.966   1.738 -2.6506  2.4950  3.4533
17901TIP3    H275195   5.483   0.835   1.803 -0.7121 -0.1187 -0.2338
17902TIP3   OH275196   0.623   1.909   4.375 -0.7242  0.2178 -0.7922
17902TIP3    H175197   0.713   1.938   4.365  0.0120 -1.8448 -0.5946
17902TIP3    H275198   0.579   1.981   4.421  0.9873  0.9522 -0.2518
17903TIP3   OH275199   6.576   0.758  10.654  0.0468  0.3696 -0.1568
17903TIP3    H175200   6.493   0.717  10.677 -1.2360  1.8085 -1.9676
17903TIP3    H275201   6.580   0.838  10.708 -0.5111  1.0877 -1.1467
17904TIP3   OH275202   2.132   1.374   0.103  0.2154 -0.0438  0.5327
17904TIP3    H175203   2.182   1.350   0.025 -0.1271 -2.1144  0.8701
17904TIP3    H275204   2.044   1.393   0.071  0.0765 -0.8816  0.3776
17905TIP3   OH275205   1.949   6.771  12.490  0.2842 -0.3736  0.6547
17905TIP3    H175206   1.926   6.753  12.399 -0.7342  0.5746  0.7044
17905TIP3    H275207   1.885   6.837  12.519  2.4711  1.6991  1.1142
17906TIP3   OH275208   5.844   4.200   1.432 -0.5225  0.2213 -0.1105
17906TIP3    H175209   5.802   4.271   1.481  2.4170  0.5733  2.2295
17906TIP3    H275210   5.870   4.137   1.500  2.8413  0.2053 -1.2439
17907TIP3   OH275211   2.443   5.500   1.784  0.4600  0.4418  0.2199
17907TIP3    H175212   2.412   5.539   1.702  0.3364  0.0943  0.0993
17907TIP3    H275213   2.525   5.544   1.802  0.8492  0.0191 -0.4718
17908TIP3   OH275214   5.158   5.319  11.261  0.3384  0.3559  0.0974
17908TIP3    H175215   5.125   5.365  11.184 -2.0507 -1.6915 -0.2426
17908TIP3    H275216   5.093   5.336  11.329 -0.0476 -1.5254  0.2577
17909TIP3   OH275217   0.866   1.722   3.807  0.2127 -0.2527  0.2059
17909TIP3    H175218   0.893   1.665   3.736  0.1704  1.3705 -1.1720
17909TIP3    H275219   0.777   1.749   3.784  0.7208  1.4381  0.0737
17910TIP3   OH275220   6.272   1.457  16.507  0.4222  0.3402 -0.2436
17910TIP3    H175221   6.299   1.399  16.579  4.4255 -1.3675 -2.7839
17910TIP3    H275222   6.204   1.408  16.461 -0.8942  0.6613  1.2815
17911TIP3   OH275223   3.319   0.773  15.884 -0.7381 -0.4321  0.3381
17911TIP3    H175224   3.316   0.678  15.891 -1.1591 -0.3728  1.1395
17911TIP3    H275225   3.377   0.800  15.955 -1.5718 -0.0285  0.8810
17912TIP3   OH275226   6.135   0.933   0.228  0.4222 -0.1320 -0.2439
17912TIP3    H175227   6.054   0.918   0.178  0.3462 -0.3992 -0.0430
17912TIP3    H275228   6.166   1.019   0.198 -0.0557  0.0719 -0.1631
17913TIP3   OH275229   4.735   4.521   4.323  0.2464 -0.2399 -0.4473
17913TIP3    H175230   4.658   4.471   4.348 -0.4628  0.8822 -0.3427
17913TIP3    H275231   4.809   4.471   4.360 -0.2755 -2.1333 -1.8454
17914TIP3   OH275232   1.574   2.622   2.830 -0.3862 -0.0602 -0.2215
17914TIP3    H175233   1.536   2.556   2.772 -1.6078 -1.0411  1.5990
17914TIP3    H275234   1.538   2.705   2.797 -1.4659 -0.6366 -0.5701
17915TIP3   OH275235   5.556   2.704  15.931 -0.3191 -0.6156  0.0604
17915TIP3    H175236   5.566   2.799  15.929 -1.5880 -0.4737 -0.8741
17915TIP3    H275237   5.645   2.670  15.939  0.1606  0.6441  0.1986
17916TIP3   OH275238   2.303   4.897   5.753  0.1083  0.2352 -0.3495
17916TIP3    H175239   2.327   4.946   5.831  1.5219 -0.1348 -0.5370
17916TIP3    H275240   2.268   4.964   5.693 -0.6414  0.5672  0.4361
17917TIP3   OH275241   1.859   3.310  11.414  0.4460 -0.0943  0.1606
17917TIP3    H175242   1.889   3.374  11.479  0.4930 -0.1616  0.2054
17917TIP3    H275243   1.940   3.272  11.379  0.4493  0.5603 -0.5652
17918TIP3   OH275244   5.657   2.145  11.598 -0.4077 -0.2807 -0.0568
17918TIP3    H175245   5.653   2.049  11.599 -0.1824 -0.3037 -0.8093
17918TIP3    H275246   5.584   2.172  11.654 -0.2229 -0.8944  0.5024
17919TIP3   OH275247   5.780   2.815  11.441 -0.2489 -0.1667 -0.2629
17919TIP3    H175248   5.774   2.853  11.529 -0.6995 -1.7575  0.4396
17919TIP3    H275249   5.718   2.864  11.389  0.0288  0.8127  0.3075
17920TIP3   OH275250   5.336   6.003   2.265  0.5460  0.1323 -0.6230
17920TIP3    H175251   5.388   5.953   2.203  1.8614  0.6813 -0.0016
17920TIP3    H275252   5.397   6.068   2.302 -0.7737  1.3491 -0.4659
17921TIP3   OH275253   4.580   2.165  12.627  0.1029  0.4893  0.1242
17921TIP3    H175254   4.555   2.088  12.680  0.9362 -0.1960 -0.4490
17921TIP3    H275255   4.655   2.202  12.674  1.0149 -0.2783 -0.6944
17922TIP3   OH275256   4.682   4.486   0.615  0.1013 -0.0597 -0.1402
17922TIP3    H175257   4.612   4.545   0.644  1.6271  1.5013  0.5504
17922TIP3    H275258   4.658   4.463   0.525 -1.1172  0.7310 -0.0361
17923TIP3   OH275259   6.732   4.561   3.943  0.0560  0.0012 -0.3335
17923TIP3    H175260   6.746   4.562   3.848 -1.4541  2.3498 -0.6172
17923TIP3    H275261   6.641   4.534   3.954 -0.6627  2.3477  0.1758
17924TIP3   OH275262   5.964   0.785  12.438  0.0267 -0.0782  0.0424
17924TIP3    H175263   5.956   0.806  12.531  0.2594  0.7337 -0.1101
17924TIP3    H275264   6.037   0.722  12.434  1.5893  1.6260  0.2058
17925TIP3   OH275265   2.597   1.999  12.127 -0.5312  0.0187 -0.0864
17925TIP3    H175266   2.619   1.935  12.195 -1.5069 -0.2714 -0.0222
17925TIP3    H275267   2.642   2.079  12.154  1.3069 -0.8208 -0.5564
17926TIP3   OH275268   5.350   0.268   0.462  0.3507 -0.4949 -0.4849
17926TIP3    H175269   5.375   0.220   0.541 -1.2311 -2.3552 -1.0465
17926TIP3    H275270   5.285   0.332   0.492  1.6451  0.6096  0.0827
17927TIP3   OH275271   1.323   5.499   1.737  0.0480  0.2817  0.1853
17927TIP3    H175272   1.264   5.572   1.716  0.1339 -0.0437 -1.2400
17927TIP3    H275273   1.280   5.422   1.702  1.8621  0.1856 -2.0197
17928TIP3   OH275274   0.604   5.040   1.028  0.4017  0.5000  0.4708
17928TIP3    H175275   0.549   5.111   1.060  0.8045  0.7531  0.6047
17928TIP3    H275276   0.678   5.038   1.088  1.0012  0.7575 -0.2445
17929TIP3   OH275277   1.957   6.654   1.035 -0.1388 -0.0869 -0.2757
17929TIP3    H175278   2.044   6.680   1.004  0.4231 -2.3260 -0.7545
17929TIP3    H275279   1.972   6.572   1.082 -1.7349  0.5361  1.4070
17930TIP3   OH275280   0.765   3.734  10.909 -0.3673 -0.7466 -0.0715
17930TIP3    H175281   0.757   3.779  10.825  0.7116  1.3864  0.9005
17930TIP3    H275282   0.859   3.715  10.916 -0.2294  0.3082  1.2148
17931TIP3   OH275283   4.007   0.177   5.495 -0.8151  0.8232  0.1664
17931TIP3    H175284   3.951   0.104   5.521 -0.5212  0.5839  0.1269
17931TIP3    H275285   4.092   0.158   5.534 -0.6655  1.0105 -0.0640
17932TIP3   OH275286   2.042   0.139   0.488 -0.4209 -0.1661 -0.6040
17932TIP3    H175287   1.975   0.138   0.555  0.2186 -2.7416  0.0990
17932TIP3    H275288   2.092   0.219   0.505 -0.3633 -0.6720  1.9171
17933TIP3   OH275289   2.056   2.397   4.409 -0.2116 -0.1072 -0.0917
17933TIP3    H175290   2.149   2.413   4.419 -0.0723 -1.6876  1.9161
17933TIP3    H275291   2.015   2.455   4.474 -0.3700 -1.3079  0.9234
17934TIP3   OH275292   4.541   6.245   3.651  0.1299 -0.2082 -0.2770
17934TIP3    H175293   4.572   6.154   3.655 -2.7147 -1.3032 -0.3939
17934TIP3    H275294   4.587   6.290   3.722  3.2517 -1.1116 -1.5624
17935TIP3   OH275295   5.947   1.031   1.661 -0.3970  0.1008 -0.2247
17935TIP3    H175296   5.936   1.072   1.747 -0.9271 -1.5142  0.5091
17935TIP3    H275297   5.891   0.954   1.663  0.8346 -0.8874 -1.4190
17936TIP3   OH275298   6.131   4.557  15.283 -0.2597 -0.4810 -0.1614
17936TIP3    H175299   6.206   4.510  15.246  0.3052 -1.0415  1.5987
17936TIP3    H275300   6.059   4.537  15.224  0.4257 -1.9781 -0.5415
17937TIP3   OH275301   2.558   1.220   5.141  0.1582 -0.4254 -0.5727
17937TIP3    H175302   2.512   1.303   5.152 -1.0928 -0.8883 -2.0714
17937TIP3    H275303   2.512   1.176   5.070  2.9352 -0.9134 -2.2137
17938TIP3   OH275304   2.571   0.617   0.520  0.3902 -0.1657 -0.0084
17938TIP3    H175305   2.518   0.694   0.539 -1.0252 -0.9743 -0.5818
17938TIP3    H275306   2.523   0.544   0.559 -0.2651 -1.2566 -2.6094
17939TIP3   OH275307   0.250   3.059  14.597  0.9657  0.1546 -0.3026
17939TIP3    H175308   0.282   3.042  14.509  0.7342 -1.4504 -0.1103
17939TIP3    H275309   0.154   3.058  14.588  0.9370 -0.4237  0.0266
17940TIP3   OH275310   5.183   5.282   4.653 -0.3003  0.0698 -0.0743
17940TIP3    H175311   5.240   5.238   4.716 -0.4048  0.3715  0.2331
17940TIP3    H275312   5.120   5.215   4.626  0.1222 -0.2284 -0.3217
17941TIP3   OH275313   2.863   0.026  12.215 -0.1861  0.3579  0.6241
17941TIP3    H175314   2.861   0.074  12.132  0.0084 -0.6249  0.0231
17941TIP3    H275315   2.877  -0.065  12.189 -0.2943  0.0068  1.7376
17942TIP3   OH275316   2.261   3.845   3.562 -0.1901  0.4516  0.2312
17942TIP3    H175317   2.181   3.897   3.560 -0.3875  0.2436  1.6227
17942TIP3    H275318   2.332   3.909   3.570  0.0988  0.8428 -3.7888
17943TIP3   OH275319   4.889   0.283   3.057  0.3833 -0.6130  0.7459
17943TIP3    H175320   4.858   0.279   3.147  0.8853  0.8907  1.0158
17943TIP3    H275321   4.971   0.234   3.058 -0.1108 -1.4501  0.8681
17944TIP3   OH275322   2.945   0.926   0.681 -0.2612 -0.0443  0.0064
17944TIP3    H175323   2.862   0.960   0.716 -0.3867 -1.1415  0.8270
17944TIP3    H275324   2.919   0.848   0.631  0.4886 -2.3682  2.9387
17945TIP3   OH275325   4.867   3.568   3.496  0.3862  0.0836 -0.5626
17945TIP3    H175326   4.850   3.659   3.469  1.1916  0.5758  0.5156
17945TIP3    H275327   4.786   3.521   3.474 -0.2801  1.1941 -0.5694
17946TIP3   OH275328   5.749   5.307  13.710 -0.2346  0.0289  0.7577
17946TIP3    H175329   5.696   5.336  13.785 -0.9284  1.2197 -0.1606
17946TIP3    H275330   5.789   5.387  13.677 -0.5729 -0.3566 -0.6304
17947TIP3   OH275331   5.886   4.948  12.321  0.2636  0.0851 -0.1224
17947TIP3    H175332   5.920   4.871  12.366  0.9606  0.1261 -0.5620
17947TIP3    H275333   5.965   4.997  12.295 -0.0519 -0.5105 -2.3950
17948TIP3   OH275334   5.644   0.958  12.587 -0.0602 -0.2537 -0.1353
17948TIP3    H175335   5.737   0.934  12.593  0.2251  1.0961  2.0949
17948TIP3    H275336   5.598   0.875  12.601  0.6701 -1.3745 -3.3886
17949TIP3   OH275337   6.390   3.466   2.213  0.1368  0.5006  0.3080
17949TIP3    H175338   6.472   3.419   2.226  1.1052  1.9626 -0.1944
17949TIP3    H275339   6.417   3.554   2.184 -1.5866  1.2298  0.7649
17950TIP3   OH275340   4.540   1.120   2.838 -0.4828 -0.6137 -1.0642
17950TIP3    H175341   4.598   1.096   2.765 -1.1469 -0.2257 -1.7300
17950TIP3    H275342   4.503   1.036   2.866  1.0386 -0.9908 -0.0472
17951TIP3   OH275343   3.115   2.791  12.577  0.0633  0.7287 -0.2970
17951TIP3    H175344   3.158   2.799  12.492 -0.1067  0.8970 -0.3677
17951TIP3    H275345   3.094   2.698  12.584  1.4703  0.4350  0.2504
17952TIP3   OH275346   1.229   1.863  12.138  0.3029  0.1699 -0.2490
17952TIP3    H175347   1.138   1.890  12.151  0.1318 -0.3760 -0.2759
17952TIP3    H275348   1.257   1.909  12.060 -0.5648 -1.1116 -1.3616
17953TIP3   OH275349   3.787   0.291  11.316 -0.3334  0.3915  0.4643
17953TIP3    H175350   3.804   0.309  11.224  0.7436 -0.7895  0.3999
17953TIP3    H275351   3.874   0.277  11.354 -0.8346 -0.3487  1.3769
17954TIP3   OH275352   3.537   2.424  10.766  0.4235  0.3716 -0.3557
17954TIP3    H175353   3.484   2.346  10.785  1.2156  0.3295  1.9955
17954TIP3    H275354   3.474   2.489  10.737 -0.2238 -1.1848 -2.7662
17955TIP3   OH275355   4.543   3.286   4.056  0.1064  0.0309  0.3622
17955TIP3    H175356   4.497   3.275   3.973 -0.5495  1.7128  0.4659
17955TIP3    H275357   4.573   3.198   4.078  0.1507 -0.4918 -1.5577
17956TIP3   OH275358   6.258   5.069   5.121  0.1330  0.2905 -0.2520
17956TIP3    H175359   6.239   5.120   5.200 -0.5642  1.0637 -0.8975
17956TIP3    H275360   6.222   4.982   5.140 -4.3316  1.6287 -1.3778
17957TIP3   OH275361   5.724   3.853  12.865 -0.1238  0.1010  0.7379
17957TIP3    H175362   5.792   3.807  12.914  0.0888 -0.3490  0.0434
17957TIP3    H275363   5.641   3.818  12.900  0.0009  0.3410  1.2881
17958TIP3   OH275364   5.523   2.131  15.048 -0.0220  0.2566 -0.6792
17958TIP3    H175365   5.553   2.103  14.962  1.1060  0.0261 -0.2421
17958TIP3    H275366   5.598   2.112  15.106 -0.7747  0.3519  0.3519
17959TIP3   OH275367   4.342   2.168  11.105 -0.4847 -0.1743 -0.3017
17959TIP3    H175368   4.256   2.194  11.072 -0.5735  0.4387  0.3905
17959TIP3    H275369   4.365   2.090  11.054 -0.5173  0.8409 -1.9303
17960TIP3   OH275370   4.218   1.600  11.953 -0.3262  0.2244  0.3875
17960TIP3    H175371   4.249   1.523  12.003 -0.1907  0.6465  0.9688
17960TIP3    H275372   4.184   1.659  12.020 -1.1727  0.3400 -0.1313
17961TIP3   OH275373   5.321   3.990  15.580 -0.4025  0.4438  0.2512
17961TIP3    H175374   5.238   3.981  15.627  0.7880 -0.1142  2.3551
17961TIP3    H275375   5.356   3.901  15.575 -0.3480  0.5250 -1.5000
17962TIP3   OH275376   0.217   2.511   4.342  0.2485 -0.1994  0.2475
17962TIP3    H175377   0.170   2.431   4.319  0.8841 -0.0850 -1.6160
17962TIP3    H275378   0.280   2.483   4.409 -2.0861 -0.4322  2.4555
17963TIP3   OH275379   5.097   0.108   1.839 -0.3651  0.2126  0.3205
17963TIP3    H175380   5.127   0.147   1.757 -1.4775  2.7176  1.0190
17963TIP3    H275381   5.177   0.092   1.889  0.1424  2.0923  0.1708
17964TIP3   OH275382   5.941   1.745   1.833  0.0987 -0.2181  0.3030
17964TIP3    H175383   5.861   1.772   1.878  0.2712 -0.0358  0.5011
17964TIP3    H275384   6.004   1.728   1.904  0.2087 -0.4413  0.1515
17965TIP3   OH275385   0.050   2.267   1.416  0.0380  0.0879  0.1754
17965TIP3    H175386  -0.040   2.238   1.425  0.0498  0.5656  2.4259
17965TIP3    H275387   0.075   2.297   1.503  1.9420  1.2513 -0.6861
17966TIP3   OH275388   6.533   5.907   6.011 -0.8801 -0.4171  0.8258
17966TIP3    H175389   6.579   5.988   6.032 -0.4094 -0.3406 -0.4394
17966TIP3    H275390   6.565   5.844   6.075 -0.0719 -0.0009  0.8394
17967TIP3   OH275391   6.269   0.432  15.931  0.0415  0.0629 -0.2184
17967TIP3    H175392   6.246   0.453  15.840 -3.1350 -2.9762 -0.3504
17967TIP3    H275393   6.228   0.501  15.983 -0.7479  0.1951 -0.9973
17968TIP3   OH275394   5.987   0.685  13.430 -0.1910  0.2967  0.3731
17968TIP3    H175395   5.963   0.660  13.520 -0.0890  1.6665  0.7965
17968TIP3    H275396   5.911   0.733  13.398 -0.4924 -0.7448 -0.5284
17969TIP3   OH275397   4.225   2.726  13.132  0.5100 -0.5132  0.2457
17969TIP3    H175398   4.147   2.712  13.077  0.8844 -1.0529 -0.1690
17969TIP3    H275399   4.216   2.662  13.202 -0.5776  0.9876  1.5300
17970TIP3   OH275400   3.827   1.856   0.529 -0.4923  0.3816  0.0671
17970TIP3    H175401   3.759   1.836   0.594 -2.9481  2.9207 -1.5046
17970TIP3    H275402   3.849   1.948   0.546  0.5247  0.4054 -1.2518
17971TIP3   OH275403   4.324   5.397   2.402 -0.2349 -0.6080 -0.4711
17971TIP3    H175404   4.242   5.445   2.390  0.7600  0.8143 -1.9554
17971TIP3    H275405   4.365   5.438   2.478 -0.6775 -1.0261  0.0004
17972TIP3   OH275406   0.709   1.448   2.557 -0.0454 -0.4701 -0.0182
17972TIP3    H175407   0.683   1.519   2.617 -0.8400  0.4761 -1.4269
17972TIP3    H275408   0.739   1.493   2.478 -0.5863 -1.6900 -0.9555
17973TIP3   OH275409   4.898   3.124   2.850 -0.2892  0.3420  0.3292
17973TIP3    H175410   4.838   3.193   2.880  0.1491  0.4753  0.9053
17973TIP3    H275411   4.849   3.043   2.864 -0.9451  0.5444 -0.6825
17974TIP3   OH275412   1.156   2.095  14.549  0.0533 -0.4653 -0.1315
17974TIP3    H175413   1.234   2.149  14.533 -1.4594  1.1638 -2.6233
17974TIP3    H275414   1.119   2.081  14.462 -0.5616 -4.2590  0.5511
17975TIP3   OH275415   5.999   0.343  14.242 -0.0411 -0.0202  0.3130
17975TIP3    H175416   5.925   0.402  14.228 -1.9696 -2.4339 -0.3739
17975TIP3    H275417   6.050   0.350  14.162 -2.0660 -1.6129 -1.2228
17976TIP3   OH275418   2.408   0.598   1.859 -0.4440 -0.1462  0.1474
17976TIP3    H175419   2.486   0.581   1.911  0.7977 -2.0554 -2.1426
17976TIP3    H275420   2.352   0.521   1.873 -0.2503 -0.5141 -1.0115
17977TIP3   OH275421   6.790   6.234   5.490 -0.1517 -0.0969  0.4932
17977TIP3    H175422   6.810   6.143   5.511  0.1684  0.3125  2.1482
17977TIP3    H275423   6.825   6.284   5.564 -0.4024  1.3689 -0.3289
17978TIP3   OH275424   1.240   6.822   0.976 -0.0817 -0.3735  0.3347
17978TIP3    H175425   1.163   6.769   0.959  0.5716 -0.5838 -2.6586
17978TIP3    H275426   1.251   6.874   0.896  2.1124  0.6244  1.1990
17979TIP3   OH275427   0.769   4.931   1.321 -0.7562  0.2029 -0.2147
17979TIP3    H175428   0.855   4.961   1.351 -0.4164 -0.4439 -0.5123
17979TIP3    H275429   0.709   5.001   1.347  0.0743  1.4075 -1.3563
17980TIP3   OH275430   4.653   3.756  17.090 -0.3586  0.1620 -0.1874
17980TIP3    H175431   4.604   3.700  17.151  0.4757 -0.8267 -0.4061
17980TIP3    H275432   4.618   3.733  17.004 -0.6533  0.6517 -0.2028
17981TIP3   OH275433   2.033   5.565  15.921  0.0619  0.7751 -0.0460
17981TIP3    H175434   1.995   5.637  15.871 -1.5617  0.4694  0.6863
17981TIP3    H275435   2.026   5.489  15.864 -0.4978  0.7080  0.1105
17982TIP3   OH275436   6.441   0.283  13.459  0.1747 -0.0576  0.5975
17982TIP3    H175437   6.369   0.303  13.519  0.0455  1.2678  0.0536
17982TIP3    H275438   6.463   0.368  13.420  0.4502 -0.8182 -0.9951
17983TIP3   OH275439   0.808   1.330   1.211  0.0195  0.1565  0.3489
17983TIP3    H175440   0.738   1.334   1.277  0.3745 -1.4864  0.8808
17983TIP3    H275441   0.887   1.312   1.262  1.0405  2.7294 -0.1544
17984TIP3   OH275442   4.278   1.375  16.004 -0.0089 -0.7295 -0.3962
17984TIP3    H175443   4.315   1.291  16.033 -2.2567 -1.9452 -0.7952
17984TIP3    H275444   4.228   1.353  15.925 -1.3883  0.7905 -0.0001
17985TIP3   OH275445   2.445   1.101   1.740 -0.0979  0.8025  0.0028
17985TIP3    H175446   2.427   1.151   1.660  1.5541  0.1821 -0.7961
17985TIP3    H275447   2.464   1.012   1.710 -1.6214  0.0033  1.2959
17986TIP3   OH275448   6.215   5.960  16.750  0.1470  0.1593 -0.9437
17986TIP3    H175449   6.226   5.868  16.777  0.4674  0.1235 -1.1908
17986TIP3    H275450   6.151   5.995  16.812 -1.6868 -0.8136 -2.1772
17987TIP3   OH275451   1.602   2.913   3.960  0.1550  0.3194 -0.2974
17987TIP3    H175452   1.573   2.905   4.051 -0.2612  0.0741 -0.4472
17987TIP3    H275453   1.547   2.982   3.924  0.1777  0.2755 -0.4165
17988TIP3   OH275454   0.671   0.264   3.196 -0.3345  0.4375 -0.1705
17988TIP3    H175455   0.652   0.178   3.235 -2.4374  1.6397  1.7350
17988TIP3    H275456   0.587   0.310   3.198  0.5411  2.2763 -1.9115
17989TIP3   OH275457   6.247   6.385   5.579  0.1803 -0.3129 -0.7080
17989TIP3    H175458   6.227   6.331   5.502 -0.3172  2.0344 -2.3243
17989TIP3    H275459   6.341   6.401   5.573  0.3858 -1.1882 -0.0557
17990TIP3   OH275460   6.473   1.201  11.482 -0.6686  0.5553 -0.0670
17990TIP3    H175461   6.403   1.168  11.537 -1.6430  1.6647 -0.6045
17990TIP3    H275462   6.476   1.141  11.407 -0.3327 -0.0872  0.4481
17991TIP3   OH275463   1.428   0.218   3.086 -0.3467 -0.1842  0.4010
17991TIP3    H175464   1.472   0.193   3.167 -0.7501 -2.9938 -0.1366
17991TIP3    H275465   1.355   0.273   3.114  1.0356  1.0576  1.6697
17992TIP3   OH275466   5.068   3.647   1.866  0.0901 -0.9313 -0.0504
17992TIP3    H175467   5.085   3.615   1.954 -2.6882 -2.4288  0.0412
17992TIP3    H275468   5.022   3.731   1.879  1.2067 -0.2878 -0.1470
17993TIP3   OH275469   1.126   4.858  15.136 -0.2602  0.3748  0.4282
17993TIP3    H175470   1.040   4.896  15.119  0.1003  0.2517 -2.0143
17993TIP3    H275471   1.123   4.772  15.095  0.4037 -0.4763  2.0645
17994TIP3   OH275472   4.091   3.305  14.721 -0.0429 -0.2699 -0.5897
17994TIP3    H175473   4.011   3.354  14.737  0.4730  0.7256 -0.9970
17994TIP3    H275474   4.129   3.291  14.808  0.9521  2.0380 -0.5974
17995TIP3   OH275475   5.775   3.949   4.006  0.6189  0.4101 -0.0102
17995TIP3    H175476   5.691   3.988   4.026  0.6656  1.1900 -1.2553
17995TIP3    H275477   5.839   4.001   4.054  0.4723  0.3912  0.2026
17996TIP3   OH275478   2.010   1.821  14.513  0.0885  0.7373 -0.0516
17996TIP3    H175479   1.969   1.840  14.428  0.3602  1.7866  0.0433
17996TIP3    H275480   1.944   1.847  14.577  0.1786  0.6711  0.0661
17997TIP3   OH275481   1.560   2.924  15.269  0.3842  0.0121  0.2052
17997TIP3    H175482   1.470   2.953  15.283 -0.5762 -2.4285 -0.3420
17997TIP3    H275483   1.613   2.990  15.312 -1.7379  0.7193  1.9381
17998TIP3   OH275484   2.851   2.898  14.333  0.3835  0.1098 -0.2235
17998TIP3    H175485   2.860   2.963  14.402 -1.0961  0.5975 -0.4531
17998TIP3    H275486   2.774   2.846  14.358  0.4519 -0.3694 -0.9627
17999TIP3   OH275487   6.553   3.797  10.243 -0.4051  0.0894 -0.5716
17999TIP3    H175488   6.574   3.890  10.233  0.6096 -0.1507 -0.7133
17999TIP3    H275489   6.460   3.791  10.221 -1.2802  1.5249  2.2233
18000TIP3   OH275490   0.692   5.212  13.722 -0.1539 -0.3876 -0.2882
18000TIP3    H175491   0.650   5.252  13.798 -1.5804  0.7919 -1.6194
18000TIP3    H275492   0.681   5.276  13.652  1.7891 -1.1113 -1.3309
18001TIP3   OH275493   5.883   4.579  15.174 -0.4190  0.1774 -0.1766
18001TIP3    H175494   5.845   4.569  15.087 -1.3885 -0.6974  0.3184
18001TIP3    H275495   5.823   4.533  15.232  0.8332 -0.2939  0.8074
18002TIP3   OH275496   5.372   2.338  15.437  0.4736  0.2941  0.2361
18002TIP3    H175497   5.298   2.278  15.430 -0.0435  0.8977  0.4442
18002TIP3    H275498   5.337   2.414  15.482  0.5569  1.6521 -1.8757
18003TIP3   OH275499   1.723   0.492   2.873  0.1296  0.4010 -0.3630
18003TIP3    H175500   1.772   0.573   2.856 -0.4848  0.7179 -0.6642
18003TIP3    H275501   1.698   0.499   2.965 -0.2249  0.7265 -0.4801
18004TIP3   OH275502   2.131   5.422  12.033 -0.5445  0.1895 -0.4482
18004TIP3    H175503   2.132   5.394  12.124  0.4968  1.9864  0.1425
18004TIP3    H275504   2.065   5.367  11.991 -1.9651  0.1917  1.6703
18005TIP3   OH275505   5.185   2.265   1.945 -0.4790 -0.5561 -0.1027
18005TIP3    H175506   5.278   2.261   1.967 -0.2743 -0.4724 -0.9176
18005TIP3    H275507   5.177   2.342   1.888 -1.2382  0.0827  0.8292
18006TIP3   OH275508   1.404   6.447  13.895  0.0735  0.1211 -0.3404
18006TIP3    H175509   1.347   6.395  13.952  0.7410 -0.0422  0.1990
18006TIP3    H275510   1.432   6.385  13.828  0.1721  0.0153 -0.2027
18007TIP3   OH275511   5.938   0.933   4.135  0.1667  0.2076  0.4991
18007TIP3    H175512   5.859   0.972   4.099  0.9774  0.5296 -1.0020
18007TIP3    H275513   5.914   0.909   4.225 -0.9742  2.2342  0.7874
18008TIP3   OH275514   2.030   3.967  16.010 -0.4065  0.4794 -0.3841
18008TIP3    H175515   2.002   3.930  16.094 -1.4243  0.5521 -0.6812
18008TIP3    H275516   2.048   4.059  16.029  2.2878 -0.1120  0.3950
18009TIP3   OH275517   0.104   0.948   3.730  0.0036  0.7333 -0.0026
18009TIP3    H175518   0.060   1.026   3.695  0.1455  1.0335  0.4807
18009TIP3    H275519   0.057   0.929   3.811  0.2443  0.5719  0.0980
18010TIP3   OH275520   1.310   5.638   1.090 -0.0433  0.0916  0.2482
18010TIP3    H175521   1.355   5.580   1.151 -0.6563  0.4720  1.0757
18010TIP3    H275522   1.317   5.593   1.006  2.0767  0.2664  0.2815
18011TIP3   OH275523   1.706   4.276  14.878 -0.2409 -0.4361  0.1584
18011TIP3    H175524   1.781   4.254  14.933  1.1195 -0.6741 -1.6868
18011TIP3    H275525   1.744   4.302  14.794 -2.0799  2.5999  0.1194
18012TIP3   OH275526   1.168   3.614   6.342  0.2589 -0.6070  0.5798
18012TIP3    H175527   1.139   3.698   6.307 -0.0519 -0.7742  0.4337
18012TIP3    H275528   1.101   3.589   6.405 -0.0738 -1.1295  0.0356
18013TIP3   OH275529   0.223   1.433   2.425  0.2425  0.1065  0.5109
18013TIP3    H175530   0.285   1.454   2.495  1.7199  0.8498 -0.9655
18013TIP3    H275531   0.269   1.368   2.372 -1.0983 -0.8961  0.5370
18014TIP3   OH275532   5.462   0.103  12.794  0.1464  0.6974 -0.3168
18014TIP3    H175533   5.523   0.038  12.758 -0.2548  1.4155 -2.4761
18014TIP3    H275534   5.433   0.065  12.877  3.2205  0.1544  0.6787
18015TIP3   OH275535   1.687   3.443  12.674 -0.5828  0.3256  0.3635
18015TIP3    H175536   1.620   3.475  12.734  0.2975  0.4651  1.2865
18015TIP3    H275537   1.766   3.491  12.698  0.5186 -1.7110  1.0774
18016TIP3   OH275538   0.866   0.793  16.210 -0.1893  0.0400 -0.2840
18016TIP3    H175539   0.889   0.825  16.298  0.2804  2.2042 -1.1405
18016TIP3    H275540   0.947   0.754  16.177 -0.4986 -1.2369  0.3944
18017TIP3   OH275541   4.133   6.510   2.102  0.1230  0.0749 -0.1137
18017TIP3    H175542   4.105   6.419   2.103 -0.0798  0.1170 -1.2370
18017TIP3    H275543   4.085   6.550   2.029  0.2876  1.0588  0.2927
18018TIP3   OH275544   0.875   2.548  14.652  0.5698  0.3454  0.3407
18018TIP3    H175545   0.879   2.568  14.746  0.0817  0.2233  0.3910
18018TIP3    H275546   0.847   2.630  14.611 -0.5552  0.0408  0.4543
18019TIP3   OH275547   1.984   2.603  10.628  0.2646  0.0678  0.1478
18019TIP3    H175548   1.951   2.513  10.629 -2.0477  0.7862 -1.5725
18019TIP3    H275549   1.907   2.657  10.650  1.4901  1.6567  0.7440
18020TIP3   OH275550   2.488   0.074  17.028 -0.3771 -0.0707  0.1345
18020TIP3    H175551   2.500   0.038  17.115  0.7479  0.5815  0.2733
18020TIP3    H275552   2.575   0.109  17.004 -0.7405  0.0335 -1.1068
18021TIP3   OH275553   0.261   3.162  11.579 -0.0492  0.4234 -0.5295
18021TIP3    H175554   0.240   3.139  11.669 -3.6284  4.0424 -0.1681
18021TIP3    H275555   0.328   3.229  11.586  0.2097  0.1808 -0.6457
18022TIP3   OH275556   3.766   3.353   3.920  0.8107 -0.2126  0.2053
18022TIP3    H175557   3.802   3.441   3.925  1.7763 -0.6351  1.0838
18022TIP3    H275558   3.673   3.364   3.939  0.2725  0.9699 -2.6686
18023TIP3   OH275559   4.078   1.162   1.977 -0.4498  0.0935 -0.8746
18023TIP3    H175560   4.086   1.101   1.903 -2.1547 -1.8158  0.4031
18023TIP3    H275561   3.985   1.164   1.996  0.0196 -0.4464  1.9622
18024TIP3   OH275562   4.541   5.852   0.372 -0.4273 -0.1452  0.1736
18024TIP3    H175563   4.473   5.789   0.347 -0.1533 -0.4244  0.1275
18024TIP3    H275564   4.558   5.901   0.291 -1.4092  0.7301  0.4711
18025TIP3   OH275565   5.775   2.736   3.613  0.3742 -0.3219 -0.0311
18025TIP3    H175566   5.773   2.752   3.518 -0.3532  0.6965  0.1372
18025TIP3    H275567   5.798   2.821   3.651 -1.5356 -0.1294  0.8092
18026TIP3   OH275568   1.310   5.999   4.801 -0.1958 -0.3675 -0.5435
18026TIP3    H175569   1.309   6.094   4.799  1.6516 -0.2649  0.7433
18026TIP3    H275570   1.263   5.976   4.882 -0.9207 -0.5906 -1.0138
18027TIP3   OH275571   5.202   5.040   2.848 -0.5654  0.7989 -0.0238
18027TIP3    H175572   5.254   4.967   2.814 -1.1806  0.3176  0.0369
18027TIP3    H275573   5.131   4.998   2.897 -0.8378  1.4421  0.1474
18028TIP3   OH275574   0.698   6.756  16.609 -0.0260  0.5076 -0.4973
18028TIP3    H175575   0.676   6.845  16.581  0.9944  0.6367 -0.9067
18028TIP3    H275576   0.657   6.700  16.543 -1.0668  0.6283  0.0152
18029TIP3   OH275577   1.293   1.417  10.958  0.1993 -0.1643 -0.3038
18029TIP3    H175578   1.318   1.327  10.938 -0.2187  0.0908 -2.2132
18029TIP3    H275579   1.371   1.469  10.938 -0.3344  0.1355 -1.7645
18030TIP3   OH275580   4.007   2.323   2.612  0.0361 -0.8729  0.0942
18030TIP3    H175581   4.026   2.244   2.662 -0.6315 -1.1463 -0.0773
18030TIP3    H275582   3.920   2.308   2.575  0.8329 -1.0350 -1.8431
18031TIP3   OH275583   4.131   3.397   4.168  0.1344 -0.6616 -0.1484
18031TIP3    H175584   4.130   3.316   4.117 -0.2140 -0.5539 -0.3136
18031TIP3    H275585   4.209   3.443   4.138 -0.6184 -0.1231 -1.3400
18032TIP3   OH275586   1.857   0.049  16.250 -0.1615 -0.0069  0.1309
18032TIP3    H175587   1.942   0.009  16.267  0.9378  1.8894 -0.6837
18032TIP3    H275588   1.850   0.120  16.313 -0.6981  0.4646 -0.4461
18033TIP3   OH275589   5.261   0.880  16.540  0.2604  0.3937  0.2709
18033TIP3    H175590   5.318   0.806  16.517  0.4655  0.9866 -1.2203
18033TIP3    H275591   5.222   0.908  16.457 -1.2743  0.7890  1.0881
18034TIP3   OH275592   6.297   0.433  12.219 -0.6246  0.1675  0.5179
18034TIP3    H175593   6.228   0.486  12.258 -0.7813 -0.7140  1.5049
18034TIP3    H275594   6.313   0.472  12.133 -2.0294  0.6598  0.4592
18035TIP3   OH275595   5.290   1.887  11.775 -0.3656  0.1453 -0.6948
18035TIP3    H175596   5.235   1.824  11.821 -1.0688  0.1509 -1.5110
18035TIP3    H275597   5.229   1.952  11.741  0.1630  0.2347 -1.4868
18036TIP3   OH275598   5.925   4.468   5.943 -0.4692  0.3735  0.2631
18036TIP3    H175599   5.856   4.418   5.984  0.5643 -1.3583 -0.0274
18036TIP3    H275600   6.006   4.434   5.981  0.4199 -0.1618 -1.9828
18037TIP3   OH275601   4.894   2.445  14.700 -0.3195  0.4225  0.0137
18037TIP3    H175602   4.913   2.538  14.715  3.0283 -0.2058  0.3498
18037TIP3    H275603   4.936   2.425  14.616 -2.0324 -0.5711 -0.6598
18038TIP3   OH275604   4.940   6.274   4.998  0.0559  0.5085  0.0412
18038TIP3    H175605   4.916   6.326   4.922 -1.5244 -0.3645 -0.1199
18038TIP3    H275606   4.924   6.184   4.972 -0.8557  0.2066  1.4760
18039TIP3   OH275607   6.109   2.987   2.044 -0.3802  0.0646 -0.5883
18039TIP3    H175608   6.170   3.051   2.008 -0.0913 -0.0614 -0.3172
18039TIP3    H275609   6.026   3.035   2.050 -0.1140  0.4867 -0.1770
18040TIP3   OH275610   5.915   5.255   2.683 -0.0398  0.3366  0.1827
18040TIP3    H175611   5.994   5.259   2.629 -0.2789 -1.6456 -0.4109
18040TIP3    H275612   5.948   5.238   2.772  0.2586  1.4125  0.2894
18041TIP3   OH275613   1.336   0.493  14.116 -0.4855  0.1426 -0.0860
18041TIP3    H175614   1.410   0.525  14.167  0.9314 -1.3299 -1.1100
18041TIP3    H275615   1.373   0.470  14.031 -1.6628 -2.5898  0.0342
18042TIP3   OH275616   6.186   6.190  14.973 -0.5087 -0.3861  0.2884
18042TIP3    H175617   6.186   6.137  14.893  0.4363 -0.8910  0.5996
18042TIP3    H275618   6.203   6.279  14.943  0.0903 -0.6103 -0.0565
18043TIP3   OH275619   4.387   4.655   1.634  0.7023 -0.0630 -0.2379
18043TIP3    H175620   4.308   4.614   1.668  1.2454 -0.4953  0.5409
18043TIP3    H275621   4.356   4.719   1.570 -0.4992  1.9394  2.1738
18044TIP3   OH275622   4.434   4.223   3.310 -0.0645  0.3393  0.1504
18044TIP3    H175623   4.464   4.214   3.401 -0.8519  0.3142  0.4148
18044TIP3    H275624   4.446   4.315   3.289 -0.0749  0.3869  0.3522
18045TIP3   OH275625   1.501   5.854  11.979 -0.0676  0.3890 -0.8079
18045TIP3    H175626   1.546   5.931  12.014 -0.1309  0.1870 -0.2788
18045TIP3    H275627   1.542   5.839  11.894  0.8716  0.2141 -0.3392
18046TIP3   OH275628   1.564   0.403   1.058  0.0230 -0.5126 -0.4716
18046TIP3    H175629   1.598   0.483   1.097 -0.5770 -0.3819 -0.2013
18046TIP3    H275630   1.566   0.339   1.129 -1.8925 -0.0390  0.0565
18047TIP3   OH275631   2.538   5.800  17.027 -0.3716 -0.1076 -0.5333
18047TIP3    H175632   2.471   5.867  17.012  1.0654  1.0715 -2.0470
18047TIP3    H275633   2.617   5.849  17.048  0.1049 -1.4579  0.9974
18048TIP3   OH275634   2.591   3.606   4.006  0.2493 -0.3735 -0.1202
18048TIP3    H175635   2.565   3.515   3.989  0.5690 -0.5266  0.1822
18048TIP3    H275636   2.642   3.601   4.086  1.1735 -0.0823 -0.6720
18049TIP3   OH275637   0.753   2.358  11.285 -0.7517 -0.1943 -0.0735
18049TIP3    H175638   0.772   2.329  11.196 -2.1880 -1.4399 -0.0083
18049TIP3    H275639   0.820   2.315  11.339 -1.1276 -1.1126 -0.3224
18050TIP3   OH275640   2.848   0.312   1.388 -0.5195 -0.1383  0.0938
18050TIP3    H175641   2.940   0.332   1.405 -0.4167  1.5897 -2.0191
18050TIP3    H275642   2.849   0.227   1.343 -0.0586 -0.4712  0.7155
18051TIP3   OH275643   6.578   1.683   0.102 -0.1975  0.3811 -0.4530
18051TIP3    H175644   6.669   1.663   0.082 -0.3277 -2.1449  1.0379
18051TIP3    H275645   6.582   1.761   0.158  1.0289  0.3498 -0.4698
18052TIP3   OH275646   2.176   3.878   0.341  0.7768 -0.1483 -0.0624
18052TIP3    H175647   2.113   3.853   0.273 -0.9341  0.3940  1.2470
18052TIP3    H275648   2.240   3.807   0.341  0.0705 -0.8277 -1.3112
18053TIP3   OH275649   4.897   3.069  11.412  0.0694  0.5945 -0.9974
18053TIP3    H175650   4.804   3.085  11.399 -0.2524 -0.7042 -0.3833
18053TIP3    H275651   4.920   3.127  11.485 -0.5109  0.1459 -0.4436
18054TIP3   OH275652   2.054   1.996   5.645 -0.3228 -0.0144 -0.0399
18054TIP3    H175653   1.991   1.945   5.696  0.0686  0.9929  1.5077
18054TIP3    H275654   2.000   2.063   5.602 -0.4132  0.4201  0.7329
18055TIP3   OH275655   6.828   1.245  12.125  0.4284  0.3970  0.0077
18055TIP3    H175656   6.919   1.229  12.151  1.3273  0.9732 -2.5371
18055TIP3    H275657   6.779   1.243  12.208  2.9260  1.4694  1.6319
18056TIP3   OH275658   0.842   2.781   3.352  0.6673 -0.0457  0.6539
18056TIP3    H175659   0.865   2.873   3.336 -2.0259  0.6269  0.1169
18056TIP3    H275660   0.862   2.737   3.270  1.8490  0.0541  0.8700
18057TIP3   OH275661   3.076   6.646  12.236 -0.4565 -0.6715  0.5361
18057TIP3    H175662   3.132   6.634  12.159  0.2992  0.2614  0.9215
18057TIP3    H275663   3.055   6.739  12.235 -0.6732 -0.7115  1.3171
18058TIP3   OH275664   6.564   0.180   4.205  0.7394 -0.1493 -0.1486
18058TIP3    H175665   6.615   0.190   4.125  0.2602 -0.0547 -0.4465
18058TIP3    H275666   6.533   0.089   4.203 -0.2800  0.1880 -0.6926
18059TIP3   OH275667   4.705   5.062  12.760  0.3179  0.2874  0.1776
18059TIP3    H175668   4.679   4.972  12.779  1.2559 -0.0131  0.0600
18059TIP3    H275669   4.784   5.054  12.706 -0.1836  1.1638 -0.7327
18060TIP3   OH275670   0.072   6.721  12.426 -0.3456 -0.1857 -0.3244
18060TIP3    H175671   0.160   6.705  12.459 -0.3310 -1.0378 -0.7581
18060TIP3    H275672   0.015   6.709  12.503 -0.0429  1.0835  0.1282
18061TIP3   OH275673   3.845   2.295   1.454  0.0876 -0.1805  0.4770
18061TIP3    H175674   3.795   2.376   1.438 -0.5696 -0.5336  0.7158
18061TIP3    H275675   3.903   2.317   1.527 -1.3741 -0.4451  1.7723
18062TIP3   OH275676   2.837   3.014   0.132  0.2010  0.5350 -0.3253
18062TIP3    H175677   2.856   2.920   0.134  0.7591  0.5490 -2.6632
18062TIP3    H275678   2.746   3.021   0.163 -0.2213 -0.8952 -1.1750
18063TIP3   OH275679   1.851   2.939   4.997 -0.1585  0.2297 -0.1108
18063TIP3    H175680   1.898   2.871   4.949 -0.7711 -0.0544 -0.3165
18063TIP3    H275681   1.876   3.021   4.953 -0.6244 -0.0166 -0.8665
18064TIP3   OH275682   0.623   2.315   5.620 -0.2910 -0.0150  0.4513
18064TIP3    H175683   0.659   2.226   5.612 -1.0538 -0.3679  0.8108
18064TIP3    H275684   0.536   2.309   5.581 -0.4597  0.5024  0.7432
18065TIP3   OH275685   6.582   3.400   5.412 -0.0144 -0.0374  0.0725
18065TIP3    H175686   6.516   3.434   5.473  0.2725  2.0812 -0.7300
18065TIP3    H275687   6.531   3.348   5.349 -0.7369  0.4515  0.2373
18066TIP3   OH275688   3.775   5.729  13.861  0.5964 -0.0283  0.5923
18066TIP3    H175689   3.685   5.697  13.871  0.5989 -0.0789  0.4566
18066TIP3    H275690   3.830   5.659  13.897  0.6623 -0.6863 -0.7352
18067TIP3   OH275691   5.934   5.922  14.822  0.1538 -0.1492  0.2442
18067TIP3    H175692   5.919   5.998  14.877  0.5692 -1.1747  1.8260
18067TIP3    H275693   6.028   5.906  14.828 -0.0404 -1.2557  0.5707
18068TIP3   OH275694   6.312   4.625   2.561  0.3978  0.1897 -0.0103
18068TIP3    H175695   6.254   4.663   2.627 -0.8287 -1.2163 -0.2015
18068TIP3    H275696   6.261   4.552   2.524  1.5442  0.1248 -1.5947
18069TIP3   OH275697   2.262   6.706   2.289 -0.0898  0.5042  0.1777
18069TIP3    H175698   2.195   6.774   2.295 -0.4416  0.0707  1.2860
18069TIP3    H275699   2.337   6.751   2.250 -1.0243  0.9774 -1.1928
18070TIP3   OH275700   0.780   1.365  14.746  0.6156 -0.1108 -0.0173
18070TIP3    H175701   0.744   1.384  14.659 -1.2591  2.2759  1.1571
18070TIP3    H275702   0.875   1.369  14.734  0.3950  1.1635 -1.7810
18071TIP3   OH275703   2.161   4.954  13.233 -0.6593 -0.0316 -0.3182
18071TIP3    H175704   2.233   5.005  13.196 -1.0347 -0.0619 -1.1008
18071TIP3    H275705   2.111   5.018  13.285 -0.7191  0.2375 -0.7062
18072TIP3   OH275706   6.039   4.279  13.985  0.2680  0.0986 -0.6401
18072TIP3    H175707   6.007   4.320  14.065 -1.5938 -1.3958 -0.5676
18072TIP3    H275708   6.119   4.233  14.012 -0.6075 -0.7976  0.4964
18073TIP3   OH275709   4.959   0.373  14.022  0.5298  0.2064 -0.6665
18073TIP3    H175710   4.915   0.296  14.058  2.0379  0.0987  1.1293
18073TIP3    H275711   4.967   0.355  13.928 -0.6470 -1.0391 -0.5589
18074TIP3   OH275712   0.678   5.665  14.395 -0.5145 -0.2854 -0.4003
18074TIP3    H175713   0.702   5.577  14.366  0.3143 -0.7265  1.4984
18074TIP3    H275714   0.626   5.652  14.474 -0.3600  0.9304 -0.0705
18075TIP3   OH275715   2.794   2.808  16.165 -0.4650  0.4332  0.3166
18075TIP3    H175716   2.880   2.802  16.206  0.5594 -0.0830 -1.7638
18075TIP3    H275717   2.799   2.886  16.110 -1.0675  0.0265 -0.3405
18076TIP3   OH275718   4.753   3.400  12.455  0.8398 -0.6008 -0.0459
18076TIP3    H175719   4.761   3.324  12.397  0.1702  0.3798 -1.4582
18076TIP3    H275720   4.844   3.420  12.480  1.2147 -0.6128 -1.3350
18077TIP3   OH275721   5.534   1.685  14.329  0.1020  0.1664 -0.4839
18077TIP3    H175722   5.583   1.712  14.252 -1.0989  0.8682 -1.0376
18077TIP3    H275723   5.530   1.590  14.322 -2.1862  0.3201 -2.7582
18078TIP3   OH275724   1.945   5.916   2.288  0.1656 -0.2066  0.3877
18078TIP3    H175725   1.891   5.958   2.220  0.6089 -0.5389 -0.1742
18078TIP3    H275726   1.989   5.844   2.243  1.8181  0.6195  0.6089
18079TIP3   OH275727   5.600   5.881   5.853 -0.7387 -0.1542 -0.7111
18079TIP3    H175728   5.532   5.848   5.794  0.3041 -0.8622 -1.5498
18079TIP3    H275729   5.674   5.902   5.796 -1.0887  3.0790 -0.1544
18080TIP3   OH275730   1.755   2.028   3.210  0.2753  0.8234 -0.6729
18080TIP3    H175731   1.715   2.008   3.295  2.6678  0.4795  0.4654
18080TIP3    H275732   1.730   1.956   3.153 -0.0415  0.1994  0.2404
18081TIP3   OH275733   6.579   4.535   4.757  0.3200 -0.6884  0.0053
18081TIP3    H175734   6.674   4.548   4.756  0.3678 -0.6720  1.7992
18081TIP3    H275735   6.549   4.581   4.836 -1.3462  0.2555 -1.1160
18082TIP3   OH275736   5.964   1.744  15.707 -0.2972 -0.3816  0.0252
18082TIP3    H175737   5.971   1.814  15.642  1.2206 -1.2187 -0.7681
18082TIP3    H275738   5.974   1.789  15.791  0.6033  0.3987 -0.4707
18083TIP3   OH275739   1.639   4.915  12.472 -0.1865  0.1960  1.0989
18083TIP3    H175740   1.586   4.992  12.493 -1.5144 -0.4751  0.3313
18083TIP3    H275741   1.589   4.841  12.506 -0.5970 -0.5987 -1.0829
18084TIP3   OH275742   1.497   6.130   4.568  0.1698  0.3437  0.3083
18084TIP3    H175743   1.449   6.167   4.493  0.7115 -2.3980 -1.5269
18084TIP3    H275744   1.588   6.130   4.539  0.4756 -0.2113  1.2444
18085TIP3   OH275745   4.756   5.041  11.123 -0.5015 -0.4240  0.1494
18085TIP3    H175746   4.844   5.077  11.115 -0.2007 -1.2529 -0.5402
18085TIP3    H275747   4.723   5.040  11.033 -0.2927 -2.2982  0.0514
18086TIP3   OH275748   2.468   1.657   2.321  0.0599  0.2641 -0.0433
18086TIP3    H175749   2.411   1.733   2.330  1.1796  0.9357  1.9902
18086TIP3    H275750   2.556   1.693   2.307  0.2884 -0.7240 -1.4294
18087TIP3   OH275751   4.556   3.058   3.412  0.2344  0.3383 -0.1103
18087TIP3    H175752   4.479   3.112   3.397 -0.3261 -0.2826  0.5222
18087TIP3    H275753   4.523   2.977   3.451  1.1263 -0.2255 -0.4746
18088TIP3   OH275754   1.237   2.287   2.392 -0.2736 -0.3087 -0.0994
18088TIP3    H175755   1.271   2.254   2.475 -1.2208  0.5442  0.6415
18088TIP3    H275756   1.225   2.208   2.339  1.5291 -0.7622  0.0849
18089TIP3   OH275757   4.705   4.495  11.739  0.0718  0.0587 -0.1169
18089TIP3    H175758   4.724   4.403  11.755  0.3406  0.3821  1.5890
18089TIP3    H275759   4.791   4.537  11.735 -0.0702  0.6026  1.6845
18090TIP3   OH275760   2.718   5.524   4.334  0.5801 -0.2571 -0.2849
18090TIP3    H175761   2.685   5.606   4.372 -1.3142 -0.9518 -0.3631
18090TIP3    H275762   2.813   5.531   4.344  0.4278  1.6283  0.3678
18091TIP3   OH275763   5.863   5.616  12.915  0.3060 -0.0410  0.5465
18091TIP3    H175764   5.803   5.550  12.950  0.1525 -0.6252 -0.7579
18091TIP3    H275765   5.949   5.576  12.920  0.2221 -0.3224 -0.1811
18092TIP3   OH275766   4.625   1.982   4.740  0.2620 -0.0508  0.4664
18092TIP3    H175767   4.555   2.018   4.795 -0.9178  0.1870 -1.1199
18092TIP3    H275768   4.643   1.896   4.778 -0.1611  0.3054  1.5214
18093TIP3   OH275769   1.578   2.629  10.848  0.1659 -0.2288  0.4606
18093TIP3    H175770   1.606   2.553  10.899 -0.8119 -0.3162  0.8976
18093TIP3    H275771   1.648   2.643  10.785  0.8359 -0.8663  1.0443
18094TIP3   OH275772   0.382   0.402  15.659  0.0570  1.0000 -0.2753
18094TIP3    H175773   0.345   0.466  15.598  0.4739 -0.1474 -1.7865
18094TIP3    H275774   0.469   0.436  15.679 -0.9037  2.5615  1.5473
18095TIP3   OH275775   2.903   4.355   0.375  0.1040 -0.2171 -0.4511
18095TIP3    H175776   2.837   4.357   0.305  0.6722 -1.1088 -1.0383
18095TIP3    H275777   2.946   4.270   0.365  0.7428 -0.0243  0.4888
18096TIP3   OH275778   3.920   6.307   2.543 -0.2872 -0.3373 -0.0202
18096TIP3    H175779   3.959   6.261   2.469 -0.3411 -0.5442  0.0785
18096TIP3    H275780   3.988   6.368   2.571 -1.0730  1.3806 -1.6656
18097TIP3   OH275781   3.227   2.355   4.939  0.3971  0.2079 -0.3209
18097TIP3    H175782   3.139   2.371   4.974  1.0685 -0.2487  1.7199
18097TIP3    H275783   3.212   2.309   4.857 -1.2863  1.4142 -0.7553
18098TIP3   OH275784   4.936   5.240  14.991 -0.1896  0.0450  0.1623
18098TIP3    H175785   5.018   5.232  15.041 -0.0560  0.3751 -0.0044
18098TIP3    H275786   4.944   5.175  14.921 -0.0422  0.1219  0.1069
18099TIP3   OH275787   3.007   5.919   0.408 -0.2348  0.2717 -0.5676
18099TIP3    H175788   2.967   5.833   0.422  1.0379 -0.3832 -0.8357
18099TIP3    H275789   3.051   5.938   0.491 -0.6178  0.7337 -0.4670
18100TIP3   OH275790   1.078   2.754  16.562  0.3812 -0.5787  0.0263
18100TIP3    H175791   1.095   2.703  16.483  0.8040 -0.3201 -0.0516
18100TIP3    H275792   0.988   2.786  16.550 -0.5028 -2.6162  0.8257
18101TIP3   OH275793   1.582   4.538   4.749 -0.3030  0.1835  0.6727
18101TIP3    H175794   1.547   4.591   4.820 -3.4617  0.5884 -0.9933
18101TIP3    H275795   1.617   4.601   4.686 -1.3897  0.1531  0.0115
18102TIP3   OH275796   4.526   1.767   2.066 -0.5392  0.0280 -0.4737
18102TIP3    H175797   4.539   1.842   2.008 -1.9159  1.8175  1.4070
18102TIP3    H275798   4.457   1.716   2.022 -0.8437  0.7971 -0.9091
18103TIP3   OH275799   0.280   2.530   2.786  0.4252  0.2504  0.2157
18103TIP3    H175800   0.308   2.609   2.739  3.5953 -0.6825  0.3032
18103TIP3    H275801   0.257   2.561   2.873  0.6747  1.1809 -0.0353
18104TIP3   OH275802   6.713   3.472   4.363  0.1072  0.6943 -0.1771
18104TIP3    H175803   6.645   3.434   4.308 -1.2754 -0.4265  2.1251
18104TIP3    H275804   6.789   3.479   4.306 -1.2089 -0.3678 -2.1881
18105TIP3   OH275805   2.596   4.356   2.810  0.2379 -0.5280 -0.2994
18105TIP3    H175806   2.608   4.261   2.817  1.1005 -0.3768  0.4852
18105TIP3    H275807   2.517   4.366   2.757  0.2492 -1.6809 -0.5724
18106TIP3   OH275808   5.920   5.845  10.945  0.1834  0.1117  0.5529
18106TIP3    H175809   5.972   5.858  10.866  1.2816  0.9391  1.3904
18106TIP3    H275810   5.839   5.893  10.929  0.3993  0.2704 -0.0694
18107TIP3   OH275811   3.846   2.030   1.539  0.0899 -0.9211  0.0870
18107TIP3    H175812   3.905   2.049   1.612 -0.5442  2.2385 -0.0807
18107TIP3    H275813   3.837   2.113   1.493 -1.4758 -2.2297 -2.1772
18108TIP3   OH275814   2.672   3.380   1.119  0.6832 -0.4361  0.1080
18108TIP3    H175815   2.735   3.371   1.048  0.4952 -1.6064  0.0603
18108TIP3    H275816   2.602   3.319   1.096 -2.6152  3.6727 -1.9967
18109TIP3   OH275817   1.260   5.323  13.502  0.2321 -0.3790  0.2835
18109TIP3    H175818   1.295   5.409  13.478  2.1905 -1.6094 -1.5055
18109TIP3    H275819   1.168   5.341  13.525  0.0701  1.9419 -1.7870
18110TIP3   OH275820   2.377   5.217  16.282 -0.0310  0.0655  0.0568
18110TIP3    H175821   2.407   5.234  16.192 -3.3409 -2.3307 -1.7212
18110TIP3    H275822   2.304   5.278  16.294 -1.2795 -1.3570  0.0133
18111TIP3   OH275823   1.941   3.350  14.210 -0.7909 -0.2561  0.0921
18111TIP3    H175824   2.003   3.373  14.141 -2.0357 -0.3974 -1.1036
18111TIP3    H275825   1.946   3.255  14.216 -2.0899 -0.4345 -1.2031
18112TIP3   OH275826   6.463   5.235   3.753 -0.3466  0.4095 -0.4706
18112TIP3    H175827   6.480   5.228   3.846  1.0324  0.6060 -0.6837
18112TIP3    H275828   6.534   5.290   3.719 -0.5827  0.0075 -1.6919
18113TIP3   OH275829   4.092   0.794  13.632  0.8033  0.4056  0.3635
18113TIP3    H175830   4.144   0.722  13.667  1.2708 -0.4141 -1.8294
18113TIP3    H275831   4.155   0.864  13.617  1.0556 -0.0526 -0.8716
18114TIP3   OH275832   2.417   2.179  10.613  0.1798  0.2555 -0.5106
18114TIP3    H175833   2.423   2.089  10.647  1.6806  0.0586 -1.1968
18114TIP3    H275834   2.360   2.224  10.675  0.2690 -0.8922  0.4587
18115TIP3   OH275835   1.941   0.522   6.619  0.3165 -0.0686 -0.1998
18115TIP3    H175836   1.873   0.532   6.686  0.2376  0.8715 -0.4059
18115TIP3    H275837   2.011   0.581   6.647  1.0621 -1.0288  0.0104
18116TIP3   OH275838   5.604   6.058  13.657  0.0520 -0.0761  0.0317
18116TIP3    H175839   5.543   6.104  13.714 -0.5740 -0.2606 -0.4737
18116TIP3    H275840   5.653   6.000  13.715  1.2245  1.5529  0.7778
18117TIP3   OH275841   0.109   6.436   0.633 -0.0651 -0.0998  0.0101
18117TIP3    H175842   0.140   6.508   0.687  0.2102 -1.1796  1.3575
18117TIP3    H275843   0.050   6.477   0.570  0.2139  1.3157  0.6250
18118TIP3   OH275844   6.323   5.233  11.289 -0.2391  0.0299 -0.2277
18118TIP3    H175845   6.310   5.139  11.273 -0.6457  0.5209 -3.3594
18118TIP3    H275846   6.254   5.256  11.351 -0.6686 -1.5700 -0.0536
18119TIP3   OH275847   0.740   4.161   0.387 -0.2723  0.0052 -0.0220
18119TIP3    H175848   0.787   4.165   0.304 -0.1804  0.4712  0.0510
18119TIP3    H275849   0.800   4.200   0.450 -0.7303  0.5434  0.0833
18120TIP3   OH275850   3.199   3.391  13.411  0.0181 -0.5672  0.3599
18120TIP3    H175851   3.244   3.403  13.327  0.5423 -1.8622  0.4232
18120TIP3    H275852   3.107   3.386  13.388  0.1758 -1.1411 -0.1890
18121TIP3   OH275853   5.358   5.322  17.138  0.1989  0.4128 -0.1763
18121TIP3    H175854   5.332   5.231  17.151 -0.8099  0.8995  1.4890
18121TIP3    H275855   5.332   5.366  17.219  0.0464  2.3292 -1.2168
18122TIP3   OH275856   6.543   6.399  15.476 -0.4178 -0.1545 -0.3833
18122TIP3    H175857   6.522   6.306  15.470  0.8306 -0.6237  1.6345
18122TIP3    H275858   6.458   6.443  15.475 -1.1084 -1.4366  0.2620
18123TIP3   OH275859   0.888   3.798  17.178 -0.5362 -0.2039 -0.4680
18123TIP3    H175860   0.977   3.768  17.196 -0.7826  0.3766  2.1272
18123TIP3    H275861   0.896   3.851  17.099  0.8813 -2.3787 -1.8881
18124TIP3   OH275862   0.578   3.309   0.772  0.1002 -0.3310  0.3841
18124TIP3    H175863   0.618   3.362   0.704 -1.1248 -0.9808 -0.8821
18124TIP3    H275864   0.484   3.310   0.753 -0.1054 -1.8562  1.0903
18125TIP3   OH275865   4.088   4.628  11.181 -0.5132 -0.6231  0.5925
18125TIP3    H175866   4.020   4.694  11.166  0.5452  0.3394 -0.1727
18125TIP3    H275867   4.075   4.599  11.271  0.1077  2.0134  1.6228
18126TIP3   OH275868   0.615   2.639   2.226  0.0441  0.0301  0.1470
18126TIP3    H175869   0.684   2.576   2.247  0.5106  0.5727  0.2531
18126TIP3    H275870   0.567   2.650   2.308 -0.5368 -0.7753 -0.0651
18127TIP3   OH275871   2.419   6.390   6.311  0.4751 -0.3913 -0.0949
18127TIP3    H175872   2.363   6.314   6.327  0.4120 -0.1126  1.1621
18127TIP3    H275873   2.508   6.355   6.310  0.4756 -0.4546  0.8647
18128TIP3   OH275874   0.436   2.636   5.056  0.1025 -0.5439 -0.2220
18128TIP3    H175875   0.440   2.640   5.152  1.2807 -0.2743 -0.2687
18128TIP3    H275876   0.344   2.621   5.037  0.2048 -3.5008  1.0485
18129TIP3   OH275877   2.837   2.906  15.619 -0.9325  0.4169  0.0257
18129TIP3    H175878   2.829   2.902  15.524 -0.7773 -0.5438  0.0430
18129TIP3    H275879   2.929   2.927  15.635 -1.1472  1.4597 -0.0368
18130TIP3   OH275880   5.311   5.052  14.767  0.2289  0.1708  0.7331
18130TIP3    H175881   5.312   5.144  14.793  0.2235  0.0567  1.1334
18130TIP3    H275882   5.403   5.025  14.772  0.1835  0.0580  0.9516
18131TIP3   OH275883   3.185   5.760   5.603 -0.0136 -0.0293 -0.0821
18131TIP3    H175884   3.095   5.726   5.606 -1.1790  2.7587  3.2937
18131TIP3    H275885   3.238   5.686   5.633 -1.9554 -0.3480  3.1867
18132TIP3   OH275886   2.191   6.287   1.402  0.1403 -0.0139 -0.4412
18132TIP3    H175887   2.245   6.329   1.469  1.8421 -0.6930 -1.3043
18132TIP3    H275888   2.195   6.193   1.423 -0.5000 -0.0918 -0.6591
18133TIP3   OH275889   1.688   6.338   0.272  0.7164  0.3131  0.2692
18133TIP3    H175890   1.727   6.382   0.197  0.2375  0.9298  0.3712
18133TIP3    H275891   1.616   6.288   0.235  0.0313  1.1855  0.3992
18134TIP3   OH275892   2.353   2.349  16.505 -0.4053 -0.0232 -0.3839
18134TIP3    H175893   2.310   2.301  16.576  1.0690 -0.4433  0.2660
18134TIP3    H275894   2.306   2.432  16.500  0.7050  0.9145  2.5256
18135TIP3   OH275895   6.636   3.328   2.265  0.3874  0.0348 -0.4113
18135TIP3    H175896   6.691   3.321   2.343  0.3576  0.2849 -0.3663
18135TIP3    H275897   6.675   3.268   2.202 -0.6284 -1.5763  0.4004
18136TIP3   OH275898   5.842   3.391  13.409 -0.2950 -0.8956 -0.4213
18136TIP3    H175899   5.907   3.456  13.380 -0.6944 -0.1821  0.2486
18136TIP3    H275900   5.797   3.365  13.328  1.4255 -2.1228 -1.0543
18137TIP3   OH275901   1.781   3.341  12.443  0.2580 -0.1100  0.4865
18137TIP3    H175902   1.749   3.258  12.408  0.7323  0.0567 -0.3741
18137TIP3    H275903   1.728   3.357  12.521  0.4463 -1.4359  0.9160
18138TIP3   OH275904   6.531   5.966  15.266 -0.4903  0.0795 -0.1900
18138TIP3    H175905   6.561   5.966  15.176  0.5531  1.3342  0.1290
18138TIP3    H275906   6.457   5.905  15.267  0.3946 -1.0522 -1.5636
18139TIP3   OH275907   1.904   4.331  15.300 -0.0603 -0.1364 -0.4264
18139TIP3    H175908   1.927   4.414  15.341  0.8059  1.4539 -3.7596
18139TIP3    H275909   1.829   4.352  15.244  0.4690 -1.4735 -1.6896
18140TIP3   OH275910   1.282   0.494  12.824  0.0269 -0.2508  0.5391
18140TIP3    H175911   1.244   0.471  12.740  0.6733 -0.8109  0.3949
18140TIP3    H275912   1.224   0.455  12.889  0.8745 -1.9632  0.3070
18141TIP3   OH275913   4.373   0.238   1.434 -0.1192 -0.1538 -0.0507
18141TIP3    H175914   4.283   0.210   1.453 -0.1235  0.7858  1.4582
18141TIP3    H275915   4.427   0.192   1.498  0.4729 -0.5692 -0.8325
18142TIP3   OH275916   3.255   3.283   2.618  0.1266  0.2479 -0.0016
18142TIP3    H175917   3.181   3.290   2.678  0.1857  2.6820 -0.1247
18142TIP3    H275918   3.259   3.190   2.597 -1.3864 -0.3247  1.8693
18143TIP3   OH275919   0.296   6.822  12.091 -0.1511  0.4313  0.2016
18143TIP3    H175920   0.368   6.759  12.082  0.5978  0.7089  3.0805
18143TIP3    H275921   0.338   6.904  12.118 -1.3030  1.6058 -1.3693
18144TIP3   OH275922   1.118   4.957   1.954  0.3637  0.2823  0.5659
18144TIP3    H175923   1.167   5.037   1.933 -1.4682  1.4326  0.4561
18144TIP3    H275924   1.172   4.913   2.020  2.1806  0.7727 -0.5168
18145TIP3   OH275925   4.006   6.789   4.187 -0.1447  0.1679  0.0987
18145TIP3    H175926   3.975   6.729   4.119  0.4715 -1.4499  1.1911
18145TIP3    H275927   4.101   6.776   4.189  0.4276  3.2029 -1.4590
18146TIP3   OH275928   0.079   1.310   6.553  0.2127  0.0975  0.0571
18146TIP3    H175929   0.096   1.403   6.567 -0.1791  0.4363 -1.4997
18146TIP3    H275930   0.044   1.278   6.636  0.4810  1.2999  0.6443
18147TIP3   OH275931   5.109   5.841  13.396 -0.6256  0.1115  0.8208
18147TIP3    H175932   5.104   5.745  13.402  0.4732 -0.0543 -0.5143
18147TIP3    H275933   5.202   5.859  13.381 -0.9006  1.3615  0.5439
18148TIP3   OH275934   1.437   6.049   3.273 -0.2440  0.6221  0.0953
18148TIP3    H175935   1.413   6.106   3.346 -1.5009  1.1625 -0.7192
18148TIP3    H275936   1.512   6.092   3.233  1.3016 -0.3412  1.7977
18149TIP3   OH275937   4.408   1.400   1.297  0.2774  0.0599  0.0203
18149TIP3    H175938   4.346   1.333   1.270  1.2131 -0.9539  0.3231
18149TIP3    H275939   4.484   1.351   1.329  1.7096  1.2392 -1.3972
18150TIP3   OH275940   4.639   6.017  11.045 -0.6092 -0.0617 -0.1069
18150TIP3    H175941   4.612   5.995  10.956 -0.0595 -0.0464 -0.2770
18150TIP3    H275942   4.644   6.113  11.045 -0.2770 -0.0786 -0.1571
18151TIP3   OH275943   5.143   1.998   1.850  0.5197  0.0995  0.2976
18151TIP3    H175944   5.152   2.083   1.892  1.8238  0.9218 -1.4744
18151TIP3    H275945   5.052   1.994   1.821  0.9302  1.9055 -1.4815
18152TIP3   OH275946   3.780   0.718  15.452  0.1205  0.0659 -0.1871
18152TIP3    H175947   3.847   0.655  15.426 -0.1617 -0.2678 -0.1191
18152TIP3    H275948   3.730   0.673  15.520 -0.9027 -0.1455 -1.0451
18153TIP3   OH275949   0.808   2.909  11.381  0.5616  0.4009  0.3524
18153TIP3    H175950   0.719   2.939  11.399  0.2701  0.1393 -0.5882
18153TIP3    H275951   0.799   2.814  11.368  0.6386  0.6022 -1.5703
18154TIP3   OH275952   3.994   0.093  17.132  0.2825  0.4642  0.1151
18154TIP3    H175953   3.954   0.174  17.101  1.9141  1.3723  0.2825
18154TIP3    H275954   3.938   0.064  17.204 -1.8289 -0.0328 -1.6255
18155TIP3   OH275955   2.873   4.750   5.824  0.4630  0.1072 -0.3656
18155TIP3    H175956   2.798   4.718   5.875  1.2082 -1.4363 -0.1653
18155TIP3    H275957   2.837   4.820   5.770 -1.2653 -0.9247 -0.6497
18156TIP3   OH275958   3.175   5.944  13.249 -0.5981 -0.0897  0.0502
18156TIP3    H175959   3.110   6.010  13.226 -0.3212  0.3199  0.4342
18156TIP3    H275960   3.124   5.865  13.265 -1.2549  0.7529  2.5391
18157TIP3   OH275961   1.907   1.515   5.428 -0.3066  0.2194  0.0157
18157TIP3    H175962   1.919   1.434   5.378 -0.4360 -0.6870  1.3846
18157TIP3    H275963   1.890   1.582   5.362  0.4775 -0.7370 -1.1987
18158TIP3   OH275964   4.700   0.938   5.076  0.1011 -0.4639  0.0861
18158TIP3    H175965   4.703   0.907   5.166  2.0789 -1.6953 -0.3525
18158TIP3    H275966   4.635   1.008   5.078  0.7492  0.1933  2.6697
18159TIP3   OH275967   2.529   2.120  15.049 -0.7756 -0.2741 -0.0952
18159TIP3    H175968   2.579   2.085  14.975  0.8720 -0.2873  0.9606
18159TIP3    H275969   2.591   2.119  15.122 -2.0314  0.7109  1.0410
18160TIP3   OH275970   2.168   3.586   4.762  0.0284 -0.3455  0.5850
18160TIP3    H175971   2.263   3.577   4.762  0.1566  0.6931  2.2445
18160TIP3    H275972   2.142   3.569   4.852 -1.1375  1.2444  0.5940
18161TIP3   OH275973   6.623   6.680  11.403  0.3726  0.0615  0.0250
18161TIP3    H175974   6.593   6.709  11.489  1.9151 -1.2968  1.0874
18161TIP3    H275975   6.700   6.733  11.385  0.7923 -0.5184  0.0816
18162TIP3   OH275976   3.498   3.321  12.517 -0.4204  0.1096  0.1653
18162TIP3    H175977   3.473   3.389  12.580 -0.9779  0.3080 -0.2676
18162TIP3    H275978   3.592   3.334  12.505 -0.0403 -0.7085  1.8759
18163TIP3   OH275979   4.727   3.149  13.428 -0.1082  0.2368 -0.0127
18163TIP3    H175980   4.636   3.126  13.409  0.5313 -1.4218 -1.3181
18163TIP3    H275981   4.747   3.103  13.510  0.4343 -2.1285 -1.3648
18164TIP3   OH275982   3.837   6.112   1.053  0.1900  0.2380  0.1785
18164TIP3    H175983   3.780   6.039   1.029  0.4067  0.4074 -0.9071
18164TIP3    H275984   3.826   6.121   1.148 -0.1220 -0.9610  0.2769
18165TIP3   OH275985   4.815   3.005  14.552  0.0270 -0.4840 -0.4131
18165TIP3    H175986   4.903   2.968  14.550  0.7379  1.0500 -3.3622
18165TIP3    H275987   4.774   2.974  14.471 -0.9622  1.3207 -0.6761
18166TIP3   OH275988   5.605   1.534   3.433 -0.3407 -0.4053  0.1898
18166TIP3    H175989   5.697   1.547   3.409 -0.6624 -0.7940 -1.3097
18166TIP3    H275990   5.597   1.577   3.519  1.3626 -0.8379  0.6103
18167TIP3   OH275991   2.041   5.338  15.689 -0.0554  0.3032 -0.1163
18167TIP3    H175992   2.099   5.301  15.622 -2.3321  0.7859 -2.5280
18167TIP3    H275993   1.986   5.400  15.641 -2.3568  0.1124  2.0572
18168TIP3   OH275994   5.583   1.396  15.167  0.1103 -0.2145 -0.6817
18168TIP3    H175995   5.673   1.421  15.190  0.1292 -0.0738 -0.9094
18168TIP3    H275996   5.548   1.472  15.121  0.1112 -0.5433 -1.2319
18169TIP3   OH275997   0.238   4.700  12.439  0.7376 -0.0649  1.3607
18169TIP3    H175998   0.185   4.742  12.507  0.4238  0.3990  0.8394
18169TIP3    H275999   0.290   4.771  12.402 -0.4029  0.0568 -0.0984
18170TIP3   OH276000   6.317   0.299   1.309  0.3014  0.4413 -0.3416
18170TIP3    H176001   6.369   0.322   1.232  1.6145  1.7244  0.8796
18170TIP3    H276002   6.359   0.345   1.381 -0.7622 -0.8925  1.2019
18171TIP3   OH276003   3.243   4.753  12.538 -0.2722 -0.3951 -0.0780
18171TIP3    H176004   3.330   4.775  12.503 -1.1802  1.2657 -1.4295
18171TIP3    H276005   3.261   4.706  12.619  1.8844  0.8199  0.2085
18172TIP3   OH276006   3.053   0.190   1.044 -0.1693  0.1204  0.6219
18172TIP3    H176007   3.061   0.095   1.033 -1.4189  0.1160 -0.4163
18172TIP3    H276008   3.091   0.226   0.964  0.1895  0.4987  0.9594
18173TIP3   OH276009   6.191   5.862  14.892  0.6107 -0.1013  0.2070
18173TIP3    H176010   6.262   5.925  14.880  0.2132  0.2877 -0.1789
18173TIP3    H276011   6.234   5.777  14.894  0.8501 -0.4154 -4.7925
18174TIP3   OH276012   3.812   6.061   1.321 -0.0931  0.6706 -0.1458
18174TIP3    H176013   3.893   6.068   1.371  1.3319 -2.9518 -1.6114
18174TIP3    H276014   3.749   6.025   1.382  1.0966 -1.8870 -0.3139
18175TIP3   OH276015   5.139   6.356  16.264 -0.3934  0.5581  0.6876
18175TIP3    H176016   5.093   6.405  16.331  0.5824  2.0827  0.2845
18175TIP3    H276017   5.077   6.287  16.237 -1.7026  1.4209  1.4230
18176TIP3   OH276018   5.578   6.017   5.203  0.0455 -0.1094 -0.5878
18176TIP3    H176019   5.641   6.051   5.139  0.9815 -0.6456  0.0108
18176TIP3    H276020   5.632   5.966   5.264 -0.8257  0.3814  0.6214
18177TIP3   OH276021   3.818   0.665   4.289  0.2449  0.1376 -0.1782
18177TIP3    H176022   3.777   0.703   4.367  0.6966 -0.6828  0.4720
18177TIP3    H276023   3.854   0.740   4.242  1.2628  0.5234  1.1657
18178TIP3   OH276024   1.691   1.915   5.211  0.5552 -0.0305 -0.1388
18178TIP3    H176025   1.748   1.977   5.166  0.4189 -0.7315 -1.2984
18178TIP3    H276026   1.637   1.969   5.269  2.0658  0.6891  0.6620
18179TIP3   OH276027   6.593   3.647   3.212  0.0628 -0.5378 -0.2992
18179TIP3    H176028   6.498   3.635   3.208  0.0958 -0.9920  0.2003
18179TIP3    H276029   6.627   3.591   3.142  0.0199 -1.1029  0.1242
18180TIP3   OH276030   6.054   4.064  13.306 -0.3167  0.3723  0.2970
18180TIP3    H176031   6.053   4.130  13.376  0.5415 -1.4879  2.1547
18180TIP3    H276032   6.134   4.014  13.321 -1.2589 -1.5366 -0.6397
18181TIP3   OH276033   0.338   5.299   4.954 -0.1486  0.0054 -0.0756
18181TIP3    H176034   0.386   5.244   4.892 -0.7870  0.2539 -0.8178
18181TIP3    H276035   0.279   5.239   4.999 -2.7461  0.3131 -2.7029
18182TIP3   OH276036   2.117   0.477  10.872 -0.1274 -0.6072 -0.8745
18182TIP3    H176037   2.207   0.447  10.885 -0.0608 -1.2754 -2.6043
18182TIP3    H276038   2.064   0.411  10.916  0.2080 -0.0398  0.4366
18183TIP3   OH276039   2.957   5.042  16.223  0.0187  0.4188 -0.4803
18183TIP3    H176040   2.932   4.965  16.173 -0.7216 -0.4851  1.2046
18183TIP3    H276041   2.905   5.113  16.185 -1.6645 -0.5361 -0.0775
18184TIP3   OH276042   2.357   4.414  16.726  0.0475 -0.4241  1.0920
18184TIP3    H176043   2.440   4.452  16.700  0.3146 -0.3969  1.9521
18184TIP3    H276044   2.319   4.380  16.645  0.5867  0.1530  0.5901
18185TIP3   OH276045   4.254   5.073  14.743  0.0406 -0.5569 -0.7026
18185TIP3    H176046   4.185   5.138  14.760  0.4534  0.3794 -2.4278
18185TIP3    H276047   4.322   5.122  14.697  1.4097 -1.7194  0.0249
18186TIP3   OH276048   4.142   3.842   2.075 -0.0047 -0.7406 -0.2528
18186TIP3    H176049   4.075   3.909   2.089 -1.1677 -1.0052 -3.6310
18186TIP3    H276050   4.218   3.891   2.043  0.9328 -0.6151  2.0105
18187TIP3   OH276051   2.965   5.681   2.384 -0.1030  0.3581  0.1801
18187TIP3    H176052   2.871   5.679   2.363 -0.0954  0.6885  0.1248
18187TIP3    H276053   2.979   5.766   2.424 -0.1268 -0.2601  1.5899
18188TIP3   OH276054   3.923   5.134  15.827 -0.2385 -0.3608  0.1099
18188TIP3    H176055   3.854   5.168  15.771  0.9281  2.1881  0.0858
18188TIP3    H276056   3.936   5.044  15.797 -3.0472 -0.7339 -0.2926
18189TIP3   OH276057   6.767   3.163   2.091 -0.5218 -0.3161  0.5177
18189TIP3    H176058   6.820   3.231   2.049  2.0457 -0.8611  2.5961
18189TIP3    H276059   6.767   3.090   2.029  1.7237 -0.4922  0.6456
18190TIP3   OH276060   0.092   6.202  15.935 -0.1471 -0.2438  0.3483
18190TIP3    H176061   0.013   6.192  15.987 -0.5012  1.8831  0.2987
18190TIP3    H276062   0.074   6.276  15.876  2.0850  0.8079  0.8378
18191TIP3   OH276063   4.979   6.599  11.441 -0.3914 -0.1564  0.4261
18191TIP3    H176064   4.942   6.513  11.420 -1.3944  0.6233 -1.1857
18191TIP3    H276065   5.013   6.633  11.358 -0.4770  1.2235  0.9161
18192TIP3   OH276066   0.276   1.344  10.845  0.3035 -0.0209 -0.2970
18192TIP3    H176067   0.317   1.399  10.779  1.0883  0.6368  0.7014
18192TIP3    H276068   0.247   1.404  10.913  0.3596 -0.7476  0.3929
18193TIP3   OH276069   4.671   5.753   4.118 -0.2619  0.4831  0.0146
18193TIP3    H176070   4.639   5.798   4.196 -0.4572  0.6536 -0.1630
18193TIP3    H276071   4.595   5.707   4.083  0.1634 -0.8506  0.7728
18194TIP3   OH276072   0.727   3.695  15.743 -0.0157  0.3939  0.8539
18194TIP3    H176073   0.796   3.628  15.742 -0.8991 -0.5424  1.1800
18194TIP3    H276074   0.674   3.673  15.819 -0.5103  1.2850  0.7732
18195TIP3   OH276075   1.311   3.355  14.515 -0.0708  0.4333  0.2093
18195TIP3    H176076   1.340   3.317  14.598  0.0115 -0.0997 -0.0557
18195TIP3    H276077   1.227   3.311  14.498 -1.1139  2.0159  1.0104
18196TIP3   OH276078   3.528   3.735  11.423  0.3920 -0.3446  0.1096
18196TIP3    H176079   3.456   3.758  11.481  0.9859 -0.0870  0.7585
18196TIP3    H276080   3.486   3.697  11.345 -0.5392  1.6228 -0.3949
18197TIP3   OH276081   2.536   0.021  12.497  0.2814 -0.1575  0.2745
18197TIP3    H176082   2.524   0.109  12.462 -0.1991 -0.3052  0.0653
18197TIP3    H276083   2.626   0.020  12.530  0.2301  0.4665  0.4329
18198TIP3   OH276084   5.401   5.998   1.217  0.3776  0.3147 -0.6367
18198TIP3    H176085   5.442   5.921   1.256  1.4154  1.7447  1.2453
18198TIP3    H276086   5.470   6.064   1.216 -0.7470  1.5331 -1.3234
18199TIP3   OH276087   2.091   3.423  13.973  0.1165  0.3259  0.4097
18199TIP3    H176088   2.130   3.337  13.956 -0.0657  0.2297  0.4702
18199TIP3    H276089   2.010   3.422  13.922  0.3017  0.6097  0.1067
18200TIP3   OH276090   5.867   1.849  15.393  0.1431  0.1017  0.4263
18200TIP3    H176091   5.785   1.800  15.391 -0.4871  1.0801 -2.1880
18200TIP3    H276092   5.933   1.786  15.367 -0.4912  0.2483 -1.7721
18201TIP3   OH276093   0.098   3.458  12.904 -0.0906 -0.2844  0.1995
18201TIP3    H176094   0.036   3.437  12.835 -0.9342  0.1369  0.8125
18201TIP3    H276095   0.079   3.549  12.927  1.0146 -0.0156  0.1347
18202TIP3   OH276096   2.606   5.459   6.148 -0.1396 -0.5790 -0.1743
18202TIP3    H176097   2.524   5.423   6.114 -0.1231  0.2166 -1.0989
18202TIP3    H276098   2.669   5.388   6.139 -0.7849 -1.2957  0.8193
18203TIP3   OH276099   4.353   1.459   4.315  0.2031 -0.1516  0.1014
18203TIP3    H176100   4.288   1.507   4.367  0.0885 -0.8788  0.6447
18203TIP3    H276101   4.432   1.461   4.369  0.2139 -0.5238  0.1010
18204TIP3   OH276102   6.280   3.020  12.329 -0.0196 -0.2986 -0.1375
18204TIP3    H176103   6.331   3.047  12.405  1.2309 -1.3136 -0.5859
18204TIP3    H276104   6.190   3.042  12.352  0.4356  0.2215  1.2628
18205TIP3   OH276105   3.648   2.358  11.625  0.4376  0.2245 -0.0308
18205TIP3    H176106   3.725   2.415  11.628 -0.3117  1.3857 -1.3803
18205TIP3    H276107   3.672   2.287  11.566  0.6626  0.2918 -0.0210
18206TIP3   OH276108   5.126   1.561  12.514  0.3634  0.1037 -1.2430
18206TIP3    H176109   5.132   1.470  12.487  2.5743  0.0290 -0.6803
18206TIP3    H276110   5.179   1.609  12.450 -0.9392  1.0434 -1.6541
18207TIP3   OH276111   3.196   0.942   2.856  0.1612  0.0852 -1.2094
18207TIP3    H176112   3.112   0.915   2.819 -0.0577 -0.6163 -0.2513
18207TIP3    H276113   3.254   0.867   2.841  0.1032 -0.1632 -0.2814
18208TIP3   OH276114   1.400   6.620   3.370 -0.2211  0.5915 -0.6395
18208TIP3    H176115   1.476   6.633   3.427  0.7643  0.2164 -1.8386
18208TIP3    H276116   1.331   6.590   3.430  0.2407  1.9461  0.6328
18209TIP3   OH276117   3.332   4.636   4.868  0.1140  0.1430  0.2565
18209TIP3    H176118   3.389   4.639   4.791  0.5351  0.9054  0.5840
18209TIP3    H276119   3.259   4.694   4.847  0.8253  1.3090  0.8693
18210TIP3   OH276120   4.984   0.706  16.885 -0.1980 -0.5453 -0.1634
18210TIP3    H176121   4.915   0.708  16.951  0.4105  0.2026  0.4589
18210TIP3    H276122   4.991   0.797  16.854  0.7509 -0.5419  0.0372
18211TIP3   OH276123   5.953   0.899  13.179 -0.0278 -0.0428 -0.3028
18211TIP3    H176124   5.984   0.872  13.093  0.2794 -2.1730  0.4295
18211TIP3    H276125   5.858   0.892  13.174  0.0559 -1.7336 -0.0248
18212TIP3   OH276126   4.233   4.879  16.361  0.5035 -0.2000  0.6180
18212TIP3    H176127   4.254   4.931  16.438  2.5668 -1.2874  0.8550
18212TIP3    H276128   4.175   4.810  16.393 -0.9498  0.9533  0.6000
18213TIP3   OH276129   4.069   0.111  13.796  0.1342 -0.3805 -0.3331
18213TIP3    H176130   4.066   0.025  13.838 -0.2084 -0.3622 -0.3114
18213TIP3    H276131   4.076   0.173  13.869 -2.7571 -0.1938 -0.0618
18214TIP3   OH276132   4.547   3.213   4.770  0.1266  0.5108  0.2349
18214TIP3    H176133   4.569   3.138   4.825  2.1527  1.6260  1.0536
18214TIP3    H276134   4.489   3.266   4.824 -0.1343  0.2415  0.2181
18215TIP3   OH276135   4.783   6.545  13.847  0.1018 -0.3982  0.0580
18215TIP3    H176136   4.816   6.456  13.864  0.1783 -0.3765  0.0232
18215TIP3    H276137   4.721   6.534  13.776  0.0304 -0.4403  0.1270
18216TIP3   OH276138   3.182   4.426  14.474  0.2755  0.4861  0.0207
18216TIP3    H176139   3.090   4.401  14.460  0.2416 -0.3073  1.3960
18216TIP3    H276140   3.229   4.387  14.401 -0.4759  0.8471 -0.6692
18217TIP3   OH276141   3.192   3.267  15.962  0.3099  0.3432  0.0351
18217TIP3    H176142   3.258   3.222  15.910 -0.6113  0.0478 -0.9118
18217TIP3    H276143   3.122   3.285  15.901 -1.1521 -0.6918  1.3140
18218TIP3   OH276144   0.599   4.788  13.895  0.2980  0.3522  1.0696
18218TIP3    H176145   0.586   4.812  13.986 -2.2019  0.7180  0.6957
18218TIP3    H276146   0.540   4.846  13.846  0.4951 -0.7984 -0.6479
18219TIP3   OH276147   5.540   2.186   4.077 -0.2902  0.8308 -0.8180
18219TIP3    H176148   5.475   2.115   4.080  2.1553 -1.5711  2.1091
18219TIP3    H276149   5.505   2.253   4.135 -0.8059  0.2248 -0.4180
18220TIP3   OH276150   0.673   4.463   3.389 -0.2707 -0.3883 -0.0194
18220TIP3    H176151   0.672   4.395   3.457  1.3719  1.0092  1.5019
18220TIP3    H276152   0.676   4.414   3.307  0.0162 -2.1681  0.9816
18221TIP3   OH276153   2.652   6.219   3.033 -0.0357  0.2235  0.5980
18221TIP3    H176154   2.558   6.223   3.012  0.1455 -0.4647 -0.4036
18221TIP3    H276155   2.687   6.155   2.972  0.7993 -0.8358  2.1372
18222TIP3   OH276156   2.465   1.174   5.432  0.2881 -0.1583  0.1860
18222TIP3    H176157   2.543   1.136   5.472 -0.2659  0.1524  1.6350
18222TIP3    H276158   2.441   1.112   5.363  1.4936 -0.5233  0.0625
18223TIP3   OH276159   0.894   2.245  11.861  0.0462  0.4077 -0.3401
18223TIP3    H176160   0.854   2.191  11.792  0.8683  0.7175 -1.0780
18223TIP3    H276161   0.837   2.321  11.866  1.2317  1.5288 -2.3893
18224TIP3   OH276162   0.318   0.411   2.682 -0.2027 -0.1852 -0.6675
18224TIP3    H176163   0.368   0.448   2.610 -0.7140  1.1903 -0.3466
18224TIP3    H276164   0.233   0.389   2.644 -0.0830 -0.5345 -0.7361
18225TIP3   OH276165   3.345   4.498   5.534  0.0141  0.6652 -0.4487
18225TIP3    H176166   3.377   4.435   5.470 -0.7368 -1.8662  1.4815
18225TIP3    H276167   3.305   4.568   5.482 -1.1863 -1.5800 -2.7699
18226TIP3   OH276168   1.174   5.249  17.184  0.2745 -0.0349 -0.1865
18226TIP3    H176169   1.186   5.314  17.114  0.0279  1.1682  0.8601
18226TIP3    H276170   1.186   5.165  17.140  1.1935  0.7260 -1.4620
18227TIP3   OH276171   5.324   5.700   1.604  0.3513  0.0112  0.0759
18227TIP3    H176172   5.406   5.661   1.573  0.4150  1.3096 -1.4732
18227TIP3    H276173   5.255   5.650   1.559  0.4114  1.0809 -1.2554
18228TIP3   OH276174   5.514   3.061  12.878  0.2457  0.0851 -0.3617
18228TIP3    H176175   5.488   3.005  12.804 -0.1054  0.7323 -0.7347
18228TIP3    H276176   5.432   3.098  12.910  0.0775 -1.8932  1.7974
18229TIP3   OH276177   2.370   1.984  14.536 -0.3188  0.4428  0.5589
18229TIP3    H176178   2.364   1.888  14.533  1.3165  0.3438 -0.5490
18229TIP3    H276179   2.410   2.002  14.622 -0.2625  0.1137  0.6035
18230TIP3   OH276180   1.266   1.854  13.157  0.1724 -0.1244  0.0761
18230TIP3    H176181   1.345   1.845  13.210 -0.2470  0.3876  0.8181
18230TIP3    H276182   1.203   1.796  13.200  0.1040 -0.4325 -0.4360
18231TIP3   OH276183   0.797   0.316   3.430 -0.5282  0.5228 -0.1571
18231TIP3    H176184   0.736   0.292   3.501 -0.0988  0.3384  0.1532
18231TIP3    H276185   0.744   0.310   3.350 -1.2392  1.5179  0.2192
18232TIP3   OH276186   3.983   2.528  16.362  0.0125  0.4519 -0.2117
18232TIP3    H176187   3.916   2.465  16.391  0.5836  0.4687  1.2466
18232TIP3    H276188   4.025   2.485  16.288 -1.1015  0.1171 -0.6755
18233TIP3   OH276189   5.564   0.693   3.970  0.4939 -0.1233  0.2565
18233TIP3    H176190   5.508   0.646   4.032  0.8629  1.2034  1.6357
18233TIP3    H276191   5.653   0.678   4.001  0.7816 -0.4357 -0.6715
18234TIP3   OH276192   5.825   5.464  12.400 -0.1121 -0.1846 -0.0627
18234TIP3    H176193   5.825   5.393  12.465  1.1882 -0.2816 -0.1525
18234TIP3    H276194   5.853   5.541  12.450 -0.6144  0.0817 -0.1804
18235TIP3   OH276195   2.605   0.947   2.913  0.4210 -0.1311 -0.0646
18235TIP3    H176196   2.511   0.961   2.919  0.2482 -0.5305 -1.5501
18235TIP3    H276197   2.617   0.896   2.833  2.0890  1.7632 -1.1210
18236TIP3   OH276198   3.044   6.357   5.020  0.0022 -0.6072  0.8411
18236TIP3    H176199   3.117   6.341   4.960  0.4651  2.0408  0.5569
18236TIP3    H276200   3.062   6.303   5.096  1.6302 -0.9106  0.2785
18237TIP3   OH276201   5.676   1.790  14.573  0.5306  0.1491  0.1140
18237TIP3    H176202   5.655   1.750  14.489  1.2005  2.3047 -1.1607
18237TIP3    H276203   5.726   1.723  14.620 -0.0708 -1.1894 -1.0702
18238TIP3   OH276204   4.342   2.358   3.115  0.0092  0.3365 -0.2385
18238TIP3    H176205   4.347   2.292   3.045 -2.1166  0.4870 -0.5893
18238TIP3    H276206   4.349   2.308   3.196 -0.0137 -0.1364 -0.5250
18239TIP3   OH276207   5.712   6.707  11.650  0.1726  0.1072  0.0114
18239TIP3    H176208   5.735   6.680  11.562  0.5149  1.6346 -0.4057
18239TIP3    H276209   5.662   6.788  11.638 -1.6298 -0.7720  1.1302
18240TIP3   OH276210   0.161   3.387  13.571  0.3915  0.0018  0.0393
18240TIP3    H176211   0.164   3.358  13.662 -0.0359 -0.6095 -0.1383
18240TIP3    H276212   0.247   3.424  13.555  0.9614 -1.1860  0.2706
18241TIP3   OH276213   1.693   3.406  16.867  0.0101  0.0118 -0.8160
18241TIP3    H176214   1.720   3.484  16.917 -0.8528 -0.2057  0.0373
18241TIP3    H276215   1.750   3.336  16.899 -0.2888 -0.0450 -0.3972
18242TIP3   OH276216   4.081   4.139   1.399 -0.1074 -0.0870 -0.1419
18242TIP3    H176217   4.122   4.206   1.453 -0.6488 -0.4675  0.7547
18242TIP3    H276218   4.054   4.071   1.460 -1.6642 -0.0540 -0.7421
18243TIP3   OH276219   2.234   5.386  13.174  0.4163 -0.0182 -0.1437
18243TIP3    H176220   2.273   5.366  13.088 -0.5942 -1.4250 -0.3083
18243TIP3    H276221   2.309   5.411  13.228  0.9229  2.4381 -1.7942
18244TIP3   OH276222   4.331   4.053   1.228  0.0957  0.2502  0.4791
18244TIP3    H176223   4.240   4.065   1.256 -0.4608 -1.5226 -0.3913
18244TIP3    H276224   4.372   4.138   1.241 -1.9985  1.4232 -0.1832
18245TIP3   OH276225   4.764   1.047  11.577 -0.1794 -0.1863  0.4113
18245TIP3    H176226   4.711   1.118  11.612 -1.2535 -0.9453  0.3723
18245TIP3    H276227   4.741   1.044  11.484  0.3571 -0.1664  0.2735
18246TIP3   OH276228   2.183   4.532  14.636  0.1814  0.5835  0.4749
18246TIP3    H176229   2.121   4.508  14.567  3.1265 -0.7771 -1.9434
18246TIP3    H276230   2.222   4.449  14.663  0.0950  1.2638  2.8671
18247TIP3   OH276231   1.518   1.297  11.100 -0.7158  0.2187 -0.5385
18247TIP3    H176232   1.570   1.234  11.050 -1.0263  0.7316 -1.5366
18247TIP3    H276233   1.427   1.271  11.084 -0.8105 -0.4998  0.9645
18248TIP3   OH276234   4.671   2.413   3.349  0.1697 -0.0512  0.4692
18248TIP3    H176235   4.615   2.440   3.422 -0.2245  0.9033 -0.1628
18248TIP3    H276236   4.653   2.477   3.281  0.9852 -0.5759 -0.2541
18249TIP3   OH276237   0.114   6.117   0.126  0.1374  0.4789  0.1618
18249TIP3    H176238   0.122   6.025   0.151 -0.4905  0.8109  1.7476
18249TIP3    H276239   0.152   6.165   0.199  1.7792  1.4962 -1.2709
18250TIP3   OH276240   6.828   5.639  13.443 -0.4412  0.2381  0.5180
18250TIP3    H176241   6.870   5.703  13.385  1.0601 -0.2241  1.0449
18250TIP3    H276242   6.807   5.689  13.522 -2.2367  0.8022 -0.2609
18251TIP3   OH276243   5.727   4.658   1.679 -0.1960  0.1153 -0.3871
18251TIP3    H176244   5.701   4.574   1.716  1.6909 -0.0363  0.7523
18251TIP3    H276245   5.646   4.708   1.671 -1.1209 -1.1858  0.5745
18252TIP3   OH276246   5.963   0.525   4.784 -0.0803 -0.1838 -0.4650
18252TIP3    H176247   5.956   0.617   4.811 -0.9911 -0.2314 -0.5084
18252TIP3    H276248   6.039   0.492   4.832 -0.1376  0.4218  0.0627
18253TIP3   OH276249   1.012   3.039   1.796  0.1457 -0.4098 -0.2629
18253TIP3    H176250   1.101   3.065   1.817  0.2487 -0.6873 -0.3524
18253TIP3    H276251   0.983   2.987   1.871 -0.6546  1.3296  0.6980
18254TIP3   OH276252   0.289   6.774  11.346  0.1172 -0.4546  0.3491
18254TIP3    H176253   0.298   6.681  11.369  0.3179 -0.3390  0.7569
18254TIP3    H276254   0.241   6.812  11.420 -1.6834 -0.5934 -0.6944
18255TIP3   OH276255   3.517   5.713   3.980 -0.2521  0.0710  0.2090
18255TIP3    H176256   3.590   5.747   3.928  0.9260  0.1676  1.8123
18255TIP3    H276257   3.441   5.716   3.922  0.7988  1.0120 -1.1725
18256TIP3   OH276258   0.725   5.971  13.720  0.0229 -0.0459  0.6747
18256TIP3    H176259   0.663   5.974  13.793  0.3888 -0.6686  1.0178
18256TIP3    H276260   0.692   5.899  13.665  0.1470 -0.0336  0.5848
18257TIP3   OH276261   0.292   5.715  13.610  0.3359 -0.0204 -0.2584
18257TIP3    H176262   0.366   5.683  13.661  1.1797  2.8439  0.5430
18257TIP3    H276263   0.309   5.809  13.600 -1.5781  0.1583 -2.8864
18258TIP3   OH276264   1.636   6.409   2.525 -0.2351  0.0757 -0.4608
18258TIP3    H176265   1.623   6.424   2.431  0.4325 -0.4922 -0.6478
18258TIP3    H276266   1.575   6.470   2.567 -1.3568 -0.4557 -1.2737
18259TIP3   OH276267   0.257   5.766  10.792  0.2157 -0.0287  0.0911
18259TIP3    H176268   0.350   5.780  10.808  0.5853 -2.3102  0.2418
18259TIP3    H276269   0.220   5.854  10.786  2.2215  0.9199  0.8718
18260TIP3   OH276270   4.577   0.697   2.476  0.1419 -0.1500 -0.0578
18260TIP3    H176271   4.502   0.669   2.424 -0.2705 -0.9040  0.9150
18260TIP3    H276272   4.599   0.620   2.529  1.6131  0.0483 -0.3323
18261TIP3   OH276273   1.202   6.018   1.367 -0.1872  0.0995  0.2592
18261TIP3    H176274   1.209   6.102   1.322  1.2000  1.1378  2.2474
18261TIP3    H276275   1.282   5.972   1.344  0.0090  0.1823  0.7578
18262TIP3   OH276276   6.406   0.530   5.736  0.0465 -0.3896 -0.0461
18262TIP3    H176277   6.488   0.562   5.774 -1.2916  0.4477  2.3438
18262TIP3    H276278   6.348   0.606   5.734 -1.4422 -1.4548  0.6260
18263TIP3   OH276279   0.819   6.689   4.653 -0.0066 -0.2592  0.2092
18263TIP3    H176280   0.864   6.642   4.583  0.1256  0.5560 -0.2690
18263TIP3    H276281   0.791   6.621   4.714 -0.7693 -1.0422 -0.9987
18264TIP3   OH276282   0.014   1.605  11.258  0.3950  0.5236  0.0088
18264TIP3    H176283   0.021   1.700  11.262  1.7003  0.4251  0.6484
18264TIP3    H276284  -0.051   1.582  11.324  1.0092  0.8840  0.7435
18265TIP3   OH276285   2.637   6.340  10.861  0.0286  0.0142 -0.2605
18265TIP3    H176286   2.621   6.341  10.766  1.5319  0.6624 -0.5430
18265TIP3    H276287   2.701   6.410  10.874  2.8133 -2.4833  0.6463
18266TIP3   OH276288   3.767   1.182   2.789  0.4633 -0.2810 -0.9454
18266TIP3    H176289   3.846   1.135   2.814  0.9272  0.2937 -1.3244
18266TIP3    H276290   3.734   1.135   2.712  0.2052 -0.7615 -0.5498
18267TIP3   OH276291   6.781   5.122   5.347  0.4228  0.0196 -0.4364
18267TIP3    H176292   6.689   5.149   5.352  0.4218  0.0706 -0.7354
18267TIP3    H276293   6.787   5.049   5.409  0.3932  0.5991  0.2610
18268TIP3   OH276294   4.969   6.568   6.808  0.4592  0.3234 -0.4261
18268TIP3    H176295   5.003   6.605   6.727  0.4724 -0.7984 -0.9477
18268TIP3    H276296   4.928   6.642   6.853  0.2919  0.9254 -1.5418
18269TIP3   OH276297   2.501   2.186   4.285  0.1912 -0.4351 -0.0301
18269TIP3    H176298   2.508   2.090   4.292  1.4060 -0.4476 -1.1632
18269TIP3    H276299   2.557   2.209   4.211  2.4025  1.4731  2.0573
18270TIP3   OH276300   6.700   2.326  16.054 -0.2451  0.1937  0.3878
18270TIP3    H176301   6.773   2.332  15.993  0.9386  1.1521  1.8213
18270TIP3    H276302   6.700   2.233  16.081  3.3071  0.8109  3.5158
18271TIP3   OH276303   2.458   1.381   4.901  0.9679 -0.5133  0.7142
18271TIP3    H176304   2.439   1.288   4.912  0.6951 -0.6487 -0.6149
18271TIP3    H276305   2.400   1.425   4.962  0.5695 -1.1925  0.8369
18272TIP3   OH276306   5.683   4.276   3.845  0.4037 -0.3922  0.2012
18272TIP3    H176307   5.600   4.250   3.805 -0.1555 -0.3153  1.2682
18272TIP3    H276308   5.730   4.194   3.859  0.4488 -0.4493 -0.2646
18273TIP3   OH276309   4.099   0.553  13.920 -0.4458 -0.6354 -0.0841
18273TIP3    H176310   4.147   0.521  13.844 -0.1061 -0.7314  0.1658
18273TIP3    H276311   4.134   0.502  13.993 -1.1850 -0.9579  0.0528
18274TIP3   OH276312   4.556   2.898  16.514 -0.9624  0.7202 -0.3397
18274TIP3    H176313   4.499   2.824  16.538 -1.2952  1.3093  0.7685
18274TIP3    H276314   4.520   2.929  16.431 -1.6988  0.5096 -0.1132
18275TIP3   OH276315   1.101   6.287  13.395  0.4280 -0.0820  0.5325
18275TIP3    H176316   1.035   6.239  13.346  0.8478 -0.7024  0.5581
18275TIP3    H276317   1.096   6.377  13.362 -0.7876  0.0108  0.9119
18276TIP3   OH276318   4.135   3.386  11.786  0.3784  0.2016 -0.0056
18276TIP3    H176319   4.230   3.370  11.785  0.5284  0.9563  0.8000
18276TIP3    H276320   4.127   3.478  11.809 -0.5699 -0.0436  0.6979
18277TIP3   OH276321   0.045   3.132  14.118  0.0776  0.0817  0.1382
18277TIP3    H176322   0.032   3.041  14.092 -1.4058  0.8271 -1.9891
18277TIP3    H276323  -0.038   3.158  14.157 -1.3450  1.7640 -3.5558
18278TIP3   OH276324   5.765   5.270   0.121  0.3665  0.5736  0.4150
18278TIP3    H176325   5.678   5.233   0.137 -0.3386  0.7455 -2.4484
18278TIP3    H276326   5.822   5.226   0.184 -0.9466 -3.2591 -0.7365
18279TIP3   OH276327   0.716   1.721  10.848  0.1607  0.0218 -0.2916
18279TIP3    H176328   0.636   1.764  10.880 -0.9657 -2.2305  0.0791
18279TIP3    H276329   0.685   1.644  10.800  2.0703  0.0982 -1.7763
18280TIP3   OH276330   3.986   3.345  12.063  0.1314  0.0681  0.3984
18280TIP3    H176331   3.932   3.399  12.006 -2.5999 -2.1769  0.6345
18280TIP3    H276332   4.027   3.281  12.005  1.4343  0.8540  0.4106
18281TIP3   OH276333   2.207   1.350  11.824  0.8452  0.2174  0.9805
18281TIP3    H176334   2.219   1.445  11.828 -0.3178  0.3387  2.5423
18281TIP3    H276335   2.257   1.317  11.899  1.5669 -0.4594  0.2199
18282TIP3   OH276336   1.067   4.461   1.645  0.1407 -0.2396  0.1323
18282TIP3    H176337   0.979   4.469   1.680 -0.0189  1.0043 -0.4844
18282TIP3    H276338   1.082   4.367   1.636 -0.9441 -0.4668  0.6789
18283TIP3   OH276339   6.183   4.183  14.488 -0.1619 -0.3520 -0.5261
18283TIP3    H176340   6.225   4.269  14.482 -1.1735  0.2957  1.2018
18283TIP3    H276341   6.236   4.128  14.430  1.9758  0.8506  0.1518
18284TIP3   OH276342   2.414   6.807   4.308 -0.0220 -0.1534  0.7289
18284TIP3    H176343   2.479   6.806   4.379  2.2903 -0.4054 -1.2356
18284TIP3    H276344   2.392   6.715   4.295  0.3890 -0.2183  0.4519
18285TIP3   OH276345   4.445   3.180   2.578 -0.3359 -0.5788  0.0970
18285TIP3    H176346   4.454   3.142   2.665  1.2389  0.2672  0.3325
18285TIP3    H276347   4.507   3.132   2.523  1.4023  1.3102  0.3137
18286TIP3   OH276348   4.281   2.125  12.653  0.2302  0.6062  0.4780
18286TIP3    H176349   4.253   2.073  12.578  1.6695 -0.6722  0.7595
18286TIP3    H276350   4.377   2.124  12.648  0.3505  3.7766  0.1764
18287TIP3   OH276351   3.941   4.178   4.395  0.1837 -0.2328  0.2570
18287TIP3    H176352   3.856   4.206   4.429  0.2999 -0.8861  1.1238
18287TIP3    H276353   3.934   4.190   4.300 -1.5853 -2.1079  0.0765
18288TIP3   OH276354   0.213   0.309   5.997  0.2865  0.1478 -0.2858
18288TIP3    H176355   0.259   0.286   6.078  0.5547 -0.7216 -0.6748
18288TIP3    H276356   0.137   0.358   6.026  0.5722  0.1555  0.4745
18289TIP3   OH276357   1.130   3.473   2.394  0.0021  0.1792 -0.4693
18289TIP3    H176358   1.224   3.476   2.409  0.0215  0.3126 -0.6127
18289TIP3    H276359   1.106   3.564   2.377 -0.0942  0.0928 -0.7901
18290TIP3   OH276360   2.103   5.143   1.173  0.6125  0.2449  0.7153
18290TIP3    H176361   2.184   5.192   1.181  1.5762 -1.5088  2.5701
18290TIP3    H276362   2.072   5.131   1.262 -1.6825  0.7539  0.0659
18291TIP3   OH276363   4.188   0.460   1.087 -0.0088  0.1821  0.4141
18291TIP3    H176364   4.129   0.481   1.159  0.2327  1.1216  0.3599
18291TIP3    H276365   4.191   0.365   1.084 -1.5397  0.1146  0.3984
18292TIP3   OH276366   1.343   5.226   3.535  0.2910 -0.0954  0.1370
18292TIP3    H176367   1.410   5.278   3.579  0.8635 -0.5643 -0.1549
18292TIP3    H276368   1.376   5.217   3.445 -1.4949  1.9846 -0.8117
18293TIP3   OH276369   2.984   0.232   4.229 -0.3610 -0.2029 -0.6625
18293TIP3    H176370   3.027   0.184   4.159  0.4448  1.4249 -1.3328
18293TIP3    H276371   3.051   0.243   4.296 -0.5641 -0.0614 -0.4786
18294TIP3   OH276372   5.518   4.129  14.031 -0.3318 -0.0515 -0.6572
18294TIP3    H176373   5.541   4.117  14.124 -1.1476 -0.7149 -0.5301
18294TIP3    H276374   5.569   4.205  14.004  1.9833 -1.3935 -0.3762
18295TIP3   OH276375   5.039   5.155  16.678 -0.1668  0.2767 -0.1188
18295TIP3    H176376   5.099   5.088  16.710 -0.2832 -0.1918 -0.8656
18295TIP3    H276377   4.956   5.135  16.721 -0.2828 -0.2544 -0.5778
18296TIP3   OH276378   1.177   1.441  15.387 -0.1548  0.2280 -0.0186
18296TIP3    H176379   1.083   1.422  15.389 -0.4829  1.1093 -2.8466
18296TIP3    H276380   1.218   1.355  15.396 -1.2880 -0.4237 -0.7735
18297TIP3   OH276381   3.623   6.733  12.196 -0.4388 -0.3263  0.1699
18297TIP3    H176382   3.686   6.732  12.267  1.2178 -2.0303 -1.2258
18297TIP3    H276383   3.565   6.658  12.214 -2.8813  1.8344  2.0143
18298TIP3   OH276384   6.004   3.042  13.171 -0.3327  1.2699 -0.5850
18298TIP3    H176385   5.927   3.056  13.116  0.3428  1.4674 -1.5109
18298TIP3    H276386   5.980   3.077  13.257 -0.9305  2.2211 -1.1273
18299TIP3   OH276387   5.702   5.885  10.116 -0.6662 -0.0062  0.0178
18299TIP3    H176388   5.631   5.944  10.140  1.1698  1.2194  3.0473
18299TIP3    H276389   5.694   5.812  10.177 -0.7733 -1.1327 -1.3097
18300TIP3   OH276390   3.054   5.626   6.464  0.3173  0.3873  0.3864
18300TIP3    H176391   3.069   5.699   6.524  1.8494 -0.5809  1.2415
18300TIP3    H276392   3.142   5.601   6.435 -0.1139 -1.4731  0.5740
18301TIP3   OH276393   1.698   0.635  11.530  0.1486  0.3749  0.2095
18301TIP3    H176394   1.635   0.603  11.465  1.2770 -0.3319 -0.5813
18301TIP3    H276395   1.697   0.730  11.519  0.0413  0.2951 -0.5971
18302TIP3   OH276396   2.152   2.305   0.160 -0.2095 -0.1081  0.0631
18302TIP3    H176397   2.087   2.256   0.110 -0.9896 -0.4625  1.3652
18302TIP3    H276398   2.201   2.237   0.207 -0.3006  0.2737  0.7144
18303TIP3   OH276399   0.021   5.311   4.210  0.4495  0.5906  0.3939
18303TIP3    H176400   0.059   5.323   4.123  0.2499  0.7493  0.3276
18303TIP3    H276401  -0.051   5.374   4.214 -1.1780 -1.1396 -0.2731
18304TIP3   OH276402   6.359   2.790   4.373 -0.2489 -0.5069  0.3695
18304TIP3    H176403   6.394   2.787   4.284 -0.2183 -0.0892  0.3621
18304TIP3    H276404   6.392   2.873   4.409 -0.8703 -0.3148  0.5140
18305TIP3   OH276405   5.850   0.243   4.741  0.1554 -0.8536 -0.2512
18305TIP3    H176406   5.896   0.160   4.728  1.8069 -0.2522  1.3516
18305TIP3    H276407   5.919   0.307   4.751 -1.0519  0.3071  1.1074
18306TIP3   OH276408   5.988   1.067   0.548  0.7279 -0.6997 -0.2632
18306TIP3    H176409   5.961   1.156   0.569  0.2275 -0.5110 -1.6296
18306TIP3    H276410   6.082   1.065   0.566  0.3473 -0.6154  2.0654
18307TIP3   OH276411   2.647   0.310  14.727 -0.0010 -0.6551 -0.4488
18307TIP3    H176412   2.711   0.381  14.734 -0.7183 -0.1536  2.3661
18307TIP3    H276413   2.577   0.346  14.672  0.1703  0.4610  0.0247
18308TIP3   OH276414   4.807   4.690   5.951  0.6134  0.9122 -0.0018
18308TIP3    H176415   4.888   4.679   5.902  1.0288  2.5994  0.2201
18308TIP3    H276416   4.744   4.631   5.909  1.7965 -0.0108 -0.5161
18309TIP3   OH276417   5.301   6.187  12.774 -0.5806  0.0422 -0.0559
18309TIP3    H176418   5.334   6.273  12.747 -2.0920  0.5798 -0.2950
18309TIP3    H276419   5.329   6.128  12.704 -0.1649  0.4801 -0.2700
18310TIP3   OH276420   6.650   1.949   1.689 -0.3851 -0.1992 -0.0215
18310TIP3    H176421   6.567   1.910   1.715 -0.9634  0.2865 -1.0774
18310TIP3    H276422   6.627   2.038   1.662  0.5618  0.1103  0.1538
18311TIP3   OH276423   4.670   0.594   0.076 -0.1070  0.2534  0.5308
18311TIP3    H176424   4.711   0.508   0.068 -1.8693 -0.7184  1.3199
18311TIP3    H276425   4.635   0.595   0.166 -2.4973  0.6458 -0.3327
18312TIP3   OH276426   1.705   6.104  16.673  0.4013  1.0457  0.5681
18312TIP3    H176427   1.719   6.119  16.766 -2.5524 -0.3378  1.3411
18312TIP3    H276428   1.620   6.143  16.654  0.8197  1.0733 -1.4954
18313TIP3   OH276429   6.781   5.239  14.138 -0.5848 -0.1793 -0.5512
18313TIP3    H176430   6.722   5.313  14.124  0.2219  0.4544 -0.6448
18313TIP3    H276431   6.769   5.216  14.230  0.4931  1.2500 -0.0259
18314TIP3   OH276432   0.008   0.282   5.748 -0.0306  0.0624  0.4037
18314TIP3    H176433   0.072   0.268   5.818 -0.9470  0.8079  1.4453
18314TIP3    H276434  -0.017   0.194   5.719  0.2803 -0.2630  1.1084
18315TIP3   OH276435   5.806   4.973   1.913  0.1568 -0.2627 -0.1958
18315TIP3    H176436   5.717   4.966   1.877  0.8826 -1.3742 -1.9027
18315TIP3    H276437   5.860   5.000   1.839  1.2052  0.8219  0.9201
18316TIP3   OH276438   2.501   1.988  13.335 -0.0120  0.3329  0.3468
18316TIP3    H176439   2.448   1.994  13.414 -0.6483  1.3271 -0.1338
18316TIP3    H276440   2.457   1.922  13.282 -0.6775  0.9918  0.0477
18317TIP3   OH276441   0.355   1.182   4.923  0.0783 -0.1446  0.5440
18317TIP3    H176442   0.404   1.256   4.888 -1.7456  0.7484 -0.2412
18317TIP3    H276443   0.341   1.203   5.016 -0.6096  0.6139  0.2751
18318TIP3   OH276444   1.897   6.204   5.682 -0.3592  0.1020 -0.5942
18318TIP3    H176445   1.893   6.208   5.587  0.1382 -1.6430 -0.7108
18318TIP3    H276446   1.990   6.194   5.702 -0.4609  0.4437  0.0833
18319TIP3   OH276447   5.491   6.705   1.863 -0.2150  0.2461 -1.0108
18319TIP3    H176448   5.579   6.733   1.837 -0.1160  0.3959 -0.5167
18319TIP3    H276449   5.434   6.740   1.794  0.1922 -0.5280 -1.7599
18320TIP3   OH276450   2.227   2.700   5.353  0.1750 -0.3333  0.4778
18320TIP3    H176451   2.208   2.606   5.365  0.3086 -0.1990  1.9643
18320TIP3    H276452   2.210   2.716   5.260  2.5066 -2.3634 -0.4063
18321TIP3   OH276453   0.605   2.698  11.904 -0.2126  0.8804  0.7014
18321TIP3    H176454   0.618   2.731  11.993  1.7201 -1.1615  1.2771
18321TIP3    H276455   0.512   2.679  11.899 -0.5607  2.0809  1.8716
18322TIP3   OH276456   6.324   3.903   3.556 -0.0500  0.4162 -0.2336
18322TIP3    H176457   6.368   3.818   3.548 -1.0305  0.0469 -2.7204
18322TIP3    H276458   6.241   3.883   3.599  0.5593  0.4897  1.0182
18323TIP3   OH276459   6.049   4.763  13.586 -0.3909 -0.6853 -0.4096
18323TIP3    H176460   6.137   4.756  13.623 -1.2791 -1.3636  1.7010
18323TIP3    H276461   6.002   4.822  13.645 -1.8396 -1.7304 -0.4448
18324TIP3   OH276462   4.995   3.441  12.590  0.4036 -0.4561  0.5221
18324TIP3    H176463   5.038   3.484  12.664  0.6954 -1.0643  0.7154
18324TIP3    H276464   4.984   3.350  12.619 -1.4748 -0.2118  0.6810
18325TIP3   OH276465   6.128   5.792   3.345  0.0299  0.7578 -0.3200
18325TIP3    H176466   6.045   5.838   3.337  0.3114  1.3323  0.0263
18325TIP3    H276467   6.112   5.725   3.411 -0.2761  0.5907 -0.5616
18326TIP3   OH276468   1.743   3.040  12.439 -0.0553 -0.2741  0.0954
18326TIP3    H176469   1.663   2.995  12.465  0.4134 -1.6678 -0.7535
18326TIP3    H276470   1.810   2.972  12.441  0.5360  0.1698 -1.9951
18327TIP3   OH276471   2.128   1.810   3.763  0.1521 -0.0701  0.4172
18327TIP3    H176472   2.133   1.894   3.717  1.2202  1.0176  2.3745
18327TIP3    H276473   2.042   1.811   3.805 -0.2475 -0.4311 -0.3750
18328TIP3   OH276474   5.400   3.496   1.742  0.4736  0.2673  0.0546
18328TIP3    H176475   5.307   3.515   1.733 -0.4364 -3.2784  0.7491
18328TIP3    H276476   5.430   3.481   1.652 -0.0024 -0.1052 -0.0452
18329TIP3   OH276477   1.852   6.303  16.424 -0.6999  0.2585  0.1119
18329TIP3    H176478   1.774   6.319  16.477 -0.3636 -0.7637  0.9508
18329TIP3    H276479   1.916   6.266  16.485  0.5031  1.2093 -0.5294
18330TIP3   OH276480   5.785   1.285  15.014  0.5929  0.5286 -0.3647
18330TIP3    H176481   5.698   1.324  15.015  1.5399  2.7679  0.1208
18330TIP3    H276482   5.771   1.196  15.047 -1.2119  1.5947  2.0815
18331TIP3   OH276483   4.729   6.213  15.597  0.1626 -0.3956 -0.1096
18331TIP3    H176484   4.676   6.195  15.675  1.3280 -0.1729  0.7600
18331TIP3    H276485   4.818   6.224  15.630  0.3658  1.8883 -1.1856
18332TIP3   OH276486   5.950   3.903   2.734 -0.6387  0.4801  0.2569
18332TIP3    H176487   5.870   3.852   2.719 -0.2727  0.1842 -0.7929
18332TIP3    H276488   5.922   3.994   2.727 -1.2722  0.4588  1.9922
18333TIP3   OH276489   4.354   5.487   4.654 -0.2246  0.7466 -0.7054
18333TIP3    H176490   4.335   5.435   4.732 -0.9200  1.7048 -0.2075
18333TIP3    H276491   4.295   5.454   4.587  0.3752 -0.0824 -0.8364
18334TIP3   OH276492   3.668   2.247  14.930  0.4093 -0.3428 -0.3295
18334TIP3    H176493   3.693   2.163  14.968 -1.5713 -0.7604  0.1802
18334TIP3    H276494   3.624   2.225  14.848 -3.4473 -0.2593  1.4716
18335TIP3   OH276495   4.148   2.273  15.594 -0.0918 -0.6846 -0.4741
18335TIP3    H176496   4.093   2.336  15.547 -1.2222 -1.0096  0.3821
18335TIP3    H276497   4.169   2.316  15.677 -0.9156 -1.4268  0.1383
18336TIP3   OH276498   6.292   5.502  16.766  0.1146 -0.1876 -0.1776
18336TIP3    H176499   6.211   5.450  16.768 -0.1034  0.0507 -1.5299
18336TIP3    H276500   6.300   5.529  16.674  0.9113  1.0849  0.2448
18337TIP3   OH276501   3.891   0.398  14.256  0.1759  0.0495 -0.5713
18337TIP3    H176502   3.828   0.464  14.228 -0.6593 -1.2630 -1.9298
18337TIP3    H276503   3.858   0.367  14.341 -1.2350 -0.8279 -1.3975
18338TIP3   OH276504   6.201   5.819   5.033  0.6714  0.0787 -0.5246
18338TIP3    H176505   6.237   5.837   4.946  1.3848  0.3977 -0.1705
18338TIP3    H276506   6.193   5.905   5.074  0.3428 -0.0729 -0.2644
18339TIP3   OH276507   2.037   6.359  11.585 -0.7210 -0.3173  0.7792
18339TIP3    H176508   1.999   6.421  11.647  0.5795 -0.3963  1.6851
18339TIP3    H276509   2.081   6.413  11.520 -1.2437 -0.2545  0.4754
18340TIP3   OH276510   4.518   2.704  15.470  0.0752 -0.6393 -1.0969
18340TIP3    H176511   4.458   2.720  15.543 -0.3492  0.2853 -1.6255
18340TIP3    H276512   4.461   2.703  15.393  0.5311 -1.4791 -1.4375
18341TIP3   OH276513   3.033   4.058  12.726 -0.2443 -0.1571 -0.0751
18341TIP3    H176514   3.083   4.093  12.800 -0.7817 -0.3122  0.3671
18341TIP3    H276515   2.941   4.069  12.751 -0.4585  0.5436 -1.0736
18342TIP3   OH276516   4.024   2.073   2.716 -0.1042  0.6247  0.0118
18342TIP3    H176517   3.942   2.045   2.675 -0.4716  0.7435  0.6601
18342TIP3    H276518   4.001   2.090   2.807  0.4901  1.3356  0.0413
18343TIP3   OH276519   4.063   0.022  13.354 -0.2115 -0.6454 -0.0061
18343TIP3    H176520   4.040   0.073  13.432 -1.7955 -1.6345  0.2245
18343TIP3    H276521   4.069   0.088  13.284 -0.1768  0.0924  0.6757
18344TIP3   OH276522   6.793   3.689   1.597 -0.5156 -0.1191  0.3696
18344TIP3    H176523   6.853   3.615   1.585 -0.4993  0.0133 -0.4426
18344TIP3    H276524   6.845   3.755   1.642 -0.6620 -0.7663  1.5107
18345TIP3   OH276525   3.032   5.039   1.640  0.1726 -0.2527  0.3727
18345TIP3    H176526   3.016   4.958   1.592 -0.7421 -0.7018  1.3706
18345TIP3    H276527   3.099   5.017   1.705  0.2787 -0.0782  0.3244
18346TIP3   OH276528   4.068   6.341  14.555  0.6268  0.4139  0.4468
18346TIP3    H176529   4.118   6.310  14.631  0.8361 -1.8828 -0.5537
18346TIP3    H276530   4.131   6.340  14.483 -0.1491  0.3373 -0.2384
18347TIP3   OH276531   6.678   2.149   3.763 -0.0762 -0.1362  0.5788
18347TIP3    H176532   6.639   2.113   3.683  0.8089 -0.2783  0.1972
18347TIP3    H276533   6.656   2.242   3.762 -0.5309 -0.2468  0.4473
18348TIP3   OH276534   1.048   4.653   4.988 -0.0852  0.1991 -0.3877
18348TIP3    H176535   1.017   4.689   5.071 -2.2079 -1.3001 -0.4616
18348TIP3    H276536   1.048   4.727   4.928  0.8810  1.1770  0.7536
18349TIP3   OH276537   0.804   2.400  11.012  0.5153  0.0533 -0.4411
18349TIP3    H176538   0.736   2.359  10.958 -1.0434  1.0907  0.6717
18349TIP3    H276539   0.848   2.461  10.952 -0.5851  0.5189 -0.7938
18350TIP3   OH276540   6.452   5.457   2.637  0.1967 -0.3039  0.2302
18350TIP3    H176541   6.534   5.503   2.617 -0.5209  0.3929 -1.2834
18350TIP3    H276542   6.438   5.400   2.561 -0.5744 -0.6311  0.6123
18351TIP3   OH276543   2.107   4.432  15.512  0.5311 -0.5262 -0.4744
18351TIP3    H176544   2.114   4.361  15.575 -1.3355 -1.3546 -1.1440
18351TIP3    H276545   2.095   4.511  15.566 -1.1098 -1.2247  0.2475
18352TIP3   OH276546   4.023   0.184  14.069 -0.2499 -0.1862  0.1967
18352TIP3    H176547   3.973   0.107  14.093 -0.4468  0.9289  4.0952
18352TIP3    H276548   3.973   0.257  14.106  1.8791  1.3938  0.1443
18353TIP3   OH276549   0.158   1.557  16.799 -0.0452  0.2104 -0.6038
18353TIP3    H176550   0.071   1.577  16.834 -0.7489 -1.5646 -1.2497
18353TIP3    H276551   0.212   1.631  16.827 -1.6465  1.1331  0.1990
18354TIP3   OH276552   1.201   5.876  11.465  0.2180 -0.1354  0.3043
18354TIP3    H176553   1.268   5.816  11.432 -0.4369 -0.3795 -0.6129
18354TIP3    H276554   1.164   5.917  11.387 -0.4984  0.2274  0.8198
18355TIP3   OH276555   1.398   3.087   1.387  0.0651 -0.0290  0.3493
18355TIP3    H176556   1.456   3.020   1.423 -0.9712 -0.2429  1.6664
18355TIP3    H276557   1.406   3.161   1.447  0.5625  0.7535 -0.6411
18356TIP3   OH276558   5.491   5.483   0.926 -0.1895 -0.1045 -0.1722
18356TIP3    H176559   5.476   5.552   0.861 -0.0366 -1.1031 -1.3068
18356TIP3    H276560   5.413   5.429   0.923  0.8955 -1.7074 -1.5342
18357TIP3   OH276561   3.692   4.151  11.397 -1.0877 -0.1134 -0.2063
18357TIP3    H176562   3.754   4.194  11.339 -0.1645  2.0450  2.2127
18357TIP3    H276563   3.721   4.060  11.400  0.0982  0.1988 -1.4466
18358TIP3   OH276564   4.170   5.167   0.114 -0.0446  0.3415 -0.1701
18358TIP3    H176565   4.095   5.146   0.170  0.0909  0.5242  0.0826
18358TIP3    H276566   4.174   5.095   0.051 -1.6245  1.3141 -1.4452
18359TIP3   OH276567   5.570   1.225   1.429  0.1139 -0.6137 -0.0239
18359TIP3    H176568   5.543   1.170   1.355  2.6060 -2.4829  0.3569
18359TIP3    H276569   5.658   1.255   1.406  0.0383  0.6718  1.2085
18360TIP3   OH276570   4.695   2.604  16.642 -0.2901 -0.1278  0.6359
18360TIP3    H176571   4.683   2.580  16.550 -0.0473  2.7210 -0.2344
18360TIP3    H276572   4.619   2.660  16.662 -0.5569 -1.0275  2.3385
18361TIP3   OH276573   2.365   2.020   0.697 -0.5866 -0.7911  0.3790
18361TIP3    H176574   2.328   2.034   0.784  0.2288 -1.8690  0.9292
18361TIP3    H276575   2.296   1.974   0.649 -0.0593 -2.6922  1.3588
18362TIP3   OH276576   1.240   1.369  16.451 -0.4801  0.1320  0.0244
18362TIP3    H176577   1.305   1.321  16.400 -0.7737 -0.5895  0.3158
18362TIP3    H276578   1.161   1.316  16.446  0.1308 -1.3629  3.3260
18363TIP3   OH276579   4.431   6.202   5.692 -0.0862 -0.8868  0.7422
18363TIP3    H176580   4.429   6.238   5.603  0.6731 -2.9681 -0.1721
18363TIP3    H276581   4.341   6.177   5.710 -0.9261  2.3812  1.9048
18364TIP3   OH276582   3.682   4.300   3.051  0.6844  0.6138 -0.3295
18364TIP3    H176583   3.619   4.277   3.120  0.6232 -0.6967 -0.7894
18364TIP3    H276584   3.768   4.292   3.094  0.7079 -1.3061 -0.6561
18365TIP3   OH276585   1.041   1.086   2.556  0.2027  0.0716  0.0224
18365TIP3    H176586   1.113   1.149   2.551 -0.6004  1.0697  0.6534
18365TIP3    H276587   1.082   1.002   2.537  1.0404  0.9326 -2.3821
18366TIP3   OH276588   6.283   4.318  11.650 -0.0706 -0.0315  0.2812
18366TIP3    H176589   6.229   4.325  11.571 -1.8625 -2.2441  1.1811
18366TIP3    H276590   6.246   4.383  11.710 -2.0221 -1.6480  0.9559
18367TIP3   OH276591   4.077   5.525   4.238  0.1583  0.1394 -0.1288
18367TIP3    H176592   4.130   5.604   4.226 -0.5786  0.8150  0.9359
18367TIP3    H276593   4.125   5.473   4.303  0.3879 -0.0683 -0.4590
18368TIP3   OH276594   0.546   2.378   6.428 -0.3729 -0.0029 -0.1956
18368TIP3    H176595   0.610   2.392   6.498 -1.7339  1.2681  0.8539
18368TIP3    H276596   0.496   2.301   6.456  0.8377 -1.1778 -1.1609
18369TIP3   OH276597   3.157   6.150   3.428  1.0250 -0.2397  0.4349
18369TIP3    H176598   3.249   6.170   3.447  1.3526 -0.3682 -0.9536
18369TIP3    H276599   3.139   6.191   3.344 -0.1956 -0.2318  0.6706
18370TIP3   OH276600   5.478   0.399  12.495 -0.3589  0.2423  0.0063
18370TIP3    H176601   5.430   0.318  12.514 -0.4552  0.3505  0.2276
18370TIP3    H276602   5.570   0.372  12.487 -0.2317  0.2742  1.1968
18371TIP3   OH276603   3.603   5.400   3.658 -0.3785 -0.1803  0.4759
18371TIP3    H176604   3.662   5.412   3.584 -0.8685  0.5860  0.1883
18371TIP3    H276605   3.660   5.387   3.733  0.1137 -2.1527 -0.2011
18372TIP3   OH276606   3.793   5.918  12.632  0.2246  0.0320 -0.0671
18372TIP3    H176607   3.793   5.931  12.537 -1.0410 -3.1690 -0.6333
18372TIP3    H276608   3.852   5.985  12.666  1.5253  0.6273 -3.2074
18373TIP3   OH276609   3.660   2.808  11.721 -0.0022 -0.4661  1.0534
18373TIP3    H176610   3.639   2.749  11.793 -0.6335 -1.4110  0.1449
18373TIP3    H276611   3.683   2.749  11.649  3.4183  0.4673  1.2326
18374TIP3   OH276612   0.888   0.199   1.194 -0.8346 -0.4303  0.2255
18374TIP3    H176613   0.837   0.269   1.153 -0.0885 -0.4831 -0.8489
18374TIP3    H276614   0.936   0.159   1.121  0.7546 -0.3764  1.2013
18375TIP3   OH276615   5.938   6.656  12.843 -0.7016  0.4297 -0.5168
18375TIP3    H176616   5.957   6.563  12.831 -2.5494 -0.0882  0.1191
18375TIP3    H276617   6.002   6.685  12.908  1.0321  0.0861 -1.9894
18376TIP3   OH276618   1.322   4.251  14.794  0.5033 -0.1658 -0.5448
18376TIP3    H176619   1.407   4.274  14.756  0.5711 -0.7961 -0.7743
18376TIP3    H276620   1.342   4.226  14.884  0.0054  4.4244  1.1123
18377TIP3   OH276621   4.644   4.515   2.821 -0.4126  0.3422  1.1008
18377TIP3    H176622   4.728   4.515   2.776 -1.0375 -2.0043 -0.2425
18377TIP3    H276623   4.591   4.579   2.773  0.0436  0.5255  0.8355
18378TIP3   OH276624   5.163   2.984  15.898  0.3568  0.6004  0.1668
18378TIP3    H176625   5.170   2.917  15.966 -2.0177  1.5589  1.4900
18378TIP3    H276626   5.247   3.031  15.902  0.5626  0.1464  1.9524
18379TIP3   OH276627   1.722   0.901  17.054 -0.6951 -0.1025 -0.0038
18379TIP3    H176628   1.692   0.819  17.016 -2.5864  0.4211  0.2715
18379TIP3    H276629   1.811   0.911  17.021 -1.0714 -1.3403 -1.5371
18380TIP3   OH276630   4.081   4.683  16.516 -0.8243 -0.3033 -0.1637
18380TIP3    H176631   4.067   4.602  16.565  0.9199 -0.7872 -0.4154
18380TIP3    H276632   4.067   4.753  16.580 -1.5480 -0.8092  0.2472
18381TIP3   OH276633   0.585   5.779  14.170 -0.1494 -0.0304 -0.0471
18381TIP3    H176634   0.520   5.838  14.209 -1.5828 -0.7663 -1.1939
18381TIP3    H276635   0.633   5.745  14.245 -1.8629 -0.3061  0.9992
18382TIP3   OH276636   6.493   2.702  16.415  0.1415 -0.2086  0.5148
18382TIP3    H176637   6.533   2.634  16.361  0.9770 -0.3559  1.3151
18382TIP3    H276638   6.405   2.714  16.377  0.5138 -0.6921 -0.5299
18383TIP3   OH276639   6.773   4.458  11.285  0.4319  0.3800 -0.6781
18383TIP3    H176640   6.800   4.401  11.212  1.6031  0.0175  0.0137
18383TIP3    H276641   6.817   4.541  11.268  2.6075 -0.3718  0.7327
18384TIP3   OH276642   5.220   3.989   3.695 -0.1043  0.1329  0.4098
18384TIP3    H176643   5.211   3.959   3.605  0.8769 -0.4042  0.4752
18384TIP3    H276644   5.192   3.914   3.748 -2.8762  1.1751  0.5967
18385TIP3   OH276645   3.364   0.124  13.733  0.1865  0.6437 -0.4127
18385TIP3    H176646   3.287   0.130  13.789 -0.4211  1.2091 -1.2704
18385TIP3    H276647   3.402   0.212  13.735  2.8662 -0.3951  2.7311
18386TIP3   OH276648   0.074   4.917   0.811 -0.2362  0.3221  0.4969
18386TIP3    H176649   0.037   4.919   0.899 -1.3202 -1.1435  0.1149
18386TIP3    H276650   0.129   4.838   0.810 -1.3723 -0.4932 -0.5363
18387TIP3   OH276651   5.595   2.078   2.007  0.1198 -0.0894  0.0683
18387TIP3    H176652   5.632   2.155   1.963  0.7674 -1.2396 -1.5167
18387TIP3    H276653   5.533   2.041   1.943  0.4479 -1.3406  0.4423
18388TIP3   OH276654   1.512   0.879  12.670  0.4591  0.5052  0.1654
18388TIP3    H176655   1.491   0.922  12.587 -0.9891 -0.2829  0.0789
18388TIP3    H276656   1.540   0.950  12.728 -0.5061  1.3671 -0.3985
18389TIP3   OH276657   2.888   0.911  15.152 -0.3505 -0.1859 -0.5138
18389TIP3    H176658   2.850   0.873  15.073 -2.5719  0.1979  0.3038
18389TIP3    H276659   2.855   1.000  15.155  1.4319  0.5093 -0.2172
18390TIP3   OH276660   6.373   6.035   3.439 -0.2646 -0.0247 -0.5182
18390TIP3    H176661   6.396   5.943   3.454 -0.4851 -0.2184 -1.3101
18390TIP3    H276662   6.294   6.031   3.385  0.3406  0.6238 -1.4741
18391TIP3   OH276663   6.468   0.133   4.463  0.1890 -0.4426 -0.3997
18391TIP3    H176664   6.412   0.205   4.489  0.9237 -0.5173  1.5082
18391TIP3    H276665   6.492   0.153   4.372 -0.9972  0.7933 -0.4624
18392TIP3   OH276666   3.426   5.535   0.680  0.3410 -0.8028  0.2058
18392TIP3    H176667   3.400   5.625   0.658 -1.4642 -1.3577 -0.1365
18392TIP3    H276668   3.349   5.482   0.659  1.8410 -2.6575 -0.9990
18393TIP3   OH276669   1.143   2.009   0.480 -0.6695  0.3011  0.3196
18393TIP3    H176670   1.218   2.068   0.488  0.1690 -0.7084  0.0487
18393TIP3    H276671   1.074   2.063   0.440 -0.0204  1.1758  0.3600
18394TIP3   OH276672   1.421   5.110   0.520 -0.4286 -0.8756  0.2878
18394TIP3    H176673   1.472   5.034   0.546 -2.6259 -3.4760 -2.3270
18394TIP3    H276674   1.346   5.110   0.579  0.1764  0.1173  1.0984
18395TIP3   OH276675   5.028   6.351  10.865  0.0777  0.6467  0.0913
18395TIP3    H176676   5.055   6.308  10.947 -2.3987  0.0262  0.6439
18395TIP3    H276677   5.017   6.443  10.889 -0.2697  0.5358  0.3686
18396TIP3   OH276678   1.735   0.670  14.316 -0.2241 -0.8853  0.2320
18396TIP3    H176679   1.763   0.591  14.269 -0.5220 -0.1477 -1.2814
18396TIP3    H276680   1.722   0.735  14.246 -1.6575 -0.0110  1.2565
18397TIP3   OH276681   0.228   1.645   4.013  0.0556  1.0157  0.0452
18397TIP3    H176682   0.315   1.685   4.012  0.6267 -0.1953 -1.0052
18397TIP3    H276683   0.192   1.662   3.926  1.6824 -3.4405 -1.7915
18398TIP3   OH276684   1.397   2.733  11.098 -0.0863  0.3510  0.1435
18398TIP3    H176685   1.485   2.757  11.125  0.4567 -0.1006 -1.1585
18398TIP3    H276686   1.347   2.814  11.105  0.4814  0.6670  0.6442
18399TIP3   OH276687   0.895   3.821   4.986 -0.9049 -0.1317  0.1205
18399TIP3    H176688   0.820   3.829   4.927 -1.9959  1.6200  1.6485
18399TIP3    H276689   0.898   3.905   5.032  3.8239  1.1191 -1.8933
18400TIP3   OH276690   2.314   1.840   5.094  0.2520 -0.5720 -0.2594
18400TIP3    H176691   2.285   1.851   5.184 -0.5578  2.6249 -0.7897
18400TIP3    H276692   2.237   1.861   5.041  1.5253  0.8487 -1.6674
18401TIP3   OH276693   1.475   2.967   3.137  0.3222  0.2272  0.5068
18401TIP3    H176694   1.389   2.945   3.100  0.3117 -0.7846  1.0821
18401TIP3    H276695   1.500   3.049   3.094 -0.4198 -0.0586 -0.5046
18402TIP3   OH276696   0.527   2.955  14.457  0.1171 -0.4188 -0.0293
18402TIP3    H176697   0.544   3.011  14.533  1.9712 -0.1570 -0.5856
18402TIP3    H276698   0.597   2.977  14.395  0.0671 -2.3445 -0.8395
18403TIP3   OH276699   5.936   3.178   2.704 -0.0994 -0.2755 -0.7232
18403TIP3    H176700   5.842   3.166   2.690 -0.5845  0.9156  1.2132
18403TIP3    H276701   5.968   3.090   2.724 -0.9723 -0.5593 -0.4977
18404TIP3   OH276702   5.536   0.866  11.027 -0.0743  0.3365  0.0577
18404TIP3    H176703   5.456   0.830  11.064  1.3957 -2.0037  1.1701
18404TIP3    H276704   5.525   0.855  10.932 -1.8175  1.8553  0.0310
18405TIP3   OH276705   1.383   0.004  13.219  0.2892 -0.5537  0.6347
18405TIP3    H176706   1.402   0.098  13.220  0.5258 -0.5312 -1.5242
18405TIP3    H276707   1.423  -0.029  13.299 -0.0342  1.2021  1.5909
18406TIP3   OH276708   1.385   5.718  12.555 -0.0957  0.4755  0.5127
18406TIP3    H176709   1.296   5.710  12.590  0.4625 -2.3361  1.5339
18406TIP3    H276710   1.373   5.747  12.464 -2.1309 -0.7943  0.3244
18407TIP3   OH276711   1.705   0.178  15.562 -0.0219  0.2264  1.0280
18407TIP3    H176712   1.757   0.098  15.560 -1.5236 -0.8234  1.9561
18407TIP3    H276713   1.753   0.236  15.621  1.6298  0.4536 -0.4671
18408TIP3   OH276714   4.781   3.232  15.394 -0.1776 -0.0747 -0.1661
18408TIP3    H176715   4.766   3.157  15.338 -0.4472 -0.2412  0.1283
18408TIP3    H276716   4.813   3.195  15.476 -0.1348  0.1440 -0.0820
18409TIP3   OH276717   3.801   1.590  12.930 -0.0699 -0.1321 -0.0085
18409TIP3    H176718   3.859   1.514  12.917  0.7315  0.5892 -0.7559
18409TIP3    H276719   3.823   1.649  12.858 -0.8255  0.7306  0.4595
18410TIP3   OH276720   2.010   6.786   6.293  0.7606 -0.1871 -0.0405
18410TIP3    H176721   2.092   6.744   6.319  2.1628  2.6459  0.4320
18410TIP3    H276722   2.035   6.849   6.226 -0.7099  1.9794  1.3267
18411TIP3   OH276723   3.934   0.870   5.148  0.0725 -0.0213 -0.1821
18411TIP3    H176724   3.896   0.936   5.090  1.5443  0.0593 -1.1247
18411TIP3    H276725   3.920   0.787   5.103  0.8910 -0.0009 -0.4936
18412TIP3   OH276726   0.596   1.827  16.912  0.2480 -0.3284  0.6548
18412TIP3    H176727   0.577   1.920  16.897  1.0449 -0.2937 -0.2394
18412TIP3    H276728   0.593   1.817  17.007 -0.1008  0.5521  0.7506
18413TIP3   OH276729   3.270   1.512   6.596 -0.6634 -0.3210  0.1389
18413TIP3    H176730   3.201   1.453   6.563  0.0587 -1.7532  1.0798
18413TIP3    H276731   3.351   1.463   6.581  0.0521  0.8570  0.1090
18414TIP3   OH276732   0.344   6.637   5.951  0.3704  0.1033 -0.3047
18414TIP3    H176733   0.321   6.691   5.875  0.0720  1.3180  0.6094
18414TIP3    H276734   0.308   6.685   6.026  1.4698 -0.5746  0.6954
18415TIP3   OH276735   4.664   3.752   2.219 -0.2718 -0.0130 -0.1175
18415TIP3    H176736   4.577   3.735   2.256  0.6595 -1.6600  1.5109
18415TIP3    H276737   4.698   3.825   2.271  0.6941 -1.7639  1.8548
18416TIP3   OH276738   5.652   3.108  15.470 -0.4657  0.2477 -0.4069
18416TIP3    H176739   5.612   3.185  15.429  2.4034  1.1945 -1.7002
18416TIP3    H276740   5.738   3.139  15.499 -0.3612 -1.7640  1.7627
18417TIP3   OH276741   6.170   3.714  14.698  0.9604  0.3452 -0.6398
18417TIP3    H176742   6.109   3.709  14.772  0.1942  0.7750 -1.2224
18417TIP3    H276743   6.199   3.624  14.685  2.7769  0.5331  1.5192
18418TIP3   OH276744   4.612   2.661  12.020 -0.4127  0.1994 -0.2557
18418TIP3    H176745   4.553   2.611  12.077  1.1887 -1.5067 -0.0112
18418TIP3    H276746   4.607   2.616  11.936 -1.7901  1.9536 -1.1973
18419TIP3   OH276747   5.426   6.008  13.868  0.1800  0.4972 -0.2885
18419TIP3    H176748   5.360   5.956  13.823  0.5273 -0.0651 -0.1603
18419TIP3    H276749   5.390   6.097  13.869 -0.3071  0.3116 -0.7291
18420TIP3   OH276750   5.887   6.772   3.417  0.2532  0.2041 -0.1001
18420TIP3    H176751   5.931   6.804   3.496  0.8247 -0.4436 -0.1513
18420TIP3    H276752   5.956   6.731   3.366 -0.6521 -2.2319  0.5112
18421TIP3   OH276753   6.192   5.338   2.612 -0.1331  0.5770 -0.0744
18421TIP3    H176754   6.206   5.270   2.547  1.2603  0.8055 -0.0295
18421TIP3    H276755   6.279   5.371   2.633 -0.7153  1.8969  0.4303
18422TIP3   OH276756   0.804   5.264  11.709  0.1910  0.3722  0.3585
18422TIP3    H176757   0.801   5.262  11.613 -0.7840 -0.1275  0.3893
18422TIP3    H276758   0.715   5.244  11.736  0.4273  0.6465  1.3791
18423TIP3   OH276759   5.663   1.792   5.147  0.4231  0.0157 -0.0633
18423TIP3    H176760   5.748   1.763   5.180 -0.4778  0.1385  2.6684
18423TIP3    H276761   5.675   1.885   5.128  0.6158  0.3576  1.5922
18424TIP3   OH276762   6.282   1.018  11.925  0.0952 -0.2774 -0.0725
18424TIP3    H176763   6.345   0.953  11.956 -0.0761  0.1970  1.3635
18424TIP3    H276764   6.333   1.099  11.919 -0.7394  0.6580  3.2895
18425TIP3   OH276765   2.081   5.909   3.085 -0.4184 -0.4740  0.2209
18425TIP3    H176766   1.989   5.910   3.110 -1.2529  1.8171 -2.4657
18425TIP3    H276767   2.116   5.992   3.119  0.0032 -0.2263 -0.7657
18426TIP3   OH276768   2.703   2.119  15.279 -0.5990 -0.2824 -0.0148
18426TIP3    H176769   2.644   2.054  15.319 -1.3151  0.8352  0.8200
18426TIP3    H276770   2.716   2.184  15.348 -0.0901  0.5857 -0.9095
18427TIP3   OH276771   0.209   5.611  10.562  0.2125 -0.2849 -0.2632
18427TIP3    H176772   0.234   5.622  10.470 -1.1173 -0.7679 -0.7180
18427TIP3    H276773   0.268   5.668  10.610  2.3805 -1.6304 -1.1907
18428TIP3   OH276774   6.151   4.446   2.457  0.4746  0.0333  0.2685
18428TIP3    H176775   6.136   4.361   2.415  0.1073  0.8684 -1.3711
18428TIP3    H276776   6.068   4.493   2.445  0.9895  0.9673  0.3044
18429TIP3   OH276777   5.129   0.826   1.944  0.3149 -0.0773 -0.1229
18429TIP3    H176778   5.205   0.879   1.967 -0.3326  0.3052  1.2490
18429TIP3    H276779   5.059   0.858   2.002 -0.7295 -0.8123 -0.9398
18430TIP3   OH276780   4.131   1.788   1.575 -0.1278  0.2095 -0.1334
18430TIP3    H176781   4.042   1.779   1.541 -1.4050 -0.4944  3.0356
18430TIP3    H276782   4.138   1.722   1.644  2.3750  1.1728  0.6881
18431TIP3   OH276783   6.425   2.318  12.123 -0.2117  0.2453 -0.2827
18431TIP3    H176784   6.357   2.255  12.102  0.4317 -1.1998  1.7223
18431TIP3    H276785   6.388   2.370  12.195 -0.4411  1.7260 -1.4092
18432TIP3   OH276786   1.362   6.472   5.619 -0.0139  0.2289  0.6814
18432TIP3    H176787   1.423   6.432   5.557 -0.1228 -1.6992  1.7483
18432TIP3    H276788   1.398   6.452   5.705 -0.1176  2.4544  1.3125
18433TIP3   OH276789   4.142   1.721   2.666  0.0793 -0.0333 -0.6420
18433TIP3    H176790   4.223   1.770   2.679  0.3465 -0.1838 -1.6570
18433TIP3    H276791   4.081   1.759   2.729  1.2269 -0.6258  0.8977
18434TIP3   OH276792   1.366   2.318  11.186  0.0316 -0.3332  0.1095
18434TIP3    H176793   1.299   2.386  11.175 -0.6996 -1.1011 -0.3304
18434TIP3    H276794   1.354   2.288  11.276 -0.3436 -0.5888 -0.0223
18435TIP3   OH276795   2.330   1.442   5.123 -0.3567  0.3781  0.1736
18435TIP3    H176796   2.349   1.487   5.205  1.1154 -1.5194  0.9484
18435TIP3    H276797   2.250   1.391   5.141  0.0567 -0.1627  0.4928
18436TIP3   OH276798   3.364   2.764  14.490 -0.3347  0.3506 -0.3170
18436TIP3    H176799   3.341   2.679  14.453 -2.9689  0.2370  1.3338
18436TIP3    H276800   3.421   2.743  14.565  0.4317  0.2007 -0.9293
18437TIP3   OH276801   2.859   0.223   6.946  0.0111  0.5715 -0.2910
18437TIP3    H176802   2.819   0.185   6.867 -1.7866 -1.4241  1.4453
18437TIP3    H276803   2.925   0.284   6.913 -1.5891  0.8413 -3.3304
18438TIP3   OH276804   3.935   6.638   1.795  0.0978 -0.0754 -0.5371
18438TIP3    H176805   3.893   6.685   1.868  1.0926  1.3157 -0.8249
18438TIP3    H276806   4.027   6.666   1.798  0.3333 -0.6486 -1.8119
18439TIP3   OH276807   0.945   2.038  11.128  0.2603 -0.5571 -0.0140
18439TIP3    H176808   0.940   1.944  11.143 -0.6276 -0.6111 -0.5684
18439TIP3    H276809   0.950   2.076  11.215  1.7298 -1.1587  0.1857
18440TIP3   OH276810   0.702   4.147   4.859  0.4471 -0.5661 -0.1904
18440TIP3    H176811   0.767   4.088   4.823  1.9586  0.7466  0.2489
18440TIP3    H276812   0.729   4.160   4.950 -0.2630  0.2305 -0.0767
18441TIP3   OH276813   4.530   2.236   0.855  0.4515  0.6445  0.3147
18441TIP3    H176814   4.440   2.260   0.832  0.5378  0.3178 -0.4014
18441TIP3    H276815   4.520   2.172   0.926  0.1118  0.5668  0.2024
18442TIP3   OH276816   5.687   4.815   1.387  0.0837 -0.4202 -0.4104
18442TIP3    H176817   5.671   4.723   1.407 -0.1680 -0.5677 -1.2439
18442TIP3    H276818   5.601   4.851   1.365  0.1453  0.0751  0.1484
18443TIP3   OH276819   6.304   4.654  14.753 -0.0084 -0.2454  0.4718
18443TIP3    H176820   6.363   4.682  14.684  1.2555  0.8755  1.9269
18443TIP3    H276821   6.309   4.559  14.753 -2.0453 -0.4722 -2.6087
18444TIP3   OH276822   1.064   4.193   5.980 -0.0219  0.4255  0.0573
18444TIP3    H176823   1.000   4.130   6.013  0.1679  0.7350  1.0619
18444TIP3    H276824   1.124   4.142   5.926 -0.9291  0.0766 -0.6413
18445TIP3   OH276825   0.205   3.720  11.257  0.2613  0.1951 -0.2506
18445TIP3    H176826   0.184   3.708  11.165 -0.3533  0.0421 -0.0975
18445TIP3    H276827   0.134   3.675  11.304  1.8646 -1.8649  0.2921
18446TIP3   OH276828   3.524   1.731  17.005  0.9100 -0.4659 -0.2230
18446TIP3    H176829   3.509   1.826  17.001 -1.7255 -0.8073 -1.0034
18446TIP3    H276830   3.436   1.694  16.993  1.9952 -3.0172 -0.7544
18447TIP3   OH276831   0.868   3.380  14.320  0.0999  0.0456 -0.4686
18447TIP3    H176832   0.874   3.405  14.228 -1.2293  1.0491 -0.3115
18447TIP3    H276833   0.922   3.302  14.327 -1.4658 -1.3406 -2.5587
18448TIP3   OH276834   5.872   4.429   0.350 -0.4646  0.4725  0.4122
18448TIP3    H176835   5.820   4.349   0.344 -0.3740  0.2530  2.0884
18448TIP3    H276836   5.824   4.493   0.298 -0.6936 -0.5843 -0.7114
18449TIP3   OH276837   3.045   1.060  12.894  0.1155 -0.3039  0.2728
18449TIP3    H176838   3.085   0.986  12.849  0.0075 -0.0583 -0.2377
18449TIP3    H276839   2.951   1.053  12.875  0.1639  0.2475 -0.2162
18450TIP3   OH276840   6.134   1.521   6.275  0.0839  0.2285  0.0255
18450TIP3    H176841   6.055   1.469   6.266 -0.9759  1.8624 -0.4824
18450TIP3    H276842   6.121   1.571   6.356 -0.0917  1.5979 -0.8256
18451TIP3   OH276843   6.751   5.742  13.978  0.1303 -0.0334  0.0215
18451TIP3    H176844   6.807   5.695  13.915 -2.8568 -1.0877 -2.0487
18451TIP3    H276845   6.800   5.822  13.997  1.9356 -0.4250 -2.3785
18452TIP3   OH276846   1.632   5.012  15.039 -0.0418  0.1958 -0.1368
18452TIP3    H176847   1.634   4.953  15.115  1.1959 -2.5602 -2.0953
18452TIP3    H276848   1.542   5.009  15.008 -0.4339  0.9301  0.8879
18453TIP3   OH276849   1.225   1.966  16.647 -0.0231  0.3498 -0.0270
18453TIP3    H176850   1.296   2.022  16.615  0.7208 -0.6958 -0.2633
18453TIP3    H276851   1.149   1.992  16.595  0.5427  0.4714 -0.8098
18454TIP3   OH276852   5.553   3.358  16.359  0.3762 -0.1747 -0.9084
18454TIP3    H176853   5.634   3.310  16.340  0.4474 -0.0503 -0.9210
18454TIP3    H276854   5.508   3.305  16.424  0.0659 -0.6812 -1.5249
18455TIP3   OH276855   4.630   2.203  16.801  0.0520  0.0798 -0.1869
18455TIP3    H176856   4.596   2.115  16.782 -0.7870  0.3278  0.0996
18455TIP3    H276857   4.709   2.188  16.852  0.5868 -0.5286 -1.1769
18456TIP3   OH276858   0.587   1.183  16.906  0.3559  0.0141 -0.1391
18456TIP3    H176859   0.507   1.229  16.880  0.4102  0.2013  0.0243
18456TIP3    H276860   0.654   1.217  16.848  0.3109 -0.1628 -0.2952
18457TIP3   OH276861   2.424   6.244   1.261  0.1271  0.2607  0.7147
18457TIP3    H176862   2.336   6.274   1.281  0.4180  1.8398 -0.1508
18457TIP3    H276863   2.453   6.301   1.189  2.3679  0.7297  1.9022
18458TIP3   OH276864   6.782   3.094  13.843  0.0561 -0.0180 -0.0094
18458TIP3    H176865   6.836   3.112  13.920 -1.4675 -1.1404  1.4084
18458TIP3    H276866   6.701   3.143  13.859 -0.1212  0.0848 -1.1240
18459TIP3   OH276867   5.476   5.355   3.428  0.2990  0.3602 -0.5538
18459TIP3    H176868   5.390   5.315   3.421  1.6489 -3.5518  1.9422
18459TIP3    H276869   5.536   5.292   3.388  2.3733  1.0567  1.2260
18460TIP3   OH276870   0.810   4.807   0.861  0.1973  0.0948 -0.2719
18460TIP3    H176871   0.732   4.753   0.871  0.1811  0.2303  0.4060
18460TIP3    H276872   0.881   4.752   0.896  0.1185  0.6557  0.8088
18461TIP3   OH276873   2.687   3.900  16.009  1.0272 -0.4368 -0.0487
18461TIP3    H176874   2.682   3.881  15.915 -1.6318 -0.0360 -0.0691
18461TIP3    H276875   2.654   3.821  16.052  0.7890 -0.0745  0.4534
18462TIP3   OH276876   2.751   2.219   6.730  0.1299  0.1557  0.0958
18462TIP3    H176877   2.746   2.186   6.820  0.1937 -3.2261 -0.9822
18462TIP3    H276878   2.838   2.193   6.700 -1.0324 -1.7658 -1.8877
18463TIP3   OH276879   2.869   1.361  15.938  0.0464  0.1356 -0.3060
18463TIP3    H176880   2.793   1.406  15.974 -2.1628 -1.2396 -2.9494
18463TIP3    H276881   2.861   1.271  15.969  0.1341 -0.2101 -1.2695
18464TIP3   OH276882   0.072   2.715   3.464  0.4521 -0.3469 -0.2237
18464TIP3    H176883   0.130   2.754   3.529  0.5488  0.4473 -0.7707
18464TIP3    H276884   0.063   2.624   3.492  0.3292  0.0237  1.0108
18465TIP3   OH276885   4.590   6.445   5.051  0.9299 -0.1484 -0.4289
18465TIP3    H176886   4.586   6.541   5.051 -0.5339 -0.1843 -1.2941
18465TIP3    H276887   4.625   6.423   4.964 -0.1070 -0.4196 -0.7871
18466TIP3   OH276888   6.363   0.823   6.027  0.0021  0.2296  0.0558
18466TIP3    H176889   6.453   0.800   6.004  0.5691  1.9165  0.4364
18466TIP3    H276890   6.312   0.745   6.004  1.3849 -0.3564 -1.2453
18467TIP3   OH276891   6.012   1.294   0.816 -0.4248  0.0083  0.2363
18467TIP3    H176892   5.931   1.256   0.782 -1.2587  1.2485  0.7897
18467TIP3    H276893   6.045   1.348   0.745 -1.3938  1.4381  0.8442
18468TIP3   OH276894   5.014   4.213  16.595  0.3344  0.3639  0.3296
18468TIP3    H176895   5.001   4.308  16.589  0.4651  0.4865  1.6670
18468TIP3    H276896   5.050   4.199  16.682 -1.0790 -1.0777  0.7383
18469TIP3   OH276897   6.400   5.286   0.981 -0.1368 -0.0816 -0.0431
18469TIP3    H176898   6.431   5.221   0.917 -1.0153 -0.1551 -0.3998
18469TIP3    H276899   6.416   5.245   1.066 -0.7652 -0.8114 -0.2689
18470TIP3   OH276900   1.602   4.692  17.195  0.4607  0.4029 -0.0280
18470TIP3    H176901   1.621   4.701  17.101 -1.4693  1.5707 -0.3499
18470TIP3    H276902   1.672   4.741  17.238  0.9440  0.4830 -0.8780
18471TIP3   OH276903   1.834   3.278  13.569  0.0890 -0.5390 -0.2516
18471TIP3    H176904   1.834   3.235  13.654  1.6144  0.0915  0.1106
18471TIP3    H276905   1.792   3.363  13.584 -2.9767 -1.7893 -0.9812
18472TIP3   OH276906   4.712   0.670   1.708  0.6064  0.3559  0.2126
18472TIP3    H176907   4.622   0.655   1.736  0.2478  1.2641 -0.3999
18472TIP3    H276908   4.761   0.595   1.743 -0.5146 -0.5532 -0.0985
18473TIP3   OH276909   0.080   0.123  12.777 -0.5305  0.1689 -0.0645
18473TIP3    H176910   0.163   0.156  12.741 -0.5820 -1.0787 -1.4098
18473TIP3    H276911   0.068   0.038  12.735 -2.2992  0.1537  0.4158
18474TIP3   OH276912   2.440   6.544  11.547 -0.0014  0.0461  0.2328
18474TIP3    H176913   2.411   6.467  11.595  0.0403 -0.6336 -0.7877
18474TIP3    H276914   2.359   6.582  11.512 -0.0925  0.8847  1.3141
18475TIP3   OH276915   1.649   6.606  14.084 -0.2582 -0.5099  0.7781
18475TIP3    H176916   1.630   6.546  14.156 -0.1983 -1.0527  0.3396
18475TIP3    H276917   1.710   6.559  14.028  1.7162  0.8413  1.6619
18476TIP3   OH276918   2.730   3.246  14.175 -0.2015  0.2173  0.1738
18476TIP3    H176919   2.663   3.192  14.218  2.0637 -2.3551  0.7177
18476TIP3    H276920   2.680   3.311  14.126 -3.0692 -1.0685  1.1707
18477TIP3   OH276921   3.469   0.381  15.039  0.5281 -0.0675 -0.3390
18477TIP3    H176922   3.423   0.298  15.027 -2.2021  1.3379 -0.3711
18477TIP3    H276923   3.532   0.383  14.966  0.3260 -1.8659 -0.6262
18478TIP3   OH276924   1.631   4.289  13.166 -0.1380 -0.3676  0.7511
18478TIP3    H176925   1.683   4.222  13.124 -1.5431 -0.7695 -0.4424
18478TIP3    H276926   1.673   4.304  13.251  2.2559 -0.1882 -0.4015
18479TIP3   OH276927   5.006   2.520   6.537  0.1338 -0.1489 -0.2448
18479TIP3    H176928   4.998   2.615   6.551 -1.1851 -0.0251 -1.6458
18479TIP3    H276929   5.049   2.489   6.616  3.6340  2.0262 -1.0738
18480TIP3   OH276930   2.145   1.318   5.779  0.0417  0.6694 -0.3983
18480TIP3    H176931   2.113   1.229   5.762  1.0900  0.5106 -1.7398
18480TIP3    H276932   2.218   1.306   5.840  0.1292  0.6170 -0.5133
18481TIP3   OH276933   3.491   6.632   0.110  0.2910 -0.1001  0.0171
18481TIP3    H176934   3.474   6.724   0.131 -0.4076 -0.1383 -0.3642
18481TIP3    H276935   3.407   6.598   0.079  0.9634 -0.4080 -1.5181
18482TIP3   OH276936   6.085   0.534   0.541  0.1100  0.2434  0.6373
18482TIP3    H176937   6.029   0.612   0.537 -0.5371 -0.1941  1.1266
18482TIP3    H276938   6.046   0.479   0.608 -0.5514 -1.3760 -1.0002
18483TIP3   OH276939   2.988   1.896  11.996  0.1046 -0.2488  0.0239
18483TIP3    H176940   2.946   1.823  12.040 -0.6085 -0.9564 -1.7277
18483TIP3    H276941   3.037   1.856  11.924 -0.7479  1.0214 -1.3130
18484TIP3   OH276942   1.993   3.051   1.004 -0.0379 -0.1370  0.3851
18484TIP3    H176943   1.953   3.069   1.089  0.0156  0.0607  0.3686
18484TIP3    H276944   1.936   2.985   0.964  1.7355 -2.8240  1.9635
18485TIP3   OH276945   4.289   2.332   5.972 -0.3318 -0.5419  0.2298
18485TIP3    H176946   4.236   2.256   5.947  0.6526 -0.9018 -0.8365
18485TIP3    H276947   4.332   2.304   6.053 -0.5087 -0.8702  0.2148
18486TIP3   OH276948   4.324   5.245   3.415 -0.5659  0.2494 -0.4506
18486TIP3    H176949   4.229   5.237   3.418 -0.4894 -0.5654  0.5782
18486TIP3    H276950   4.356   5.157   3.435  0.3745  1.1434  2.5426
18487TIP3   OH276951   1.928   6.813  13.710 -0.1557 -1.1254 -0.2393
18487TIP3    H176952   1.859   6.790  13.648 -0.6523  2.3711 -1.2261
18487TIP3    H276953   2.009   6.801  13.663 -0.5052  0.9167 -1.5052
18488TIP3   OH276954   6.135   0.620  16.366  0.0474  0.6174  0.4134
18488TIP3    H176955   6.192   0.572  16.306  1.3348  1.2165  1.1160
18488TIP3    H276956   6.143   0.573  16.449 -1.4518 -0.0056  0.2324
18489TIP3   OH276957   1.963   3.826  11.588  0.4515  0.1815  0.2679
18489TIP3    H176958   1.990   3.807  11.678  1.1568 -0.6185 -0.0988
18489TIP3    H276959   2.037   3.798  11.534 -0.2082  0.0755 -0.6076
18490TIP3   OH276960   1.394   0.606  16.039 -0.0515 -0.9215  0.3717
18490TIP3    H176961   1.373   0.518  16.071 -1.7350 -0.2771  1.1512
18490TIP3    H276962   1.313   0.655  16.047  0.8188  0.7012 -0.1574
18491TIP3   OH276963   1.359   2.238  13.803 -0.0855 -0.0523  0.4639
18491TIP3    H176964   1.427   2.306  13.797 -0.6830  0.6178  0.9971
18491TIP3    H276965   1.407   2.157  13.821  0.7273  0.0331 -1.1839
18492TIP3   OH276966   4.044   1.690  13.272  0.4151  0.1012 -0.5450
18492TIP3    H176967   4.111   1.636  13.230  0.3198  0.2590 -0.9040
18492TIP3    H276968   3.981   1.627  13.307  0.4560 -0.0316 -0.7072
18493TIP3   OH276969   0.107   6.196  16.305  0.5638 -0.2054  0.0035
18493TIP3    H176970   0.061   6.137  16.246  1.3972  0.4918 -1.3754
18493TIP3    H276971   0.195   6.160  16.313  0.5411 -0.1482  0.6295
18494TIP3   OH276972   4.137   2.902  16.678 -0.6001  0.0114 -0.5652
18494TIP3    H176973   4.127   2.997  16.669 -1.1058 -0.0651 -0.8405
18494TIP3    H276974   4.191   2.877  16.602  0.3297  0.2000  0.0190
18495TIP3   OH276975   3.833   3.848   3.839 -0.4935  0.0731  1.0677
18495TIP3    H176976   3.766   3.836   3.771  0.8882  0.0583 -0.3482
18495TIP3    H276977   3.830   3.942   3.859  0.3132  0.4216 -0.3603
18496TIP3   OH276978   0.619   6.129  11.948  0.1869  0.0479  0.7321
18496TIP3    H176979   0.526   6.140  11.965 -0.0639  2.2924 -1.5236
18496TIP3    H276980   0.660   6.205  11.989  0.5958  0.7340 -0.8791
18497TIP3   OH276981   0.214   3.891  15.607  0.1504  0.2157  0.2372
18497TIP3    H176982   0.260   3.875  15.689  0.7199 -0.3334 -0.1761
18497TIP3    H276983   0.284   3.896  15.541 -0.1088  2.7140  0.0610
18498TIP3   OH276984   4.942   3.562   5.558  0.2015 -0.1566 -0.6206
18498TIP3    H176985   4.865   3.606   5.595  0.8223  0.9643 -0.6293
18498TIP3    H276986   5.008   3.567   5.627  0.6039 -0.1873 -0.9978
18499TIP3   OH276987   1.578   6.444   1.663  0.0772  0.6118 -0.2929
18499TIP3    H176988   1.490   6.447   1.701 -0.8571 -3.5467 -1.6011
18499TIP3    H276989   1.578   6.512   1.596 -2.5863  0.0661 -0.9614
18500TIP3   OH276990   0.578   6.618  16.072 -0.0286  0.1357  0.6557
18500TIP3    H176991   0.567   6.594  16.164 -0.5596 -0.6669  0.3963
18500TIP3    H276992   0.503   6.578  16.028  1.1830 -1.0439 -0.4086
18501TIP3   OH276993   6.240   2.705   4.960  0.2664  0.1760 -0.2689
18501TIP3    H176994   6.230   2.669   5.048 -1.2834  1.1686  0.0121
18501TIP3    H276995   6.285   2.789   4.973 -3.7466  2.5305  0.2793
18502TIP3   OH276996   3.526   2.579   0.530 -0.7977 -0.0381 -0.2865
18502TIP3    H176997   3.432   2.566   0.517 -0.6703  0.0739 -1.4435
18502TIP3    H276998   3.532   2.619   0.616 -1.4987 -3.4976  1.5343
18503TIP3   OH276999   3.736   4.498   2.578 -0.0132  0.4725  0.2832
18503TIP3    H177000   3.704   4.527   2.663  0.0144 -0.3623  0.5834
18503TIP3    H277001   3.696   4.412   2.565 -0.3641  0.7661 -0.7417
18504TIP3   OH277002   2.271   4.405   4.231 -0.2957 -0.1121  0.0142
18504TIP3    H177003   2.269   4.346   4.306 -0.0348 -0.5371 -0.3119
18504TIP3    H277004   2.212   4.365   4.167 -1.6283  0.9645  0.5132
18505TIP3   OH277005   3.400   4.618  10.991  0.1245  0.2430 -0.5986
18505TIP3    H177006   3.406   4.699  11.042  0.9065  0.2288 -0.6596
18505TIP3    H277007   3.431   4.642  10.904 -1.5698  0.3611 -1.2024
18506TIP3   OH277008   2.087   3.008   4.509 -0.0616  0.2937 -0.5047
18506TIP3    H177009   2.011   3.051   4.469 -0.4374 -0.0150 -0.1232
18506TIP3    H277010   2.051   2.932   4.555  0.5631 -0.2431 -0.8948
18507TIP3   OH277011   6.592   1.737  15.680 -0.3178  0.3827  0.3160
18507TIP3    H177012   6.685   1.712  15.682  0.1696  2.1002  1.4788
18507TIP3    H277013   6.591   1.828  15.708 -2.5228 -0.0909  2.0926
18508TIP3   OH277014   3.946   3.159  15.334 -0.0275  0.2338  0.4168
18508TIP3    H177015   3.875   3.188  15.391 -1.4649  1.6615 -1.9667
18508TIP3    H277016   3.933   3.206  15.252  2.5219 -0.9812 -0.8157
18509TIP3   OH277017   6.792   1.522   0.957 -0.3259  0.1966  0.0632
18509TIP3    H177018   6.850   1.449   0.982  0.4512  1.3152  1.6939
18509TIP3    H277019   6.772   1.565   1.040 -0.6569  1.9255 -0.8892
18510TIP3   OH277020   2.049   5.342   3.771  0.1583  0.5692  0.4120
18510TIP3    H177021   1.981   5.408   3.785 -0.6228 -0.0042 -0.5853
18510TIP3    H277022   2.117   5.388   3.720 -1.1300  0.2180 -1.7502
18511TIP3   OH277023   3.749   1.230  16.940  0.0577 -0.0391 -0.5061
18511TIP3    H177024   3.784   1.297  16.999 -1.3144  0.7505 -0.5151
18511TIP3    H277025   3.667   1.269  16.907 -1.6799 -2.3766  0.7741
18512TIP3   OH277026   1.597   0.631   5.031 -0.9512  0.1294 -0.1910
18512TIP3    H177027   1.606   0.569   5.103 -1.2522 -0.0782 -0.3321
18512TIP3    H277028   1.512   0.673   5.046 -1.8399 -1.1494 -1.3792
18513TIP3   OH277029   1.319   0.401   6.131  0.2202 -0.2432 -0.0872
18513TIP3    H177030   1.231   0.381   6.099  0.6880 -0.3254 -1.3742
18513TIP3    H277031   1.305   0.468   6.199 -0.8611 -0.6023  0.0620
18514TIP3   OH277032   2.172   0.822  12.091  0.2729  0.0818 -0.0611
18514TIP3    H177033   2.167   0.741  12.040  0.5655  0.0182  0.0099
18514TIP3    H277034   2.186   0.891  12.025  0.3888  0.0308 -0.0913
18515TIP3   OH277035   2.408   5.430  14.213 -0.0298  0.3202  0.1050
18515TIP3    H177036   2.409   5.458  14.122  1.0285 -0.6676 -0.2185
18515TIP3    H277037   2.483   5.371  14.220  0.1229  0.6738  1.7156
18516TIP3   OH277038   0.145   1.531   0.687 -0.1005  0.0539  0.5869
18516TIP3    H177039   0.173   1.456   0.634  1.3301  1.6322 -1.0501
18516TIP3    H277040   0.207   1.533   0.760  0.5956  0.2702  0.0078
18517TIP3   OH277041   1.596   0.163  16.150 -0.0545 -0.0194  0.6400
18517TIP3    H177042   1.611   0.068  16.150 -0.8917 -0.1550  1.0048
18517TIP3    H277043   1.666   0.198  16.205  0.5372 -0.3705  0.1294
18518TIP3   OH277044   0.840   5.448   0.615 -0.1858  0.0460  0.5238
18518TIP3    H177045   0.876   5.406   0.537 -2.9620  1.3724 -1.6434
18518TIP3    H277046   0.780   5.383   0.652  0.5506 -0.2935  1.1604
18519TIP3   OH277047   0.725   5.665   2.378  0.3038 -0.2543  0.3095
18519TIP3    H177048   0.708   5.692   2.288  0.8403  0.3163  0.3721
18519TIP3    H277049   0.644   5.687   2.425  0.3451  0.2592  0.1438
18520TIP3   OH277050   3.949   5.284   5.604  0.0127  0.4850  0.3463
18520TIP3    H177051   3.969   5.377   5.614  0.4624  0.4620 -0.2805
18520TIP3    H277052   3.868   5.282   5.553 -2.2244  0.6005  3.5935
18521TIP3   OH277053   0.549   1.432  14.275 -0.4650 -0.1483  0.1778
18521TIP3    H177054   0.522   1.344  14.250  0.4237  0.0948 -1.8426
18521TIP3    H277055   0.568   1.476  14.192 -1.0456  2.0167  1.1127
18522TIP3   OH277056   3.485   4.189   4.048  0.7601  0.1916 -0.6704
18522TIP3    H177057   3.533   4.229   3.976  1.2092 -0.6982 -0.8786
18522TIP3    H277058   3.544   4.120   4.081  0.1525 -0.0637 -0.0953
18523TIP3   OH277059   5.830   1.998   5.962 -0.3925  0.5788  0.6195
18523TIP3    H177060   5.805   1.909   5.983  1.2703 -0.3575 -1.0799
18523TIP3    H277061   5.892   2.023   6.031  0.6939 -0.3646  0.0175
18524TIP3   OH277062   4.484   3.488   5.594  0.0713  0.4431  0.6812
18524TIP3    H177063   4.510   3.397   5.608  0.4305  0.4407  0.0247
18524TIP3    H277064   4.550   3.540   5.639  0.6388  0.4104 -0.1017
18525TIP3   OH277065   2.648   2.716  15.637 -0.3616 -0.2768  0.5055
18525TIP3    H177066   2.701   2.793  15.660  0.2833 -0.5992  0.1389
18525TIP3    H277067   2.619   2.732  15.548  1.4335 -1.3100 -0.3395
18526TIP3   OH277068   4.442   2.131   2.487  0.1357  0.2922  0.1211
18526TIP3    H177069   4.466   2.190   2.559  0.2740  0.3138  0.0574
18526TIP3    H277070   4.380   2.069   2.526  0.5909  0.0005  0.3773
18527TIP3   OH277071   3.158   6.046   0.974  0.0432 -0.4113  0.0757
18527TIP3    H177072   3.160   5.958   1.012  1.0280 -0.0699  0.8516
18527TIP3    H277073   3.159   6.031   0.880  0.6230 -1.2323  0.2053
18528TIP3   OH277074   4.988   6.727   0.159 -0.4825 -0.1385 -0.2786
18528TIP3    H177075   5.057   6.792   0.143 -2.1890  1.7044 -0.5062
18528TIP3    H277076   5.027   6.644   0.132  2.1718  0.5660  1.0342
18529TIP3   OH277077   0.078   6.065  13.435 -0.1039  0.2960 -0.6009
18529TIP3    H177078   0.149   6.126  13.416  1.1995  0.0063  2.7074
18529TIP3    H277079   0.120   5.979  13.438 -1.5583 -0.6131 -3.2426
18530TIP3   OH277080   1.418   5.628  17.190  0.3465 -0.0625 -0.0727
18530TIP3    H177081   1.334   5.674  17.185 -0.3944 -1.3419  0.2881
18530TIP3    H277082   1.475   5.678  17.131 -0.9173  0.2887 -1.0660
18531TIP3   OH277083   5.433   1.059   2.590 -0.0160  0.7360 -0.0023
18531TIP3    H177084   5.357   1.100   2.548 -0.4534  0.2435  0.2966
18531TIP3    H277085   5.418   1.072   2.684 -0.2291 -0.2007  0.1086
18532TIP3   OH277086   3.318   1.563   5.018  0.4759  0.0876 -0.0904
18532TIP3    H177087   3.285   1.640   5.064  0.5108  0.3558 -0.5161
18532TIP3    H277088   3.368   1.598   4.944  1.5100 -0.3085  0.3914
18533TIP3   OH277089   5.131   2.628   2.988 -0.0529  0.5931 -0.5657
18533TIP3    H177090   5.176   2.661   2.910  1.3515 -0.7571 -0.3655
18533TIP3    H277091   5.190   2.562   3.024 -0.7927  0.9977  1.5161
18534TIP3   OH277092   4.325   2.295   3.953  0.5292  0.1436  0.0996
18534TIP3    H177093   4.360   2.216   3.994 -1.7588 -1.9494 -1.6467
18534TIP3    H277094   4.347   2.285   3.860 -2.5319 -0.1583 -0.6883
18535TIP3   OH277095   1.444   2.341  14.980 -0.1189 -0.2523  0.4403
18535TIP3    H177096   1.366   2.396  14.987 -0.1331 -0.3952  1.6994
18535TIP3    H277097   1.410   2.251  14.987 -0.4297 -0.7399 -4.1611
18536TIP3   OH277098   1.911   2.896  15.935  0.2061  0.3275  0.2031
18536TIP3    H177099   1.973   2.857  15.873 -0.7184 -0.4389 -0.2681
18536TIP3    H277100   1.963   2.960  15.983  0.7745  1.6838 -2.0317
18537TIP3   OH277101   5.319   2.477  14.002  0.4326  0.1863  0.2339
18537TIP3    H177102   5.260   2.410  14.038  0.9491  0.1283  0.9893
18537TIP3    H277103   5.265   2.555  13.993 -0.6366 -0.7359 -2.2225
18538TIP3   OH277104   2.630   5.813   1.205 -0.2073 -0.4106 -0.4234
18538TIP3    H177105   2.588   5.887   1.162  0.1855 -0.6025 -1.1470
18538TIP3    H277106   2.723   5.822   1.183  0.2216  0.1669  1.3771
18539TIP3   OH277107   4.656   1.155  10.967 -0.0573  0.1479 -0.1565
18539TIP3    H177108   4.623   1.101  10.895  3.8940 -0.5113 -1.7139
18539TIP3    H277109   4.681   1.092  11.035  1.0091  0.2706 -0.4087
18540TIP3   OH277110   6.469   4.948   5.939 -0.0748  0.4549  0.6750
18540TIP3    H177111   6.375   4.965   5.929  0.1290  1.1710 -0.1316
18540TIP3    H277112   6.476   4.903   6.023 -1.0431  1.2205  1.1906
18541TIP3   OH277113   6.315   4.846  15.665  0.7970 -0.0212 -0.0630
18541TIP3    H177114   6.241   4.865  15.608  2.0101  0.8601 -1.4363
18541TIP3    H277115   6.310   4.751  15.679 -1.0599  0.1439  0.6307
18542TIP3   OH277116   2.166   6.374  16.489 -0.0979  0.2091 -0.2824
18542TIP3    H177117   2.079   6.340  16.470 -0.4050  0.9991 -0.3140
18542TIP3    H277118   2.169   6.381  16.584 -0.4284  1.1046 -0.3329
18543TIP3   OH277119   1.151   4.821   0.752  0.0115  0.0387 -0.8236
18543TIP3    H177120   1.091   4.746   0.751  1.7085 -1.3838 -2.4290
18543TIP3    H277121   1.213   4.804   0.681  0.7847  2.7367 -0.9047
18544TIP3   OH277122   3.444   1.566  16.255  0.2890  0.1563  0.0622
18544TIP3    H177123   3.409   1.533  16.338 -2.0407  0.0442 -0.8913
18544TIP3    H277124   3.505   1.498  16.227 -1.9986 -1.9032 -0.2834
18545TIP3   OH277125   3.589   2.692   1.724  0.5733  0.0982  0.2710
18545TIP3    H177126   3.628   2.607   1.702  2.1581  0.6771  0.7185
18545TIP3    H277127   3.606   2.702   1.818 -0.2022  0.6189  0.3585
18546TIP3   OH277128   6.698   2.184   0.533 -0.5201  0.2187 -0.1842
18546TIP3    H177129   6.631   2.150   0.593  0.3386  0.1276  0.7510
18546TIP3    H277130   6.649   2.235   0.469 -1.4592  0.4017  0.6510
18547TIP3   OH277131   3.074   0.827  11.930  0.1651 -0.0313  0.0417
18547TIP3    H177132   3.132   0.804  11.857  1.0511  2.3995 -0.1262
18547TIP3    H277133   3.111   0.909  11.964 -0.0683 -1.1664  3.3915
18548TIP3   OH277134   1.248   0.525   2.734  0.0470  0.2260 -0.0273
18548TIP3    H177135   1.270   0.517   2.641 -2.1451  0.6679 -0.6595
18548TIP3    H277136   1.152   0.520   2.736 -0.0561  1.6867  2.0611
18549TIP3   OH277137   5.837   1.126  15.429  0.1899 -0.5113  0.4225
18549TIP3    H177138   5.819   1.220  15.426  1.1060 -0.3581 -1.0323
18549TIP3    H277139   5.784   1.089  15.357  1.2874 -0.8228 -0.2514
18550TIP3   OH277140   1.640   4.721   4.559  0.0344 -0.2858 -0.2536
18550TIP3    H177141   1.610   4.679   4.478  1.5777  1.9176 -2.0705
18550TIP3    H277142   1.600   4.808   4.557  2.2257  0.7876 -0.0783
18551TIP3   OH277143   1.221   3.882   1.020 -0.4439  0.1596  0.3520
18551TIP3    H177144   1.258   3.922   0.942  0.3681 -1.4423 -0.1348
18551TIP3    H277145   1.248   3.939   1.092  0.0095  0.8913 -0.3807
18552TIP3   OH277146   5.232   4.820  14.920 -0.1917 -0.3149 -0.0056
18552TIP3    H177147   5.166   4.854  14.980  0.5520 -1.0756  1.2851
18552TIP3    H277148   5.271   4.898  14.880 -1.7034  0.1463 -0.6344
18553TIP3   OH277149   6.816   5.738  15.198 -0.0828  0.2625  0.4281
18553TIP3    H177150   6.827   5.681  15.122  1.3807  2.0670 -0.7831
18553TIP3    H277151   6.800   5.825  15.161 -0.4857  0.9935  2.2139
18554TIP3   OH277152   3.596   0.095  14.624 -0.2495 -0.7931  0.0484
18554TIP3    H177153   3.608   0.030  14.554  0.3773  0.6347 -1.2260
18554TIP3    H277154   3.678   0.091  14.674  0.0784 -0.5076 -0.4561
18555TIP3   OH277155   5.056   4.318   2.508  0.0639 -0.6165  0.0839
18555TIP3    H177156   5.115   4.250   2.540 -1.1790 -2.0932 -0.6170
18555TIP3    H277157   5.016   4.354   2.587  0.5981 -0.8334  0.4565
18556TIP3   OH277158   6.016   6.022  15.550 -0.5931 -0.6207 -0.4213
18556TIP3    H177159   6.107   6.005  15.524  0.0801 -2.0630  2.5227
18556TIP3    H277160   5.966   5.952  15.508 -0.0931 -0.8364 -0.6696
18557TIP3   OH277161   5.161   1.356  11.993 -0.5139 -0.2746  0.3333
18557TIP3    H177162   5.194   1.415  11.925 -3.1948  1.5652  0.4744
18557TIP3    H277163   5.094   1.304  11.949  0.5313 -1.9713  0.6688
18558TIP3   OH277164   2.732   4.193  14.885 -0.4100  0.2663  0.1183
18558TIP3    H177165   2.784   4.172  14.808 -2.3656 -0.9585 -0.9567
18558TIP3    H277166   2.737   4.288  14.892  2.5414  0.1762  0.5600
18559TIP3   OH277167   0.114   3.893   3.414 -0.0702 -0.3779  0.0190
18559TIP3    H177168   0.185   3.942   3.373  1.4097 -0.1228  2.6995
18559TIP3    H277169   0.132   3.898   3.508 -1.1969 -4.0548  0.5797
18560TIP3   OH277170   3.206   0.497  13.357  0.2225  0.1357  0.3291
18560TIP3    H177171   3.158   0.505  13.275 -0.4796 -2.7202  0.3388
18560TIP3    H277172   3.138   0.479  13.423  0.9829 -0.3518  0.9995
18561TIP3   OH277173   6.315   6.511  16.209  0.2468  0.3091  0.5498
18561TIP3    H177174   6.270   6.446  16.263  1.9608  0.1213  1.8293
18561TIP3    H277175   6.245   6.561  16.168 -1.1458 -2.0624 -0.1531
18562TIP3   OH277176   0.688   1.226   4.882  0.3699 -0.5994  0.0023
18562TIP3    H177177   0.696   1.201   4.974 -0.0309  1.7832  0.7321
18562TIP3    H277178   0.775   1.259   4.858 -0.1219  0.9214  0.2338
18563TIP3   OH277179   3.062   6.724  17.136 -0.0042 -0.2780 -0.2680
18563TIP3    H177180   3.090   6.803  17.183 -0.2844 -0.7975  0.8050
18563TIP3    H277181   2.980   6.750  17.093 -0.2255 -0.0430  0.2758
18564TIP3   OH277182   1.182   0.444  15.089  0.1146  0.3764 -0.9297
18564TIP3    H177183   1.212   0.364  15.132 -1.5735  0.3531  0.2791
18564TIP3    H277184   1.263   0.492  15.070  1.1239 -1.2927 -1.1052
18565TIP3   OH277185   2.416   1.002  12.980  0.6186 -0.1440  0.2035
18565TIP3    H177186   2.493   1.040  13.022  0.8366 -0.8367  0.4621
18565TIP3    H277187   2.409   0.915  13.020  0.6879 -0.7316 -1.0422
18566TIP3   OH277188   4.539   0.196  11.633 -0.0677 -0.4758 -0.2539
18566TIP3    H177189   4.570   0.270  11.581  1.1864 -1.5435 -1.0403
18566TIP3    H277190   4.534   0.123  11.572  2.7441 -2.1175  1.3032
18567TIP3   OH277191   3.434   0.934   2.390  0.0403 -0.1872  0.6414
18567TIP3    H177192   3.354   0.967   2.349  0.7163 -0.0165 -0.5986
18567TIP3    H277193   3.430   0.966   2.480 -1.8420 -1.1598  0.9546
18568TIP3   OH277194   1.040   1.077  12.442  0.4244  0.0665  0.1771
18568TIP3    H177195   0.996   1.157  12.413  0.7577  0.7815  1.5235
18568TIP3    H277196   1.104   1.059  12.373  0.5000  1.1053 -0.0451
18569TIP3   OH277197   0.385   5.457  11.064  0.0327  0.7739 -0.6919
18569TIP3    H177198   0.328   5.446  11.140 -0.1279  0.1263 -0.8967
18569TIP3    H277199   0.344   5.404  10.995  1.0350  0.0365 -0.7472
18570TIP3   OH277200   6.234   6.810  16.199  0.0909 -0.4796 -0.1383
18570TIP3    H177201   6.221   6.903  16.219 -1.4945 -0.3535 -1.4583
18570TIP3    H277202   6.184   6.764  16.266 -2.8341 -0.1529 -1.8744
18571TIP3   OH277203   6.701   0.884  11.490 -0.0966 -0.0551 -0.5685
18571TIP3    H177204   6.652   0.959  11.456  0.5834  0.9985  0.7368
18571TIP3    H277205   6.638   0.811  11.484 -1.0357  0.7681 -1.1050
18572TIP3   OH277206   3.808   1.550   3.785  0.5328  0.9133 -0.0320
18572TIP3    H177207   3.749   1.507   3.723 -0.7847  2.1183  0.3256
18572TIP3    H277208   3.883   1.578   3.732  0.7434 -0.4897 -0.5294
18573TIP3   OH277209   4.845   4.059   5.779 -0.6010  0.2010  0.3326
18573TIP3    H177210   4.844   4.122   5.851 -0.4581 -1.2440  1.6659
18573TIP3    H277211   4.809   3.979   5.817  1.7697 -1.3550 -0.4823
18574TIP3   OH277212   3.306   6.222   3.211 -0.0148  0.0794  0.2893
18574TIP3    H177213   3.380   6.164   3.192 -1.5664 -1.3307 -1.7963
18574TIP3    H277214   3.249   6.214   3.135 -1.6330  2.2667  1.1897
18575TIP3   OH277215   5.657   0.078  11.916 -0.6521 -0.0744 -0.1434
18575TIP3    H177216   5.616   0.154  11.876 -0.5123  0.4457  0.6828
18575TIP3    H277217   5.586   0.015  11.927 -0.5009 -0.6895 -2.2171
18576TIP3   OH277218   2.085   1.234   2.696  0.0141 -0.5251  0.2796
18576TIP3    H177219   2.020   1.297   2.728 -1.0377 -1.7290  0.6228
18576TIP3    H277220   2.166   1.284   2.689 -0.8438  0.9245  0.2673
18577TIP3   OH277221   4.860   6.118  12.650 -1.2533  0.4489  0.1503
18577TIP3    H177222   4.908   6.053  12.599 -2.7567  1.4412 -2.7369
18577TIP3    H277223   4.927   6.176  12.685 -0.0929 -0.9779  0.3640
18578TIP3   OH277224   0.166   3.220  10.060  0.5170  0.4983 -0.4368
18578TIP3    H177225   0.191   3.312  10.070  0.0010  0.5448  0.5798
18578TIP3    H277226   0.172   3.203   9.966 -0.0511  1.7680 -0.7237
18579TIP3   OH277227   6.279   6.053  12.166  0.3135  0.3186 -0.0694
18579TIP3    H177228   6.369   6.070  12.139  1.0097 -1.4171  0.9959
18579TIP3    H277229   6.226   6.104  12.105  2.0000  1.4379 -0.6780
18580TIP3   OH277230   4.583   1.307   3.826  0.4110  0.2995 -0.0717
18580TIP3    H177231   4.520   1.332   3.893  1.1519  0.8047  0.4457
18580TIP3    H277232   4.652   1.373   3.831  0.1255  0.7835 -1.8469
18581TIP3   OH277233   4.938   1.570  11.843 -0.1733 -0.2358 -0.5092
18581TIP3    H177234   4.997   1.591  11.916 -1.5609 -1.2486  0.9836
18581TIP3    H277235   4.990   1.587  11.765  2.6549 -2.3442  0.6926
18582TIP3   OH277236   6.320   3.958  14.319 -0.1169 -0.1566 -0.1821
18582TIP3    H177237   6.313   3.882  14.262  0.5990 -0.4748  0.1321
18582TIP3    H277238   6.413   3.963  14.340 -0.3173  0.1529  0.6799
18583TIP3   OH277239   1.277   6.256  15.317  0.1223  0.0750  0.4991
18583TIP3    H177240   1.279   6.165  15.287 -1.0379  0.0208  0.5203
18583TIP3    H277241   1.227   6.253  15.399 -2.9212  1.1174 -1.1511
18584TIP3   OH277242   4.410   2.314  11.711 -0.2190 -0.1245 -0.6044
18584TIP3    H177243   4.362   2.249  11.763 -0.7975  0.6714 -0.1230
18584TIP3    H277244   4.352   2.390  11.709  0.2101  0.1867 -1.6301
18585TIP3   OH277245   4.777   0.924  12.277 -0.1559  0.4923 -0.4848
18585TIP3    H177246   4.811   0.838  12.256 -0.8682  0.3246 -0.9997
18585TIP3    H277247   4.807   0.980  12.205  1.4875  1.0103  0.5450
18586TIP3   OH277248   3.682   3.953  13.850  0.0219  0.6884 -0.5848
18586TIP3    H177249   3.717   3.877  13.804  2.1242  1.8246 -0.9657
18586TIP3    H277250   3.663   4.017  13.781  0.0470  1.1906 -0.1388
18587TIP3   OH277251   4.660   2.404   5.030 -0.0041  0.0846  0.3466
18587TIP3    H177252   4.632   2.446   4.949 -0.7510 -0.3489  0.3784
18587TIP3    H277253   4.582   2.361   5.064  0.1662  0.6550  1.5467
18588TIP3   OH277254   0.871   6.049   1.567  0.4504 -0.2030 -0.2552
18588TIP3    H177255   0.816   5.996   1.509 -0.7627 -0.1554  0.7832
18588TIP3    H277256   0.944   5.992   1.590 -0.0031 -0.8711 -0.4266
18589TIP3   OH277257   5.726   3.697  14.193 -0.1464  0.6194  0.2072
18589TIP3    H177258   5.772   3.613  14.188  1.4638  1.4467  0.5387
18589TIP3    H277259   5.718   3.725  14.102 -0.4594  0.2430  0.1135
18590TIP3   OH277260   5.098   2.437  12.820 -0.6492  0.8253 -0.4699
18590TIP3    H177261   5.153   2.493  12.874  0.4709 -1.3177  0.7740
18590TIP3    H277262   5.009   2.470  12.834 -0.1142  1.8129  0.7979
18591TIP3   OH277263   1.295   2.466   0.383 -0.2139  0.2343 -0.6030
18591TIP3    H177264   1.385   2.459   0.351 -0.5857  0.7311 -1.8027
18591TIP3    H277265   1.295   2.546   0.436  1.0168 -1.8559  2.9109
18592TIP3   OH277266   2.763   5.863  13.885 -0.3956  0.0503 -0.5003
18592TIP3    H177267   2.778   5.813  13.966 -0.5240  0.6451 -0.0995
18592TIP3    H277268   2.671   5.847  13.864 -1.1068  1.8939  0.9024
18593TIP3   OH277269   5.502   4.021   4.091  0.4619  0.2540 -0.1732
18593TIP3    H177270   5.514   4.045   4.183 -1.0131 -0.3963  0.2231
18593TIP3    H277271   5.408   4.034   4.075  0.8166  1.1081 -1.8174
18594TIP3   OH277272   1.477   6.084   0.236  0.1566  0.1485 -0.2697
18594TIP3    H177273   1.473   6.041   0.321  0.8050 -0.6075 -0.6112
18594TIP3    H277274   1.551   6.043   0.191  2.1302  3.0152  0.1268
18595TIP3   OH277275   3.361   3.417   2.132  0.8483  0.2201  0.3720
18595TIP3    H177276   3.454   3.398   2.140  0.7075 -0.9142 -0.3748
18595TIP3    H277277   3.323   3.336   2.099 -0.2169  1.0598 -0.5534
18596TIP3   OH277278   1.041   5.818  15.921 -0.4832 -0.1108 -0.6340
18596TIP3    H177279   1.013   5.878  15.991 -0.3443  0.1098 -0.7662
18596TIP3    H277280   1.080   5.875  15.855  1.2793 -0.4844  0.0271
18597TIP3   OH277281   2.821   0.644  10.987 -0.1368 -0.6543 -0.1263
18597TIP3    H177282   2.835   0.711  10.921 -1.5666  0.2655  0.4552
18597TIP3    H277283   2.879   0.572  10.962  0.8064  0.4561 -1.2345
18598TIP3   OH277284   5.737   3.312   4.598  0.1061  0.5409  0.0866
18598TIP3    H177285   5.762   3.257   4.672  2.2098 -0.3279 -1.2029
18598TIP3    H277286   5.737   3.253   4.522  0.8852  1.9650 -1.0735
18599TIP3   OH277287   5.729   2.065   5.154  0.1321 -0.5084  0.2850
18599TIP3    H177288   5.671   2.141   5.162 -1.5252 -1.8979  2.5780
18599TIP3    H277289   5.771   2.057   5.239  1.6148 -1.2022 -0.4645
18600TIP3   OH277290   1.448   1.882  14.024 -0.0863  0.6536 -0.0593
18600TIP3    H177291   1.426   1.930  14.105 -1.7745 -0.6924  0.3397
18600TIP3    H277292   1.370   1.891  13.969  1.0642  1.6047 -1.6166
18601TIP3   OH277293   4.320   0.423  17.065  0.0414  0.3643 -0.1608
18601TIP3    H177294   4.271   0.341  17.058 -0.6411  0.6060  1.3463
18601TIP3    H277295   4.311   0.464  16.979  0.9057 -1.4026 -1.1291
18602TIP3   OH277296   4.229   5.394   0.678 -0.7191 -0.0580 -0.6209
18602TIP3    H177297   4.147   5.443   0.689 -0.6807 -0.2604  0.7440
18602TIP3    H277298   4.287   5.454   0.633 -1.2624  0.4927 -0.6034
18603TIP3   OH277299   2.696   5.964   2.501  0.1400  0.2390 -0.0346
18603TIP3    H177300   2.705   5.899   2.571 -0.6720 -0.8001 -0.8684
18603TIP3    H277301   2.695   6.048   2.546  0.6759 -0.3520  1.1141
18604TIP3   OH277302   6.656   3.269  17.166 -0.4463  1.1237  0.6271
18604TIP3    H177303   6.580   3.278  17.224 -1.1471 -0.3964  0.0111
18604TIP3    H277304   6.620   3.233  17.085  1.1171 -1.3185  0.9160
18605TIP3   OH277305   4.797   0.277  12.565 -0.5733  0.5564  0.8281
18605TIP3    H177306   4.789   0.289  12.470 -1.1446  1.8734  1.0272
18605TIP3    H277307   4.774   0.361  12.602  0.4373  0.2987  2.1238
18606TIP3   OH277308   5.646   2.561  13.376 -0.2072  0.2206 -0.4680
18606TIP3    H177309   5.605   2.563  13.290 -0.9907  0.9638 -0.0949
18606TIP3    H277310   5.664   2.653  13.396 -0.2504  0.0801  0.2544
18607TIP3   OH277311   5.912   2.601  13.784  0.5949 -0.8262 -0.6186
18607TIP3    H177312   5.989   2.552  13.754  1.2336 -1.2489  1.5255
18607TIP3    H277313   5.895   2.567  13.872 -1.0019  0.4984 -0.3691
18608TIP3   OH277314   4.300   1.956   2.638  0.0482 -0.0225 -0.4202
18608TIP3    H177315   4.208   1.977   2.656  0.1952  0.4808 -0.2136
18608TIP3    H277316   4.334   1.924   2.721  0.3291  0.8245 -0.1919
18609TIP3   OH277317   1.470   1.169   1.063 -0.2296  0.4034 -0.2263
18609TIP3    H177318   1.560   1.184   1.093 -0.2920 -1.8102  1.3039
18609TIP3    H277319   1.462   1.074   1.056 -2.6289  0.5048  0.3101
18610TIP3   OH277320   0.299   3.525  15.193  0.6447  0.1123 -0.1916
18610TIP3    H177321   0.220   3.505  15.243  1.2512 -2.4828 -0.1068
18610TIP3    H277322   0.272   3.517  15.102  0.1437  2.2728 -0.2702
18611TIP3   OH277323   4.355   1.684  15.413 -0.7098 -0.4236  0.0834
18611TIP3    H177324   4.310   1.766  15.431 -2.5248 -1.4898  0.7361
18611TIP3    H277325   4.288   1.629  15.372  0.8138 -1.1712 -1.5417
18612TIP3   OH277326   6.658   4.886  12.852  0.3947  0.1992  0.2243
18612TIP3    H177327   6.580   4.835  12.874  0.6619  0.9054  3.2184
18612TIP3    H277328   6.730   4.838  12.892  2.0112 -1.4957 -4.0636
18613TIP3   OH277329   1.949   3.769  16.524  0.3299 -0.1641 -0.0394
18613TIP3    H177330   2.038   3.774  16.488  0.2993 -0.8654 -0.2204
18613TIP3    H277331   1.960   3.787  16.617  0.3887  1.8824 -0.3779
18614TIP3   OH277332   0.168   5.228   2.057  0.2765  0.9656  0.3470
18614TIP3    H177333   0.124   5.195   2.135 -0.5076  2.2506  0.4737
18614TIP3    H277334   0.198   5.150   2.011 -2.7053 -0.0583 -0.0910
18615TIP3   OH277335   6.708   0.261   2.396 -0.5358  0.2202 -0.2182
18615TIP3    H177336   6.732   0.182   2.347 -0.7894 -0.5473  0.8666
18615TIP3    H277337   6.651   0.310   2.337 -1.9968 -1.3651 -0.1977
18616TIP3   OH277338   2.676   6.782   4.771 -0.5857  0.6704  0.9513
18616TIP3    H177339   2.734   6.806   4.844 -1.8280  3.3498  1.1565
18616TIP3    H277340   2.599   6.744   4.814  0.1365 -1.1085  0.7709
18617TIP3   OH277341   1.659   4.164  15.240 -0.2223  0.0881 -0.5090
18617TIP3    H177342   1.731   4.166  15.176  0.2874 -0.7919  0.0252
18617TIP3    H277343   1.655   4.073  15.269  0.2680  0.6711  1.5194
18618TIP3   OH277344   1.303   0.190   4.297 -0.0488 -0.0320  1.4204
18618TIP3    H177345   1.300   0.104   4.340  2.0314 -0.4489  0.8348
18618TIP3    H277346   1.360   0.243   4.354 -0.9652  0.8376  1.5461
18619TIP3   OH277347   4.310   3.878  15.696 -0.1669  0.4370  0.3853
18619TIP3    H177348   4.261   3.802  15.727 -0.6102  0.8678  0.7524
18619TIP3    H277349   4.358   3.845  15.619 -0.3367 -0.2144  0.5478
18620TIP3   OH277350   1.434   3.593   2.419  0.1421  0.0902 -0.6680
18620TIP3    H177351   1.456   3.500   2.430  2.5751  0.4261 -2.0195
18620TIP3    H277352   1.441   3.630   2.506  3.1528 -0.3019 -0.6267
18621TIP3   OH277353   5.189   3.483  14.708 -0.0439  0.4595  0.2346
18621TIP3    H177354   5.208   3.390  14.696 -0.4114  0.1335  1.8832
18621TIP3    H277355   5.150   3.511  14.625  0.2726 -0.8003 -0.3593
18622TIP3   OH277356   6.244   4.895   0.219 -0.1930 -0.6937  1.0154
18622TIP3    H177357   6.195   4.816   0.245 -1.7741 -0.3620 -0.7271
18622TIP3    H277358   6.177   4.963   0.214  0.2451 -0.3530 -2.0554
18623TIP3   OH277359   2.296   4.359  13.415 -0.4482 -0.1763 -0.0041
18623TIP3    H177360   2.340   4.300  13.476 -0.8674  0.6298  1.1159
18623TIP3    H277361   2.303   4.316  13.330  2.2480 -0.2476  0.1676
18624TIP3   OH277362   5.243   6.627   6.665 -0.4885  0.0053  0.2519
18624TIP3    H177363   5.245   6.692   6.595 -0.0086 -2.2530 -1.9327
18624TIP3    H277364   5.265   6.678   6.744  0.2697  2.4042 -1.3747
18625TIP3   OH277365   3.350   0.482  11.480 -0.2015  0.0268  0.1005
18625TIP3    H177366   3.417   0.547  11.461  0.4538 -0.7269 -0.2010
18625TIP3    H277367   3.283   0.497  11.413 -0.3259  0.7503  0.3743
18626TIP3   OH277368   5.739   0.916  14.255  0.1111  0.6569 -0.4038
18626TIP3    H177369   5.751   0.834  14.303  0.2399  1.4535  0.9886
18626TIP3    H277370   5.649   0.943  14.276 -0.8270 -0.2967 -2.8015
18627TIP3   OH277371   3.015   1.428   5.592  0.3351  0.1655 -0.4951
18627TIP3    H177372   3.081   1.456   5.655  0.4030  0.7011 -0.7935
18627TIP3    H277373   2.967   1.508   5.571 -0.5466 -0.2569 -0.1285
18628TIP3   OH277374   1.967   4.601   2.945  0.4927  0.3209 -0.5872
18628TIP3    H177375   1.957   4.662   3.018  1.3281  1.4628 -1.3882
18628TIP3    H277376   1.882   4.601   2.902  0.3658  0.5942 -0.3406
18629TIP3   OH277377   5.317   5.295  12.644  0.4300  0.0032 -0.4213
18629TIP3    H177378   5.394   5.240  12.629  0.1976 -0.3989 -0.1498
18629TIP3    H277379   5.261   5.243  12.702  0.0872  0.4153 -0.3789
18630TIP3   OH277380   4.064   0.555  15.154  0.6275  0.3332 -0.6875
18630TIP3    H177381   4.126   0.497  15.109 -0.5786 -0.1764 -1.7564
18630TIP3    H277382   4.119   0.623  15.192  2.0406 -1.1741  0.1297
18631TIP3   OH277383   3.738   3.448   4.676  0.6837 -0.2726 -0.0506
18631TIP3    H177384   3.696   3.372   4.716 -1.7777 -0.2122 -2.2801
18631TIP3    H277385   3.829   3.420   4.662  0.1922 -2.2804  0.4433
18632TIP3   OH277386   0.999   6.191  15.074 -0.2314  0.2757 -0.2213
18632TIP3    H177387   0.978   6.110  15.119  2.8694  0.1417  1.2302
18632TIP3    H277388   1.003   6.257  15.143  1.8965  0.6284 -0.6083
18633TIP3   OH277389   0.389   1.631  17.033 -0.6028 -0.6859  0.1572
18633TIP3    H177390   0.336   1.707  17.057 -0.3832 -0.2579 -0.6739
18633TIP3    H277391   0.403   1.584  17.115  0.8068  1.1591  1.0312
18634TIP3   OH277392   2.734   3.372   0.640  0.3507  0.2940  0.3293
18634TIP3    H177393   2.649   3.358   0.683  1.0052  0.2376  1.6483
18634TIP3    H277394   2.731   3.463   0.612 -0.8106 -0.1614 -1.2248
18635TIP3   OH277395   0.336   3.574  16.651  0.0467 -0.0963  0.2812
18635TIP3    H177396   0.362   3.482  16.655 -2.2332 -0.7605  0.9416
18635TIP3    H277397   0.241   3.573  16.658 -0.2040  2.2198 -1.5506
18636TIP3   OH277398   5.733   1.762   6.086 -0.2146 -0.1976  0.2938
18636TIP3    H177399   5.704   1.804   6.167 -1.7741 -0.3076 -0.1631
18636TIP3    H277400   5.674   1.686   6.076 -0.6626  0.3253 -1.3851
18637TIP3   OH277401   5.082   3.856   1.094  0.2733  0.2235 -0.0148
18637TIP3    H177402   5.047   3.808   1.170  1.3784 -1.1003 -0.3019
18637TIP3    H277403   5.170   3.882   1.121 -0.7982  3.5561  0.7109
18638TIP3   OH277404   3.723   2.070   0.077  0.2116 -0.0771  0.0650
18638TIP3    H177405   3.654   2.021   0.031  0.2660  0.1411 -0.2475
18638TIP3    H277406   3.767   2.004   0.131 -0.3189 -0.1929  0.3551
18639TIP3   OH277407   4.089   4.953  12.403  0.2010  0.4953 -0.4316
18639TIP3    H177408   4.085   5.032  12.456 -1.4609  1.4752 -1.8993
18639TIP3    H277409   4.001   4.944  12.367  0.5932 -1.5523 -0.9848
18640TIP3   OH277410   1.515   3.577   2.155  0.4101  0.5886 -0.1805
18640TIP3    H177411   1.463   3.640   2.104  0.1888  0.6275  0.0894
18640TIP3    H277412   1.493   3.596   2.246  2.1698  1.7536  0.0665
18641TIP3   OH277413   2.746   4.528  16.089 -0.0950 -0.2168  0.4442
18641TIP3    H177414   2.678   4.486  16.142  1.8715 -0.4013  3.0337
18641TIP3    H277415   2.827   4.515  16.139  1.2434  3.4502 -0.4083
18642TIP3   OH277416   6.168   5.358   1.888  0.0704 -0.1940  0.1005
18642TIP3    H177417   6.232   5.364   1.817  1.4163  0.5616  1.3304
18642TIP3    H277418   6.220   5.342   1.967 -1.4885 -2.3259  0.7842
18643TIP3   OH277419   2.449   2.076  14.300  0.1338  0.2746 -0.3643
18643TIP3    H177420   2.403   2.052  14.381 -1.0916  0.5160 -0.9737
18643TIP3    H277421   2.431   2.170  14.289  0.8946  0.4045 -0.5419
18644TIP3   OH277422   3.334   3.515   1.322  0.6537  0.7412  0.1627
18644TIP3    H177423   3.389   3.525   1.400  2.3408  1.8382 -1.0934
18644TIP3    H277424   3.372   3.575   1.258 -1.9842  1.4707 -0.8407
18645TIP3   OH277425   4.858   2.657  16.265 -0.1682  0.1267 -0.1595
18645TIP3    H177426   4.939   2.606  16.266 -0.8302 -0.9633 -0.6434
18645TIP3    H277427   4.793   2.599  16.303 -0.6544  1.1434  0.6081
18646TIP3   OH277428   0.187   3.865   2.627  0.1104  0.1906  0.2465
18646TIP3    H177429   0.274   3.875   2.588 -0.4451 -0.0331 -1.0941
18646TIP3    H277430   0.198   3.796   2.693  1.5380  2.0248  2.0200
18647TIP3   OH277431   2.643   4.404  14.396 -0.2075  0.7843 -0.1262
18647TIP3    H177432   2.619   4.312  14.404 -0.4493  0.8571  0.0053
18647TIP3    H277433   2.567   4.444  14.352 -0.7453  1.2029  1.1448
18648TIP3   OH277434   2.704   1.586  12.607  0.0982  0.3694  0.3115
18648TIP3    H177435   2.651   1.632  12.541  0.4903 -0.5305 -0.6428
18648TIP3    H277436   2.655   1.599  12.689 -0.6271  1.1253 -0.2166
18649TIP3   OH277437   6.295   1.541   6.059 -0.0698 -0.4563 -0.1681
18649TIP3    H177438   6.228   1.541   6.127  0.8679  0.0978  0.7799
18649TIP3    H277439   6.372   1.504   6.100  0.6254  0.2437 -0.7996
18650TIP3   OH277440   1.496   3.061   3.710 -0.4314 -0.2185  0.3381
18650TIP3    H177441   1.576   3.082   3.662 -1.3154  2.4492 -0.1287
18650TIP3    H277442   1.460   2.985   3.664 -0.3382  1.1474 -2.1859
18651TIP3   OH277443   0.420   3.783  13.558 -0.8782  0.2587 -0.4152
18651TIP3    H177444   0.472   3.764  13.480 -0.3754 -0.0446 -0.0102
18651TIP3    H277445   0.425   3.879  13.566  0.5629  0.1494  0.2538
18652TIP3   OH277446   4.689   1.289   1.478  0.3465 -0.2975  0.4275
18652TIP3    H177447   4.782   1.290   1.452 -0.0596  1.8309 -1.2172
18652TIP3    H277448   4.682   1.360   1.542 -0.6081  1.4594 -1.5325
18653TIP3   OH277449   1.723   6.332   0.692  0.2996 -0.1287 -0.2489
18653TIP3    H177450   1.786   6.262   0.674 -0.7310 -0.8259 -1.3468
18653TIP3    H277451   1.705   6.325   0.786  2.3063  0.5138  0.2333
18654TIP3   OH277452   6.257   1.931   6.637  0.1580 -0.1163  0.0544
18654TIP3    H177453   6.299   2.004   6.593  1.0230 -0.8477 -0.3449
18654TIP3    H277454   6.167   1.932   6.605  0.8262 -0.7860 -1.9537
18655TIP3   OH277455   1.354   5.799   2.287 -0.5257  0.2294 -0.0697
18655TIP3    H177456   1.369   5.725   2.228 -1.8327 -0.2181  0.1446
18655TIP3    H277457   1.415   5.784   2.359  0.9734  0.6970 -1.1826
18656TIP3   OH277458   6.503   4.683  15.204  0.3542 -0.3547 -0.3678
18656TIP3    H177459   6.472   4.603  15.246 -0.0648 -0.0127 -0.0194
18656TIP3    H277460   6.437   4.701  15.137  0.8171 -0.6844 -0.9271
18657TIP3   OH277461   1.722   4.015  13.733 -0.0806 -0.1183  0.3175
18657TIP3    H177462   1.686   4.024  13.821 -1.1077  1.5658 -0.2216
18657TIP3    H277463   1.797   3.956  13.743 -0.5239 -0.4192  2.1988
18658TIP3   OH277464   5.786   5.906  15.419 -0.2086  0.2270 -0.2733
18658TIP3    H177465   5.724   5.954  15.473  0.5728  2.0429 -0.9102
18658TIP3    H277466   5.783   5.950  15.334 -0.0499 -1.3914 -1.1586
18659TIP3   OH277467   3.828   4.257   2.831  0.5435  0.2419  0.0391
18659TIP3    H177468   3.867   4.338   2.862  0.8851  0.2196 -0.3356
18659TIP3    H277469   3.752   4.244   2.888  1.0914  0.2652  0.7975
18660TIP3   OH277470   0.608   2.045   0.979  0.1807  0.3774  0.0167
18660TIP3    H177471   0.657   2.059   0.898  0.5901  0.8142  0.3379
18660TIP3    H277472   0.662   2.086   1.047  1.1195 -2.1183  0.9016
18661TIP3   OH277473   2.270   5.972   4.635 -0.4787 -0.3091  0.3892
18661TIP3    H177474   2.224   5.911   4.692 -0.2581 -1.8353 -1.0134
18661TIP3    H277475   2.363   5.950   4.646 -0.3039  0.4806  0.6273
18662TIP3   OH277476   2.339   0.451  15.954  0.1044 -0.0894  0.0916
18662TIP3    H177477   2.303   0.425  15.869 -0.6660  0.8561  0.1224
18662TIP3    H277478   2.297   0.392  16.016 -1.1138  0.7254  0.0756
18663TIP3   OH277479   4.680   5.616  16.983 -0.4555  0.2828  0.0461
18663TIP3    H177480   4.742   5.544  16.974 -1.1040 -0.2091 -0.6526
18663TIP3    H277481   4.597   5.580  16.951 -1.0849  0.9446  0.8933
18664TIP3   OH277482   2.410   0.450   4.229  0.0653  0.2226  0.6284
18664TIP3    H177483   2.345   0.467   4.297  0.1262 -1.4658  1.1670
18664TIP3    H277484   2.435   0.358   4.243  1.7649  0.5151 -0.2489
18665TIP3   OH277485   2.585   5.862   1.471  1.0232  0.1581  0.6727
18665TIP3    H177486   2.581   5.958   1.462 -2.0186  0.0704  0.1623
18665TIP3    H277487   2.625   5.832   1.389  1.1756  0.9265  0.4546
18666TIP3   OH277488   3.450   3.892   5.466  0.1612 -0.5501 -0.3435
18666TIP3    H177489   3.512   3.882   5.539  0.1461 -1.3983 -0.4328
18666TIP3    H277490   3.469   3.979   5.431  1.5165 -0.9041 -0.5476
18667TIP3   OH277491   5.819   6.822  13.485  0.0484  0.2005  0.0668
18667TIP3    H177492   5.882   6.751  13.477 -1.0691 -0.7989 -0.3188
18667TIP3    H277493   5.824   6.869  13.401  0.6450  0.4477  0.2419
18668TIP3   OH277494   4.893   1.783   6.459 -0.0689 -0.5361 -0.4621
18668TIP3    H177495   4.989   1.778   6.456  0.1612  1.0802  1.6993
18668TIP3    H277496   4.867   1.707   6.511  0.0577 -0.7312 -0.6794
18669TIP3   OH277497   4.089   0.869  12.612 -0.1308  0.3442 -0.0478
18669TIP3    H177498   4.075   0.876  12.517 -2.0144  0.2810  0.1943
18669TIP3    H277499   4.178   0.903  12.625  0.7389 -0.9580 -1.9880
18670TIP3   OH277500   6.369   3.404  15.666 -0.0736  1.0362  0.0551
18670TIP3    H177501   6.445   3.386  15.722 -2.2806  0.4652  3.1427
18670TIP3    H277502   6.365   3.499  15.660  1.0030  1.0652 -0.3919
18671TIP3   OH277503   3.777   4.074   2.307  0.1375 -0.9436 -0.1544
18671TIP3    H177504   3.789   4.125   2.387 -0.5502 -1.6114  0.3919
18671TIP3    H277505   3.697   4.109   2.268  0.3925 -0.7165 -0.4773
18672TIP3   OH277506   3.472   5.888  16.891  0.2634  0.3913 -0.1898
18672TIP3    H177507   3.545   5.840  16.852 -0.0615 -1.3033  1.1365
18672TIP3    H277508   3.506   5.918  16.976 -0.3697  0.1260  0.1670
18673TIP3   OH277509   4.265   1.367   5.888 -0.5505 -0.2696 -0.2383
18673TIP3    H177510   4.314   1.296   5.928 -0.7477 -1.1363 -1.4882
18673TIP3    H277511   4.216   1.326   5.817 -1.2081  0.9956 -0.5492
18674TIP3   OH277512   2.766   2.414   6.372  0.3088 -0.0879 -0.3874
18674TIP3    H177513   2.730   2.501   6.352  0.6919  0.4707  1.1905
18674TIP3    H277514   2.846   2.433   6.420  2.2915 -1.3047 -2.9439
18675TIP3   OH277515   5.282   4.823   2.646 -0.1571  0.1647 -0.1452
18675TIP3    H177516   5.343   4.755   2.675  0.3246  0.6552  0.0100
18675TIP3    H277517   5.208   4.774   2.608 -0.6372 -0.4795  1.5388
18676TIP3   OH277518   5.493   2.508   0.755 -0.3961  0.7000  0.4879
18676TIP3    H177519   5.429   2.511   0.826 -0.4814  0.6278  0.4148
18676TIP3    H277520   5.477   2.424   0.712 -2.0169  1.7813 -1.1615
18677TIP3   OH277521   5.592   4.673  12.838 -0.2547  0.0197  0.1468
18677TIP3    H177522   5.540   4.643  12.912  0.4213  1.0439  1.0818
18677TIP3    H277523   5.634   4.754  12.869  1.1568 -0.2675 -0.8648
18678TIP3   OH277524   2.933   6.110  14.533 -0.6272  0.3368  0.1562
18678TIP3    H177525   2.938   6.193  14.581 -1.2167  1.2856 -1.3604
18678TIP3    H277526   3.023   6.078  14.533 -0.5541  0.4543  1.6046
18679TIP3   OH277527   4.227   1.220  11.590 -0.3089  0.2474 -0.2323
18679TIP3    H177528   4.270   1.301  11.614 -3.0963  1.1782  2.3422
18679TIP3    H277529   4.147   1.247  11.544 -0.3233 -1.1656 -1.1291
18680TIP3   OH277530   4.124   0.820  14.484  0.0817  0.1470  0.1319
18680TIP3    H177531   4.097   0.875  14.410  3.1095  1.0909 -0.3880
18680TIP3    H277532   4.111   0.876  14.561  0.3124  0.4810 -0.0695
18681TIP3   OH277533   2.836   5.094  14.788  0.0412 -0.5943 -0.6546
18681TIP3    H177534   2.823   5.023  14.850  0.6133 -1.0314 -1.0296
18681TIP3    H277535   2.800   5.062  14.706 -2.9324  0.8647 -0.0567
18682TIP3   OH277536   1.771   0.150  10.514 -0.0299 -0.3236  0.2724
18682TIP3    H177537   1.818   0.081  10.467 -0.3098  1.6075 -3.1939
18682TIP3    H277538   1.834   0.221  10.522 -1.4649  1.4107 -2.3238
18683TIP3   OH277539   2.209   6.627   5.129 -0.1523 -0.0410  0.6015
18683TIP3    H177540   2.164   6.707   5.156 -2.0726 -0.9340  0.2379
18683TIP3    H277541   2.170   6.605   5.045  1.3850 -0.5986  0.0125
18684TIP3   OH277542   3.072   3.974  15.463 -0.5693  0.3228  0.2697
18684TIP3    H177543   3.074   3.965  15.558  0.8203 -0.8494  0.1625
18684TIP3    H277544   3.121   4.055  15.445 -1.6269  1.0517  0.5705
18685TIP3   OH277545   3.122   0.432  16.285 -0.2383  0.5172 -0.4950
18685TIP3    H177546   3.063   0.423  16.211  0.3235 -0.3853 -0.8502
18685TIP3    H277547   3.105   0.355  16.339 -0.6279  1.1563  0.3065
18686TIP3   OH277548   2.622   6.177  14.122 -0.2730  0.0395  0.3767
18686TIP3    H177549   2.590   6.267  14.119  0.2828  0.2246 -0.1565
18686TIP3    H277550   2.695   6.179  14.183 -0.5210 -0.1403  0.6831
18687TIP3   OH277551   3.165   3.877   2.168  0.5549 -0.2581  0.1426
18687TIP3    H177552   3.134   3.911   2.251  1.9185  0.0179  0.5532
18687TIP3    H277553   3.150   3.783   2.174  1.7376 -0.4130  1.2224
18688TIP3   OH277554   1.634   0.325   3.770  0.0308  0.0863  0.5223
18688TIP3    H177555   1.566   0.333   3.703  0.4278 -1.1094 -0.0562
18688TIP3    H277556   1.714   0.357   3.727 -0.1761  1.7323  1.2818
18689TIP3   OH277557   3.002   6.395   2.490  0.2297 -0.1052 -0.7149
18689TIP3    H177558   3.017   6.473   2.543 -1.0494 -0.6654  0.5491
18689TIP3    H277559   2.924   6.415   2.439  0.7112 -0.0494 -1.4350
18690TIP3   OH277560   3.616   2.650  14.193  0.0017 -0.0283  0.3347
18690TIP3    H177561   3.549   2.644  14.261 -0.5945  1.0510 -0.1245
18690TIP3    H277562   3.667   2.570  14.202 -1.0723 -0.6663  1.0006
18691TIP3   OH277563   2.929   0.837   4.261  0.2464 -0.2784  0.0656
18691TIP3    H177564   2.958   0.886   4.338  0.6093 -0.2387 -0.0951
18691TIP3    H277565   2.924   0.903   4.192 -2.9177  0.3082  0.7076
18692TIP3   OH277566   0.206   3.781  15.224 -0.0920 -0.9146  0.1384
18692TIP3    H177567   0.178   3.798  15.134  2.0617 -0.3350 -0.4819
18692TIP3    H277568   0.246   3.694  15.220  1.5056 -0.2167  0.1032
18693TIP3   OH277569   4.621   2.927   3.162  0.2235  0.2139 -0.4412
18693TIP3    H177570   4.598   2.965   3.247 -0.4844  1.5334 -1.1943
18693TIP3    H277571   4.542   2.935   3.110  0.6646 -0.5414 -1.2552
18694TIP3   OH277572   0.198   5.710   1.104  0.7130  0.0705 -0.7462
18694TIP3    H177573   0.209   5.804   1.087  4.3156 -0.0537 -0.0033
18694TIP3    H277574   0.132   5.682   1.041 -1.4603  3.2754 -0.1409
18695TIP3   OH277575   5.430   0.768  13.253 -0.6700 -0.2921 -0.2833
18695TIP3    H177576   5.422   0.678  13.221 -1.0900  0.0842 -1.2754
18695TIP3    H277577   5.357   0.778  13.314 -0.4770 -0.6990  0.0208
18696TIP3   OH277578   0.438   2.398  11.864 -0.2796  0.2282 -0.1980
18696TIP3    H177579   0.391   2.482  11.861  0.2615  0.7890  3.1627
18696TIP3    H277580   0.507   2.408  11.799 -1.3135  1.6679 -1.1398
18697TIP3   OH277581   4.303   1.791  16.001 -0.3089 -0.1441 -0.0941
18697TIP3    H177582   4.230   1.747  16.044 -1.2714 -0.9036 -2.3375
18697TIP3    H277583   4.363   1.814  16.072 -0.7314 -3.2384  1.4141
18698TIP3   OH277584   3.518   0.588   2.074 -0.2621 -0.0070 -0.3364
18698TIP3    H177585   3.538   0.531   2.148 -1.6607 -0.8888 -0.6001
18698TIP3    H277586   3.433   0.558   2.043 -0.7441  1.8031 -0.9073
18699TIP3   OH277587   5.019   2.346  13.489  0.1711 -0.3491 -0.2967
18699TIP3    H177588   5.054   2.295  13.416 -0.2920 -0.2831 -0.5729
18699TIP3    H277589   4.987   2.281  13.551  2.4609 -0.4746  0.8510
18700TIP3   OH277590   5.452   6.102  15.566  0.2633 -0.3803 -0.5626
18700TIP3    H177591   5.357   6.097  15.575  0.1307 -0.0981 -1.7083
18700TIP3    H277592   5.485   6.025  15.612 -0.4733 -0.1669  0.3586
18701TIP3   OH277593   3.886   2.863   3.106  0.4800 -0.0209  0.3802
18701TIP3    H177594   3.834   2.938   3.079  0.8772  1.0323  2.3336
18701TIP3    H277595   3.844   2.834   3.188  1.2010 -1.0065  0.4109
18702TIP3   OH277596   2.648   0.885  12.626  0.2567 -0.2534  0.4041
18702TIP3    H177597   2.617   0.803  12.664 -1.3527  0.6137  1.0655
18702TIP3    H277598   2.570   0.923  12.585  1.4643 -0.1158 -1.9318
18703TIP3   OH277599   2.006   2.646   3.903 -0.4382 -0.3889  0.3231
18703TIP3    H177600   2.067   2.703   3.856 -0.4304  0.6578  1.5659
18703TIP3    H277601   1.980   2.581   3.837  1.2115 -0.2659 -0.5273
18704TIP3   OH277602   3.746   3.832   0.865  0.6186  1.0174  0.0640
18704TIP3    H177603   3.798   3.842   0.945  1.9397  0.9039 -0.7520
18704TIP3    H277604   3.805   3.788   0.803 -1.3911 -2.0226  0.0521
18705TIP3   OH277605   2.856   1.654  10.776  0.1311  0.1434 -0.1978
18705TIP3    H177606   2.824   1.650  10.866  1.2063  2.6063  0.3954
18705TIP3    H277607   2.781   1.630  10.722 -0.6587 -0.9205  1.3172
18706TIP3   OH277608   2.511   6.286   1.008  0.3970 -0.0236 -0.4380
18706TIP3    H177609   2.489   6.210   0.953 -1.9626 -0.3546  0.8017
18706TIP3    H277610   2.460   6.358   0.970  0.5355  0.2860 -0.0412
18707TIP3   OH277611   1.791   3.967   4.040  0.2453  0.1117 -0.2523
18707TIP3    H177612   1.821   3.972   3.950 -0.1834  0.7339 -0.3681
18707TIP3    H277613   1.757   4.054   4.059  1.3634  0.3231  0.8849
18708TIP3   OH277614   3.858   6.030   0.203 -0.0145 -0.0980 -0.1148
18708TIP3    H177615   3.882   6.016   0.111  0.8708  1.3052 -0.1197
18708TIP3    H277616   3.941   6.025   0.251 -0.2598  0.7237  0.4078
18709TIP3   OH277617   0.410   2.550  10.971  0.7251  0.1681  0.0712
18709TIP3    H177618   0.427   2.458  10.951  1.5666  0.1070  0.9518
18709TIP3    H277619   0.456   2.598  10.902  0.2489 -0.0683 -0.4157
18710TIP3   OH277620   6.409   0.890   1.710 -0.7311 -0.4400  0.2429
18710TIP3    H177621   6.372   0.824   1.651  1.2992 -0.3577 -1.2476
18710TIP3    H277622   6.466   0.841   1.769 -1.1704 -0.2843  0.8044
18711TIP3   OH277623   2.638   2.183   2.068  0.1819 -0.0429 -0.5933
18711TIP3    H177624   2.680   2.186   2.154 -1.0388  2.2930  0.0058
18711TIP3    H277625   2.568   2.119   2.079 -0.2663  0.5776  0.3322
18712TIP3   OH277626   1.143   0.639  13.316 -0.5083  0.6401  0.0878
18712TIP3    H177627   1.127   0.653  13.223 -1.4577  0.6859  0.2516
18712TIP3    H277628   1.188   0.718  13.345 -1.3614  1.1989 -0.0657
18713TIP3   OH277629   0.981   2.248  11.400 -0.0182  0.2440  0.0335
18713TIP3    H177630   0.984   2.153  11.403 -0.0956  0.2313 -0.2561
18713TIP3    H277631   1.070   2.276  11.421 -0.1571  0.1302  0.8166
18714TIP3   OH277632   5.545   1.780  15.888  0.1057 -0.1584  0.1699
18714TIP3    H177633   5.602   1.762  15.962  1.9611 -0.1297 -1.1760
18714TIP3    H277634   5.590   1.850  15.839 -2.1347  1.3802  0.1423
18715TIP3   OH277635   6.740   3.005   1.867  0.7424 -0.2382  0.8449
18715TIP3    H177636   6.664   3.036   1.818  0.1878 -2.2863  0.2999
18715TIP3    H277637   6.815   3.039   1.818  0.2016  0.8571  0.7416
18716TIP3   OH277638   6.523   2.116  11.333  0.1227 -0.1757 -0.5820
18716TIP3    H177639   6.567   2.123  11.248 -0.5556 -0.0791 -0.9288
18716TIP3    H277640   6.430   2.121  11.312 -0.0279  0.7744  0.2603
18717TIP3   OH277641   0.429   2.483  15.900  0.1699 -0.0649  0.9154
18717TIP3    H177642   0.372   2.414  15.866 -1.1572  1.0257  0.8717
18717TIP3    H277643   0.513   2.439  15.913 -0.3964 -1.4806  0.0736
18718TIP3   OH277644   2.004   5.755  14.946 -0.2642 -0.5902  0.4856
18718TIP3    H177645   2.015   5.801  14.863 -0.0111 -0.1703  0.7507
18718TIP3    H277646   2.052   5.673  14.933 -0.8627 -0.8707 -0.0448
18719TIP3   OH277647   3.815   0.144  16.377 -0.2687  0.2387 -0.0163
18719TIP3    H177648   3.827   0.145  16.282  0.9404  0.7185  0.1259
18719TIP3    H277649   3.720   0.147  16.390 -0.5090 -1.0774 -1.2215
18720TIP3   OH277650   1.134   5.032  14.746  0.2373  0.4388  0.5448
18720TIP3    H177651   1.052   5.036  14.697  0.5537  0.8776  0.0422
18720TIP3    H277652   1.112   4.984  14.826 -0.3543 -0.0091  0.1201
18721TIP3   OH277653   6.607   0.640   5.873  0.0100 -0.0295  0.3005
18721TIP3    H177654   6.665   0.714   5.891  1.1307 -0.5775 -0.9464
18721TIP3    H277655   6.665   0.564   5.867 -0.4315 -0.2454 -3.3739
18722TIP3   OH277656   2.024   3.972   3.690  0.0378  0.3578 -0.1189
18722TIP3    H177657   1.945   4.020   3.716 -0.2774 -0.5737  0.7087
18722TIP3    H277658   2.047   3.922   3.768  0.9539 -0.0396 -0.6397
18723TIP3   OH277659   5.720   1.310   0.716  0.1319  0.1586  0.3776
18723TIP3    H177660   5.778   1.302   0.640 -0.1496 -2.2439  0.3422
18723TIP3    H277661   5.640   1.350   0.681  0.5166  0.3483 -0.3047
18724TIP3   OH277662   4.017   1.543   3.584  0.3450  0.1054 -0.2849
18724TIP3    H177663   4.043   1.501   3.501 -0.3184 -1.9239  0.4732
18724TIP3    H277664   4.098   1.582   3.617  1.0472 -0.7265 -0.9712
18725TIP3   OH277665   4.791   6.212  16.546  0.2117 -0.0974 -0.2166
18725TIP3    H177666   4.799   6.168  16.461  0.1031 -2.2377  0.8090
18725TIP3    H277667   4.881   6.231  16.572  0.3064 -0.2177 -0.4488
18726TIP3   OH277668   5.138   1.069  15.481 -0.4259 -0.1020  0.1129
18726TIP3    H177669   5.182   1.111  15.554  0.0495  0.5496 -0.5347
18726TIP3    H277670   5.048   1.101  15.486 -1.3229 -2.6306  2.3548
18727TIP3   OH277671   3.172   3.879  11.870  0.2411  0.2665 -0.2546
18727TIP3    H177672   3.167   3.973  11.889  1.2490  0.2381  0.2406
18727TIP3    H277673   3.117   3.867  11.792  2.3146  1.7848 -2.0799
18728TIP3   OH277674   3.890   3.446   3.420  0.1553 -0.2333  0.3718
18728TIP3    H177675   3.942   3.369   3.443  1.4358  0.9849  1.7608
18728TIP3    H277676   3.926   3.474   3.335 -0.1006 -0.9593  0.0157
18729TIP3   OH277677   1.410   6.539   0.293  0.3097  0.3236 -0.6193
18729TIP3    H177678   1.479   6.506   0.350  1.3726  0.7721 -1.6166
18729TIP3    H277679   1.455   6.595   0.230 -0.9617  0.5968 -1.3204
18730TIP3   OH277680   2.370   0.764   1.187  0.4903 -0.1398  0.8792
18730TIP3    H177681   2.291   0.818   1.185  1.3760  1.1946 -0.4808
18730TIP3    H277682   2.433   0.814   1.239  0.9842 -0.3332  0.4822
18731TIP3   OH277683   0.236   1.297  16.842 -0.5053  0.0741 -0.5221
18731TIP3    H177684   0.218   1.391  16.845 -1.0417 -0.0110 -0.8839
18731TIP3    H277685   0.181   1.265  16.771  0.6785 -0.3060 -1.2937
18732TIP3   OH277686   3.090   2.892   6.242 -0.0215 -0.2711 -0.5534
18732TIP3    H177687   2.997   2.884   6.263 -0.1712 -0.9079 -1.3988
18732TIP3    H277688   3.129   2.928   6.321 -0.8263 -0.9978  0.2051
18733TIP3   OH277689   0.961   0.150  15.696  0.3500 -0.2976  0.5028
18733TIP3    H177690   0.940   0.056  15.690 -0.6069 -0.0595 -0.1252
18733TIP3    H277691   0.980   0.176  15.606  2.4518 -0.2718  0.9212
18734TIP3   OH277692   2.639   6.322   5.599  0.1724 -0.5989 -0.7149
18734TIP3    H177693   2.665   6.288   5.513  1.8840 -1.1409 -0.0210
18734TIP3    H277694   2.543   6.315   5.599  0.0182  0.4540 -2.9806
18735TIP3   OH277695   6.030   4.306   1.944 -0.1431 -0.3163  0.0835
18735TIP3    H177696   6.086   4.324   2.020 -0.0193 -1.7892  0.3550
18735TIP3    H277697   5.951   4.357   1.962 -0.2859 -0.9555  1.4237
18736TIP3   OH277698   3.708   0.191   5.789  0.0575  0.1872 -0.6393
18736TIP3    H177699   3.655   0.187   5.869 -0.8033 -0.0486 -1.2046
18736TIP3    H277700   3.713   0.100   5.759 -0.2617  0.3645 -1.2486
18737TIP3   OH277701   4.499   3.858  12.879 -0.5473  0.5177  0.5412
18737TIP3    H177702   4.518   3.935  12.826 -1.3520  0.8127  0.6785
18737TIP3    H277703   4.528   3.784  12.824  0.9144  0.9245  0.7108
18738TIP3   OH277704   1.018   3.615  13.758 -0.1524 -0.1503  0.1786
18738TIP3    H177705   1.004   3.688  13.818  0.6576 -0.9133  1.3617
18738TIP3    H277706   0.966   3.636  13.681  1.1324  2.3203 -0.1069
18739TIP3   OH277707   0.180   4.975   1.227 -0.3530  0.5237  0.7384
18739TIP3    H177708   0.095   4.935   1.209  0.7332 -2.5544  1.7634
18739TIP3    H277709   0.243   4.904   1.214  1.5910  1.2859  4.4532
18740TIP3   OH277710   0.579   3.025  12.517 -0.2574 -0.0763 -0.8755
18740TIP3    H177711   0.568   3.079  12.595 -2.4424 -1.1943 -0.3019
18740TIP3    H277712   0.673   3.023  12.501  0.4818 -1.1860  2.7704
18741TIP3   OH277713   6.409   4.349  12.476  0.1106 -0.2000  0.2812
18741TIP3    H177714   6.480   4.316  12.422  0.4342 -0.3924  0.8176
18741TIP3    H277715   6.435   4.328  12.566 -0.1383  0.6437  0.5593
18742TIP3   OH277716   3.625   3.208   2.404  0.3316  0.1320  0.4362
18742TIP3    H177717   3.532   3.186   2.393  0.6465 -1.6174  0.9112
18742TIP3    H277718   3.641   3.278   2.342 -1.5663  1.2466  1.1226
18743TIP3   OH277719   2.636   0.574  12.685  0.2878  0.6360 -0.2094
18743TIP3    H177720   2.683   0.566  12.768  2.0756  4.1731 -0.7134
18743TIP3    H277721   2.693   0.532  12.621 -0.6676 -1.2788  0.1148
18744TIP3   OH277722   1.357   4.747   0.573  0.2255  0.4921 -0.1575
18744TIP3    H177723   1.371   4.655   0.595 -0.9883 -0.7100 -3.7012
18744TIP3    H277724   1.439   4.790   0.595  1.3679 -1.7324  0.2104
18745TIP3   OH277725   2.922   0.347  14.562  0.2543 -0.0588 -0.2102
18745TIP3    H177726   2.982   0.275  14.581  1.2977  0.8186 -0.0590
18745TIP3    H277727   2.921   0.400  14.641 -1.4751 -0.5388  0.1334
18746TIP3   OH277728   6.140   6.454  11.232 -0.5271  0.6308 -0.7372
18746TIP3    H177729   6.083   6.386  11.195 -1.4926  1.8858 -1.6746
18746TIP3    H277730   6.166   6.506  11.156  0.9729  0.7786 -0.1613
18747TIP3   OH277731   1.647   5.589   4.791 -0.4122  0.2709  0.1216
18747TIP3    H177732   1.649   5.509   4.842 -1.9133 -0.9872 -1.6558
18747TIP3    H277733   1.600   5.652   4.846  0.5263 -0.1148  1.4165
18748TIP3   OH277734   1.675   5.819  16.627 -0.0918  0.4345 -0.1302
18748TIP3    H177735   1.694   5.911  16.646 -2.2347  0.4731  2.2654
18748TIP3    H277736   1.583   5.817  16.603 -0.2443 -1.1648  0.4397
18749TIP3   OH277737   6.578   3.962   0.870  0.1842  0.6680 -0.3091
18749TIP3    H177738   6.534   4.039   0.905  1.0913  1.0211  0.1049
18749TIP3    H277739   6.514   3.921   0.812 -0.6251  1.2232  0.1794
18750TIP3   OH277740   0.423   4.628   0.451  0.2436  0.0862 -0.0616
18750TIP3    H177741   0.348   4.674   0.488  0.4261 -0.2900  0.7776
18750TIP3    H277742   0.495   4.690   0.457  0.1375  0.2422 -0.3530
18751TIP3   OH277743   3.947   2.225   0.024 -0.0284 -0.1414  0.5386
18751TIP3    H177744   3.855   2.197   0.025 -0.6466  1.5068 -1.9840
18751TIP3    H277745   3.944   2.318   0.043  0.8236  0.4508 -1.8571
18752TIP3   OH277746   5.981   5.827   4.053 -0.0173 -0.4750  0.7094
18752TIP3    H177747   6.045   5.759   4.035 -0.7091 -1.4092  1.6666
18752TIP3    H277748   5.949   5.808   4.141 -1.7815 -0.1981  0.1726
18753TIP3   OH277749   6.334   4.019   1.760  0.4401 -0.7714 -0.0879
18753TIP3    H177750   6.253   3.976   1.787  0.0685  0.4530  0.8228
18753TIP3    H277751   6.398   3.948   1.756 -0.8978 -1.9676 -1.9679
18754TIP3   OH277752   0.167   5.008  12.888  0.0116 -0.0458  0.1000
18754TIP3    H177753   0.244   4.969  12.848 -0.9664 -0.6923 -1.2558
18754TIP3    H277754   0.142   5.078  12.828 -1.6916 -1.2554 -0.6950
18755TIP3   OH277755   1.486   6.215  16.331  0.2878  0.4754  0.1956
18755TIP3    H177756   1.548   6.249  16.267  0.2730  1.9921  0.9410
18755TIP3    H277757   1.419   6.283  16.338  0.7519  0.8009  2.4467
18756TIP3   OH277758   2.352   3.210   5.474 -0.3505  0.0650 -0.2384
18756TIP3    H177759   2.423   3.173   5.526  0.7635 -2.5203 -3.2409
18756TIP3    H277760   2.396   3.268   5.411 -1.2567  0.5577 -0.4440
18757TIP3   OH277761   4.225   4.300  12.894 -0.4836 -0.1303 -0.3245
18757TIP3    H177762   4.268   4.215  12.906 -0.3886  0.1654  1.9235
18757TIP3    H277763   4.285   4.350  12.838 -0.2381 -1.3047 -1.1496
18758TIP3   OH277764   2.145   1.555  14.305  0.3834 -0.5944  0.1706
18758TIP3    H177765   2.059   1.513  14.309  0.8304 -1.5030  0.9114
18758TIP3    H277766   2.193   1.505  14.239  1.1933 -1.8683  1.6430
18759TIP3   OH277767   4.133   5.767   6.357  0.3394  0.2370 -0.5420
18759TIP3    H177768   4.054   5.795   6.403  1.8383  2.5277  0.8895
18759TIP3    H277769   4.197   5.836   6.377  2.8932 -1.8231 -1.1051
18760TIP3   OH277770   0.496   4.225  14.159 -1.1310 -0.2410 -0.4200
18760TIP3    H177771   0.474   4.206  14.250 -2.2238 -3.5874 -1.2303
18760TIP3    H277772   0.591   4.217  14.155 -0.4588  4.2330  1.1119
18761TIP3   OH277773   6.665   3.958   5.820  0.0013 -0.2400  1.1047
18761TIP3    H177774   6.589   4.015   5.812 -0.4818 -1.0336 -0.0781
18761TIP3    H277775   6.704   3.983   5.905  0.7148  2.9081  0.0172
18762TIP3   OH277776   5.139   2.202  15.375 -0.2573  0.3122  0.0762
18762TIP3    H177777   5.157   2.277  15.319 -1.2244  0.2633 -0.3204
18762TIP3    H277778   5.108   2.134  15.316 -0.1950 -0.1202  0.5333
18763TIP3   OH277779   3.960   0.195  11.999  0.5033  0.1656 -0.2029
18763TIP3    H177780   4.037   0.253  12.000  0.6953 -0.0891  0.8510
18763TIP3    H277781   3.911   0.220  12.077  1.8333 -2.6867  1.7417
18764TIP3   OH277782   2.464   3.497   6.790 -0.4045  0.2313  0.5337
18764TIP3    H177783   2.477   3.524   6.880  3.0189  0.6570  0.0301
18764TIP3    H277784   2.456   3.579   6.741  0.2961  0.0974  0.1770
18765TIP3   OH277785   4.444   3.486  15.239 -0.1660  0.2044 -0.0284
18765TIP3    H177786   4.517   3.543  15.215  0.5887  0.0406  1.6988
18765TIP3    H277787   4.385   3.543  15.288 -1.0047  0.2284 -1.0375
18766TIP3   OH277788   1.967   0.192   3.290 -0.0820 -0.4517 -0.5683
18766TIP3    H177789   1.921   0.191   3.374 -2.0616 -1.3400 -1.5763
18766TIP3    H277790   2.024   0.115   3.294  1.8298  0.9572  0.9101
18767TIP3   OH277791   4.417   3.589  12.061  0.2807  0.2291 -0.8947
18767TIP3    H177792   4.389   3.555  12.146  2.1328  0.4927 -0.1283
18767TIP3    H277793   4.511   3.571  12.058  0.7003  2.3229 -1.8554
18768TIP3   OH277794   0.073   6.439   4.362  0.4507 -0.5156 -0.1806
18768TIP3    H177795  -0.003   6.416   4.308  0.3290 -0.3589 -0.0775
18768TIP3    H277796   0.064   6.385   4.440  2.3343 -3.1751 -1.6471
18769TIP3   OH277797   6.084   3.702  14.379  0.2126 -0.1756  0.1057
18769TIP3    H177798   6.092   3.694  14.284  0.3864 -1.4495  0.2096
18769TIP3    H277799   6.142   3.634  14.414 -0.3728 -0.1834  1.1041
18770TIP3   OH277800   2.767   6.033  11.277 -0.2045 -0.1977 -0.1198
18770TIP3    H177801   2.737   6.075  11.196 -0.0548 -1.1636 -0.6935
18770TIP3    H277802   2.786   6.106  11.336  0.1882  0.5405 -1.1291
18771TIP3   OH277803   4.134   3.178   5.288  0.0147 -0.2975  0.2562
18771TIP3    H177804   4.084   3.121   5.229  0.1289  1.2546 -1.4083
18771TIP3    H277805   4.201   3.120   5.326 -1.0669 -1.6874  0.1172
18772TIP3   OH277806   4.815   1.141   1.099  0.5462 -0.4316  0.3171
18772TIP3    H177807   4.873   1.080   1.054  0.9002 -0.6547  1.0724
18772TIP3    H277808   4.792   1.206   1.031  1.7273 -0.2952  0.0200
18773TIP3   OH277809   3.964   2.871   5.871 -0.2878  0.1492 -0.0668
18773TIP3    H177810   3.985   2.846   5.961 -1.6951 -0.5723  0.0771
18773TIP3    H277811   3.885   2.924   5.879  0.2518  1.0846 -0.7813
18774TIP3   OH277812   1.094   2.428   0.208  0.1526 -0.3681  0.0544
18774TIP3    H177813   1.152   2.426   0.284 -0.0844  0.6034  0.2673
18774TIP3    H277814   1.150   2.453   0.135  0.2820 -0.8356 -0.0125
18775TIP3   OH277815   4.884   3.731  11.168  0.0931 -0.8573  0.1259
18775TIP3    H177816   4.810   3.684  11.131 -0.2961 -0.2417  0.0999
18775TIP3    H277817   4.868   3.729  11.263 -0.7281  0.4867  0.0456
18776TIP3   OH277818   3.778   0.847  14.884 -0.1669 -0.1826  0.0834
18776TIP3    H177819   3.713   0.850  14.814 -0.6849 -0.9305  0.5238
18776TIP3    H277820   3.728   0.861  14.964  0.6145  2.2038  0.2440
18777TIP3   OH277821   4.074   0.327   0.695 -0.0128 -0.1159  0.1356
18777TIP3    H177822   4.050   0.234   0.697  0.3637 -0.2356 -0.4052
18777TIP3    H277823   4.036   0.364   0.774  2.6066 -1.4351  2.1972
18778TIP3   OH277824   0.589   0.159   2.750  0.5198 -0.1102  0.1993
18778TIP3    H177825   0.549   0.236   2.791  0.0125 -1.1086  1.6592
18778TIP3    H277826   0.522   0.125   2.692  0.2394 -0.2037  0.5723
18779TIP3   OH277827   0.224   6.625   1.280  0.2157  0.6826  0.0240
18779TIP3    H177828   0.235   6.579   1.197 -0.6039  0.0018  0.2680
18779TIP3    H277829   0.273   6.707   1.270  1.8387 -0.3041 -0.3660
18780TIP3   OH277830   0.222   4.189  15.295  0.3123 -0.3819  0.0115
18780TIP3    H177831   0.263   4.107  15.267  2.0729  0.9819 -1.6815
18780TIP3    H277832   0.144   4.196  15.241  0.8397 -0.3619 -0.7679
18781TIP3   OH277833   4.358   3.028  12.391  0.4138  0.1351  0.2554
18781TIP3    H177834   4.410   3.036  12.471 -0.0827 -0.7434  0.6793
18781TIP3    H277835   4.325   3.117  12.375  0.3836  0.2881  1.1133
18782TIP3   OH277836   0.678   6.449  15.802  0.1898  0.0838  0.3042
18782TIP3    H177837   0.697   6.528  15.752 -0.4229  0.1440  0.1669
18782TIP3    H277838   0.683   6.477  15.894  0.0169  0.2681  0.2566
18783TIP3   OH277839   4.541   4.558  14.829 -0.2359  0.5066  0.5297
18783TIP3    H177840   4.468   4.540  14.887  0.6317  1.8983  2.1410
18783TIP3    H277841   4.619   4.537  14.880  0.5414  0.6070 -0.5646
18784TIP3   OH277842   6.184   2.372   0.866  0.3120 -0.4965 -0.1937
18784TIP3    H177843   6.177   2.277   0.875  0.5618 -0.5350 -0.3768
18784TIP3    H277844   6.226   2.401   0.947 -1.0005 -0.3762  0.4696
18785TIP3   OH277845   3.194   4.098   4.865 -0.3462 -0.0112  0.8074
18785TIP3    H177846   3.238   4.145   4.936 -0.2329 -0.1409  0.8238
18785TIP3    H277847   3.211   4.152   4.787 -1.4903  0.7772  1.0701
18786TIP3   OH277848   3.275   5.448   2.851 -0.2050 -0.3343 -0.2766
18786TIP3    H177849   3.257   5.487   2.765 -1.3901  0.1598  0.1677
18786TIP3    H277850   3.193   5.460   2.900  0.5748 -0.2275  1.0556
18787TIP3   OH277851   2.042   4.923  11.007  0.3700 -0.1017 -0.1027
18787TIP3    H177852   2.105   4.964  10.949  0.5745 -1.0102 -0.5386
18787TIP3    H277853   2.059   4.829  10.999  0.0599 -0.2707  1.0331
18788TIP3   OH277854   6.329   2.344  14.736  0.2483  0.0118  0.3194
18788TIP3    H177855   6.292   2.311  14.654  1.7140  0.8363 -0.7113
18788TIP3    H277856   6.274   2.419  14.759 -1.4314 -1.4250  1.2332
18789TIP3   OH277857   3.995   5.662  14.680  0.5556  0.4382 -0.0998
18789TIP3    H177858   4.046   5.721  14.625  2.0235 -1.4871 -0.9403
18789TIP3    H277859   4.058   5.595  14.708 -1.1242 -1.0559  0.3185
18790TIP3   OH277860   1.356   2.017  14.231 -0.4587  0.8389  0.4148
18790TIP3    H177861   1.313   2.089  14.186  1.0036  0.3094 -2.0400
18790TIP3    H277862   1.438   2.054  14.263 -0.1596  0.5256  0.0236
18791TIP3   OH277863   3.705   5.157  12.046  0.0374 -0.1800 -0.3724
18791TIP3    H177864   3.780   5.097  12.047  0.8655  0.7337 -2.2592
18791TIP3    H277865   3.666   5.145  11.960 -1.5845 -0.1039  0.3169
18792TIP3   OH277866   5.661   4.094   5.209  0.0855 -0.5050  0.3874
18792TIP3    H177867   5.720   4.151   5.259  1.4065 -0.8012 -0.8081
18792TIP3    H277868   5.686   4.006   5.234  0.0716 -0.6301 -0.0378
18793TIP3   OH277869   4.954   0.047   0.896  0.3247  0.2044 -0.0870
18793TIP3    H177870   5.013   0.071   0.825  0.3419  1.4709  0.3329
18793TIP3    H277871   4.953   0.124   0.954  0.0460 -0.6615  1.0980
18794TIP3   OH277872   3.886   1.025  14.618  0.3302  0.2096 -0.0613
18794TIP3    H177873   3.895   1.111  14.575  0.6961 -0.9420 -2.4529
18794TIP3    H277874   3.966   1.015  14.669  1.0488  0.6304 -1.0785
18795TIP3   OH277875   0.656   6.727   4.128  0.2296  0.0045 -0.1258
18795TIP3    H177876   0.686   6.713   4.218  0.2964 -0.9885 -0.2969
18795TIP3    H277877   0.601   6.805   4.134 -0.3759 -0.4743  0.9206
18796TIP3   OH277878   1.579   5.183  12.636  0.0718  0.5646 -0.0998
18796TIP3    H177879   1.664   5.213  12.603 -0.1935  1.3368 -0.1003
18796TIP3    H277880   1.518   5.203  12.565 -0.0800 -0.1550 -0.1718
18797TIP3   OH277881   4.593   0.521  15.313  0.6408  0.2917  0.0233
18797TIP3    H177882   4.553   0.571  15.242  0.6525 -0.5484 -0.5907
18797TIP3    H277883   4.669   0.574  15.339 -1.3738  2.4701  1.9689
18798TIP3   OH277884   1.699   5.795   1.156  0.1723 -0.4828 -0.5009
18798TIP3    H177885   1.627   5.774   1.097 -0.5182  0.2365  0.0551
18798TIP3    H277886   1.762   5.843   1.102  0.1000 -0.8435 -0.9146
18799TIP3   OH277887   4.855   3.267   0.062  0.1447  0.2630 -0.6156
18799TIP3    H177888   4.871   3.295   0.152 -0.9050 -2.6775  0.5952
18799TIP3    H277889   4.940   3.271   0.020  1.0860 -0.3681  1.1433
18800TIP3   OH277890   3.616   5.089  10.186  0.8883  0.3591  0.3174
18800TIP3    H177891   3.657   5.012  10.148  0.3624 -0.0616  0.5862
18800TIP3    H277892   3.668   5.109  10.264 -0.5940 -1.4515  1.8842
18801TIP3   OH277893   6.778   1.919   6.328 -0.5873  0.1927  0.1486
18801TIP3    H177894   6.866   1.936   6.362 -0.9688  1.3993  0.5968
18801TIP3    H277895   6.733   1.873   6.399  0.0209 -1.4950 -0.5286
18802TIP3   OH277896   6.503   4.890  10.486 -0.4193  0.2088  0.2290
18802TIP3    H177897   6.488   4.955  10.554  1.6721 -0.4368  1.4169
18802TIP3    H277898   6.499   4.806  10.532  0.9789 -0.2408 -0.4171
18803TIP3   OH277899   3.370   2.071  13.742  0.3993 -0.4058  0.3402
18803TIP3    H177900   3.336   2.007  13.804 -0.0459 -0.9043 -0.4117
18803TIP3    H277901   3.318   2.059  13.663  1.7371 -0.5863 -0.5415
18804TIP3   OH277902   5.690   6.672   6.014  0.1061  0.0915  0.4701
18804TIP3    H177903   5.627   6.647   5.947 -0.4735  0.3232  0.9237
18804TIP3    H277904   5.723   6.589   6.048  0.5464 -0.0303 -0.2190
18805TIP3   OH277905   3.862   6.766   0.993  0.4153 -0.2227  0.3930
18805TIP3    H177906   3.818   6.801   1.070  0.0032 -0.4318  0.2567
18805TIP3    H277907   3.912   6.692   1.026  2.2895  1.1990  0.9089
18806TIP3   OH277908   6.083   5.541   2.182  0.6763 -0.5256  0.2393
18806TIP3    H177909   6.120   5.552   2.270 -0.0646  0.1993  0.4774
18806TIP3    H277910   6.159   5.538   2.124  1.2169 -1.7692  0.9654
18807TIP3   OH277911   5.686   2.964   0.065 -0.0328  0.3290  0.2349
18807TIP3    H177912   5.737   2.921   0.133  1.3008  1.9953  0.3478
18807TIP3    H277913   5.744   2.966  -0.011 -1.0812 -0.4842 -0.6046
18808TIP3   OH277914   3.582   4.645   3.522 -0.3296  0.1986  0.5345
18808TIP3    H177915   3.650   4.655   3.590 -0.7447 -0.5254  1.0687
18808TIP3    H277916   3.570   4.734   3.488  0.3965  0.4544  0.9140
18809TIP3   OH277917   4.534   5.213   3.059  0.3563 -0.0625 -0.1153
18809TIP3    H177918   4.476   5.161   3.002  1.1028  0.0744 -1.0292
18809TIP3    H277919   4.474   5.264   3.113 -0.3882 -0.9567 -0.0574
18810TIP3   OH277920   3.237   4.543  13.492 -0.1272 -0.1278 -0.5588
18810TIP3    H177921   3.172   4.599  13.534 -0.6610 -0.2330 -1.2206
18810TIP3    H277922   3.255   4.474  13.556  1.0797  1.1561  0.5661
18811TIP3   OH277923   5.860   0.126   0.346  0.1205 -0.1585 -0.3252
18811TIP3    H177924   5.769   0.120   0.375  0.9766 -0.6541  2.6418
18811TIP3    H277925   5.904   0.053   0.390  2.1086  0.5957 -0.9434
18812TIP3   OH277926   2.072   3.740  11.809  0.6530 -0.1615  0.5942
18812TIP3    H177927   2.085   3.692  11.891 -0.5900 -2.3138 -0.3854
18812TIP3    H277928   2.138   3.705  11.750  0.7167  0.4639  0.2791
18813TIP3   OH277929   4.935   6.114  16.768 -0.1934  0.3320 -0.2747
18813TIP3    H177930   4.846   6.149  16.770 -0.1090  0.5270  0.2652
18813TIP3    H277931   4.934   6.043  16.832 -0.5683 -1.1831 -1.8903
18814TIP3   OH277932   1.523   3.999  16.093 -0.3330  0.3222  0.2208
18814TIP3    H177933   1.551   3.987  16.184 -1.5265 -0.8760  0.4668
18814TIP3    H277934   1.565   3.927  16.046  0.5476  1.1307 -0.2580
18815TIP3   OH277935   1.688   1.071   2.476 -0.8301  0.1489 -0.4458
18815TIP3    H177936   1.638   1.140   2.518  0.1217 -0.4698  1.8119
18815TIP3    H277937   1.780   1.095   2.490 -0.4767 -0.5713 -1.3775
18816TIP3   OH277938   5.892   5.784   1.195  0.3898  0.5932  0.0293
18816TIP3    H177939   5.829   5.780   1.123  0.4094 -2.8139  0.0814
18816TIP3    H277940   5.914   5.877   1.202 -3.2540  1.6940 -1.1492
18817TIP3   OH277941   4.481   5.864  12.776 -0.2681  0.5541 -0.2579
18817TIP3    H177942   4.412   5.864  12.710  0.8209  1.5002 -1.4505
18817TIP3    H277943   4.492   5.956  12.800  1.8423  0.6971 -1.5225
18818TIP3   OH277944   1.742   5.679  14.963 -0.0231 -0.0108 -0.3999
18818TIP3    H177945   1.835   5.703  14.970  0.0442 -0.5686  1.3011
18818TIP3    H277946   1.731   5.650  14.873  1.4967 -0.0465 -0.5972
18819TIP3   OH277947   5.197   2.727  11.770  0.5280  0.6735 -0.0270
18819TIP3    H177948   5.179   2.702  11.861 -1.4647  1.4607 -0.1546
18819TIP3    H277949   5.138   2.800  11.753 -1.2329 -1.1805 -2.7948
18820TIP3   OH277950   1.852   1.210   4.754 -0.4165 -0.0999 -0.3443
18820TIP3    H177951   1.842   1.173   4.666 -0.1262 -0.2518 -0.3158
18820TIP3    H277952   1.790   1.161   4.808  0.2395 -0.8406 -0.2242
18821TIP3   OH277953   4.041   3.025   4.403 -0.1505 -1.0029 -0.0438
18821TIP3    H177954   3.968   3.025   4.465  0.0816 -0.3046  0.2455
18821TIP3    H277955   4.086   3.108   4.419 -0.6860 -0.2951 -1.8384
18822TIP3   OH277956   1.499   1.952  11.196  0.2292 -0.1350  0.2581
18822TIP3    H177957   1.482   1.859  11.179  0.7491 -0.3768  0.9862
18822TIP3    H277958   1.532   1.986  11.113  0.4617 -0.7125  0.1045
18823TIP3   OH277959   3.590   3.875  14.384  0.2368 -0.0655  0.0221
18823TIP3    H177960   3.637   3.825  14.318  0.4819  0.9980 -0.6393
18823TIP3    H277961   3.532   3.932  14.334  1.1511  1.4826  0.6470
18824TIP3   OH277962   0.381   2.883   1.167  0.3687 -0.1248 -0.0756
18824TIP3    H177963   0.477   2.877   1.169  0.5381 -0.0747 -3.1835
18824TIP3    H277964   0.352   2.793   1.155 -0.1391 -0.3247  2.1761
18825TIP3   OH277965   5.065   1.409  13.244 -0.2841 -0.0635 -0.3124
18825TIP3    H177966   5.104   1.338  13.193 -0.2529 -0.0264 -0.3404
18825TIP3    H277967   5.136   1.472  13.254 -0.2608 -0.1173 -0.1369
18826TIP3   OH277968   0.789   1.467   2.887 -0.4239  0.6513  0.2142
18826TIP3    H177969   0.738   1.546   2.873  0.8146  1.4005 -0.3099
18826TIP3    H277970   0.873   1.486   2.845 -0.2553 -1.1166 -0.3026
18827TIP3   OH277971   4.445   3.955  12.281 -0.1948  0.0268 -0.4224
18827TIP3    H177972   4.426   3.886  12.344  0.5738 -1.6250 -1.9042
18827TIP3    H277973   4.362   3.968  12.234 -0.2540 -0.1250 -0.3602
18828TIP3   OH277974   6.361   3.989  10.607  0.1427 -0.2513 -0.5975
18828TIP3    H177975   6.445   3.962  10.569 -0.8498 -0.9460 -2.3735
18828TIP3    H277976   6.347   3.928  10.679  1.0856 -0.2032 -0.3572
18829TIP3   OH277977   4.926   4.421  15.260 -0.1480  0.1609 -0.5145
18829TIP3    H177978   4.943   4.411  15.166 -0.5536 -0.5440 -0.5188
18829TIP3    H277979   4.833   4.401  15.270  0.1338 -0.8565  0.1880
18830TIP3   OH277980   2.464   6.030  13.623  0.1827 -0.1265  0.4260
18830TIP3    H177981   2.519   6.050  13.699 -2.6724  0.2146  2.5799
18830TIP3    H277982   2.393   6.093  13.628 -0.5989 -0.7010 -2.0774
18831TIP3   OH277983   3.388   4.311  16.358  0.9376 -0.0626 -0.0143
18831TIP3    H177984   3.344   4.383  16.313 -0.8104 -0.6339  0.7228
18831TIP3    H277985   3.400   4.244  16.291 -0.9372 -0.5950  0.1492
18832TIP3   OH277986   2.607   0.701  14.630  0.4329 -0.1289  0.0748
18832TIP3    H177987   2.594   0.775  14.571  0.2675 -0.1179  0.1225
18832TIP3    H277988   2.582   0.625  14.578  1.5708 -0.2611 -0.3078
18833TIP3   OH277989   0.220   0.114  16.577  0.2231  0.2769 -0.4124
18833TIP3    H177990   0.312   0.139  16.584  0.1749  0.3333  0.0470
18833TIP3    H277991   0.220   0.020  16.596 -0.0982  0.7157  2.0295
18834TIP3   OH277992   5.887   3.181   2.099  0.4266 -0.7905  0.1885
18834TIP3    H177993   5.924   3.249   2.042 -1.2271  0.1962  0.2282
18834TIP3    H277994   5.887   3.221   2.186 -0.9095 -0.6670  0.1477
18835TIP3   OH277995   3.564   1.951  15.317 -0.2897 -0.3506  0.3912
18835TIP3    H177996   3.532   1.943  15.227 -2.1493  0.5177  0.9106
18835TIP3    H277997   3.588   1.862  15.342  0.7971 -0.5184 -1.1165
18836TIP3   OH277998   2.867   6.801   4.964  0.7003 -0.0532 -0.2864
18836TIP3    H177999   2.860   6.874   5.025  1.0685 -1.1117  1.0865
18836TIP3    H278000   2.914   6.733   5.013 -2.2443 -2.3600 -0.3818
18837TIP3   OH278001   3.236   3.089  12.996 -0.7279 -0.3643  0.9708
18837TIP3    H178002   3.204   3.176  12.970 -0.1579 -0.9111 -1.9293
18837TIP3    H278003   3.329   3.090  12.973 -0.3904 -1.2986  2.2113
18838TIP3   OH278004   6.191   1.300   6.485  0.0489  0.4159  0.0974
18838TIP3    H178005   6.173   1.217   6.529 -2.3702 -0.2468 -1.9096
18838TIP3    H278006   6.275   1.286   6.440  0.3438 -0.4307  0.8831
18839TIP3   OH278007   4.610   3.642   1.584 -0.1594 -0.1574  0.1927
18839TIP3    H178008   4.535   3.690   1.549 -0.1994 -0.1586  0.2741
18839TIP3    H278009   4.676   3.708   1.601 -0.4039 -0.0579  0.7939
18840TIP3   OH278010   2.126   2.387   3.288 -0.4285 -0.2900 -0.3141
18840TIP3    H178011   2.171   2.459   3.332  0.2034 -0.3074 -0.9118
18840TIP3    H278012   2.069   2.350   3.355 -0.5566  0.5923  0.0775
18841TIP3   OH278013   2.482   4.155   4.134 -0.5491  0.6938 -0.3037
18841TIP3    H178014   2.445   4.242   4.150 -2.9573 -0.4759  1.0649
18841TIP3    H278015   2.453   4.103   4.208  3.2655 -0.6675  0.4672
18842TIP3   OH278016   1.820   6.696   4.723 -0.4141  0.5086 -0.5154
18842TIP3    H178017   1.794   6.643   4.647 -0.2271 -0.8129  0.3081
18842TIP3    H278018   1.873   6.767   4.686 -0.2406 -0.1720 -1.6137
18843TIP3   OH278019   2.094   5.164   0.098  0.0903  0.5038 -1.0708
18843TIP3    H178020   2.158   5.125   0.038  0.5684 -0.6565  0.1173
18843TIP3    H278021   2.040   5.220   0.043  1.9069  1.2582 -2.1963
18844TIP3   OH278022   3.396   2.956   0.298 -0.2901 -0.0554 -0.0077
18844TIP3    H178023   3.464   3.019   0.321 -1.0487  0.4889  0.7799
18844TIP3    H278024   3.347   2.998   0.227  0.8805 -0.9418 -1.4124
18845TIP3   OH278025   5.283   5.523  16.065  0.2688  0.0307 -0.4265
18845TIP3    H178026   5.272   5.555  16.154  1.9614 -0.9635  0.1819
18845TIP3    H278027   5.271   5.428  16.071 -0.5955  0.0495 -1.4630
18846TIP3   OH278028   5.630   5.945   3.826 -0.0372  0.6518 -0.2353
18846TIP3    H178029   5.551   5.940   3.771  0.6694  0.8427 -1.2982
18846TIP3    H278030   5.597   5.972   3.912 -1.3079 -0.8387 -0.2141
18847TIP3   OH278031   3.550   0.104  16.419  0.3272 -0.5040  0.5907
18847TIP3    H178032   3.548   0.188  16.466  0.7576 -0.8851  1.3127
18847TIP3    H278033   3.485   0.114  16.351  1.2598  0.8972 -0.1639
18848TIP3   OH278034   2.946   0.536   6.152 -0.3945  0.1327 -0.5141
18848TIP3    H178035   2.954   0.611   6.093 -0.0259 -0.3011 -1.0198
18848TIP3    H278036   3.031   0.528   6.194 -1.2714  1.8148  1.7999
18849TIP3   OH278037   4.856   0.895   2.085  0.4317 -0.1082 -0.2144
18849TIP3    H178038   4.793   0.865   2.020  0.7719 -2.1684  0.3110
18849TIP3    H278039   4.821   0.977   2.118 -1.0583 -0.3381 -1.1727
18850TIP3   OH278040   3.197   5.186   4.872  0.2096  0.1107 -0.3194
18850TIP3    H178041   3.212   5.238   4.793 -0.9275 -2.4537 -2.3418
18850TIP3    H278042   3.203   5.095   4.843 -0.8117 -0.9415  2.4536
18851TIP3   OH278043   0.873   3.627   0.697 -0.3858 -0.0070 -0.3250
18851TIP3    H178044   0.779   3.641   0.707 -0.2703  2.1223 -1.7271
18851TIP3    H278045   0.913   3.679   0.767 -0.1948  1.1700 -1.2793
18852TIP3   OH278046   2.946   1.482  10.503 -0.4474 -0.2345 -0.2818
18852TIP3    H178047   3.008   1.535  10.553 -0.1976  0.3747 -1.2117
18852TIP3    H278048   2.982   1.393  10.506 -0.1054 -0.0845  0.0911
18853TIP3   OH278049   6.213   3.907   2.837  0.3237  0.3418 -0.3829
18853TIP3    H178050   6.124   3.928   2.808  0.8564  1.7152 -1.1445
18853TIP3    H278051   6.202   3.874   2.926 -0.8434  1.9004  0.1040
18854TIP3   OH278052   0.598   2.639  16.144  0.2750 -0.2754  0.4729
18854TIP3    H178053   0.643   2.555  16.142  1.3231  0.2969 -1.0168
18854TIP3    H278054   0.601   2.671  16.054 -1.0554  0.8824  0.7941
18855TIP3   OH278055   3.389   0.791  12.290 -0.0106 -0.1954 -0.1374
18855TIP3    H178056   3.452   0.769  12.360  1.2518 -0.9560 -1.4621
18855TIP3    H278057   3.344   0.869  12.323  1.3032  0.1137  1.0697
18856TIP3   OH278058   1.547   0.676   1.165  0.0786 -0.4185 -0.0752
18856TIP3    H178059   1.640   0.698   1.166 -0.0592  0.1800  1.5989
18856TIP3    H278060   1.523   0.664   1.257 -1.5876 -0.2174 -0.4403
18857TIP3   OH278061   2.827   3.969   1.364  0.0528 -0.2072 -0.0662
18857TIP3    H178062   2.905   3.948   1.313  1.0330 -1.1911  1.7136
18857TIP3    H278063   2.768   4.011   1.302  1.1779 -1.2801 -1.9556
18858TIP3   OH278064   2.427   3.264   6.316 -0.1311  0.4173 -0.2130
18858TIP3    H178065   2.386   3.314   6.246  0.9725  1.3576 -0.2283
18858TIP3    H278066   2.448   3.330   6.383  1.3284  0.0064 -0.2250
18859TIP3   OH278067   0.096   1.282  15.464 -0.0427 -0.3518  0.1755
18859TIP3    H178068   0.090   1.237  15.380  0.2003  0.2734 -0.1812
18859TIP3    H278069   0.188   1.277  15.488 -0.3048 -1.5862  1.0062
18860TIP3   OH278070   6.140   2.105   0.714  0.2832 -0.2659  0.3857
18860TIP3    H178071   6.096   2.055   0.645 -2.6738  0.9669  1.2167
18860TIP3    H278072   6.132   2.050   0.792  0.5139 -0.1703  0.4763
18861TIP3   OH278073   3.599   1.375  14.613  0.4366  0.6429 -0.1656
18861TIP3    H178074   3.511   1.413  14.613 -0.5163 -1.0330 -4.0147
18861TIP3    H278075   3.593   1.302  14.674 -1.1983  0.0248 -1.0000
18862TIP3   OH278076   2.351   0.103   5.365  0.2316  0.3432 -0.7981
18862TIP3    H178077   2.385   0.015   5.378 -1.6380 -0.1414  1.4661
18862TIP3    H278078   2.428   0.156   5.342  2.0540 -1.1598  1.4229
18863TIP3   OH278079   6.443   1.755  12.295  0.7073  0.1741 -0.5180
18863TIP3    H178080   6.358   1.713  12.282  0.8617 -0.2986 -0.0462
18863TIP3    H278081   6.422   1.842  12.330  0.4295 -0.1678  0.1840
18864TIP3   OH278082   4.512   4.089  12.740 -0.3385  0.2980 -0.0453
18864TIP3    H178083   4.537   4.173  12.778 -0.4563  0.3558 -0.0949
18864TIP3    H278084   4.552   4.089  12.653  0.9029 -0.3145  0.4955
18865TIP3   OH278085   4.444   5.896   1.904 -0.0688  0.2850  0.2454
18865TIP3    H178086   4.512   5.943   1.952 -0.9346  1.2079  0.5890
18865TIP3    H278087   4.363   5.940   1.928 -0.8132 -0.8891 -0.0497
18866TIP3   OH278088   3.415   1.558  14.340  0.1639 -0.3313  0.2328
18866TIP3    H178089   3.446   1.574  14.250  1.9336 -0.9439  0.6834
18866TIP3    H278090   3.321   1.576  14.337  0.4187  0.9500 -1.4209
18867TIP3   OH278091   6.087   1.931  11.550  0.7303 -0.3930  0.1796
18867TIP3    H178092   6.046   2.006  11.591 -0.4788 -1.1886  0.4723
18867TIP3    H278093   6.048   1.926  11.463  1.1215 -0.4441  0.0008
18868TIP3   OH278094   1.276   6.411  15.686  0.2773  0.2074  0.0453
18868TIP3    H178095   1.332   6.336  15.665 -1.2146 -0.2853 -2.6703
18868TIP3    H278096   1.217   6.378  15.755 -0.0753 -1.0274 -0.8060
18869TIP3   OH278097   3.599   1.574  14.859 -0.1206  0.4054 -0.0291
18869TIP3    H178098   3.539   1.613  14.795 -1.3127 -1.4870 -0.1588
18869TIP3    H278099   3.630   1.495  14.816  0.9917  0.3725  0.8090
18870TIP3   OH278100   2.740   3.137  15.301  0.0568  0.2346  0.5645
18870TIP3    H178101   2.770   3.057  15.257  1.6056  1.1480 -0.1045
18870TIP3    H278102   2.645   3.136  15.291  0.1734 -0.8124 -0.6636
18871TIP3   OH278103   0.439   2.947  14.787 -0.1576  0.2085  0.0762
18871TIP3    H178104   0.379   2.882  14.824 -0.3132 -0.7646 -1.7826
18871TIP3    H278105   0.384   2.999  14.728  0.5480  0.1168 -0.6827
18872TIP3   OH278106   2.647   6.054  16.158  0.0632 -0.0503 -0.2465
18872TIP3    H178107   2.713   6.030  16.223  1.8716  1.5490 -1.3957
18872TIP3    H278108   2.641   5.977  16.101  0.5846 -0.3937  0.1497
18873TIP3   OH278109   1.075   3.723  16.397 -0.2332 -0.3498  0.6894
18873TIP3    H178110   0.995   3.722  16.451  0.6448 -1.4780  2.0501
18873TIP3    H278111   1.135   3.665  16.443  1.4666  0.6356 -0.1964
18874TIP3   OH278112   5.445   0.943   0.338 -0.5887  0.4576  0.3923
18874TIP3    H178113   5.507   0.898   0.281  0.8102  1.2003  1.2875
18874TIP3    H278114   5.436   1.030   0.300 -1.5733  0.1729 -0.0699
18875TIP3   OH278115   5.744   4.414   2.237 -0.1470  0.2368  0.1884
18875TIP3    H178116   5.653   4.438   2.219 -0.4860 -0.6370  0.6697
18875TIP3    H278117   5.763   4.343   2.175  0.3470  0.6807 -0.1834
18876TIP3   OH278118   6.118   6.670   3.268 -0.1306  0.2994  0.6557
18876TIP3    H178119   6.185   6.738   3.281  0.5006 -0.4960  1.7727
18876TIP3    H278120   6.130   6.610   3.342 -1.1470 -0.6430  0.0913
18877TIP3   OH278121   0.786   1.995  15.832  0.1944 -0.2397  0.1144
18877TIP3    H178122   0.851   2.065  15.846  1.9870 -1.7042 -0.4129
18877TIP3    H278123   0.782   1.986  15.737 -0.4683 -0.4777  0.1625
18878TIP3   OH278124   3.913   1.200  13.652  0.5718  0.3633  0.1676
18878TIP3    H178125   3.998   1.170  13.686 -0.0671 -0.1714  1.3437
18878TIP3    H278126   3.923   1.197  13.557  1.0748 -2.1089  0.2394
18879TIP3   OH278127   0.105   0.187  11.883 -0.1115 -0.0417  0.3560
18879TIP3    H178128   0.183   0.230  11.849 -0.4588  0.3343  0.0144
18879TIP3    H278129   0.039   0.256  11.885 -0.4977 -0.4070  0.4279
18880TIP3   OH278130   0.496   3.210  13.548  0.3318  0.6810 -0.0443
18880TIP3    H178131   0.489   3.137  13.610 -0.6477 -0.8281 -1.8215
18880TIP3    H278132   0.585   3.205  13.516 -0.0817 -0.6104 -1.0945
18881TIP3   OH278133   4.929   2.722   0.127  0.0497  0.0849  0.2350
18881TIP3    H178134   4.991   2.756   0.063  0.5726 -0.6524  0.3362
18881TIP3    H278135   4.970   2.738   0.211  0.2094 -0.6092  0.2921
18882TIP3   OH278136   1.005   1.237  10.742  0.3880 -0.0909 -0.3629
18882TIP3    H178137   0.993   1.274  10.829  0.7723  0.7965 -0.6772
18882TIP3    H278138   1.030   1.312  10.687  2.0300 -0.9256 -0.8387
18883TIP3   OH278139   4.732   0.862  14.329 -0.5488  0.3514  0.9655
18883TIP3    H178140   4.697   0.863  14.240 -0.3407  2.0965  0.8649
18883TIP3    H278141   4.800   0.930  14.328  1.0143 -1.1492  1.8646
18884TIP3   OH278142   0.204   3.862   3.683 -0.1429 -0.3385  0.1719
18884TIP3    H178143   0.118   3.850   3.723  0.5597  0.1904  1.9173
18884TIP3    H278144   0.246   3.929   3.736  0.2415  1.6928 -2.4695
18885TIP3   OH278145   4.807   3.847  16.493  0.1764  0.3622  0.1110
18885TIP3    H178146   4.825   3.941  16.489  0.1094  0.3309 -1.2502
18885TIP3    H278147   4.866   3.814  16.561  1.4081  1.1210 -0.5564
18886TIP3   OH278148   1.878   1.859   1.188  0.1145  0.1772  0.9236
18886TIP3    H178149   1.965   1.834   1.155 -0.2189 -0.8170  0.7535
18886TIP3    H278150   1.841   1.777   1.221 -1.3791  0.2756 -0.4048
18887TIP3   OH278151   0.981   5.967  15.232  0.5921  0.0498 -0.6885
18887TIP3    H178152   0.918   5.958  15.303  1.4679  1.2922  0.2800
18887TIP3    H278153   0.997   5.877  15.202  0.8616 -0.5916  1.2804
18888TIP3   OH278154   6.219   6.493  14.329 -0.0177 -0.0907 -0.4173
18888TIP3    H178155   6.154   6.428  14.357 -0.4235  0.3657 -0.2629
18888TIP3    H278156   6.197   6.571  14.380 -0.4751  0.6289 -1.6688
18889TIP3   OH278157   6.805   5.959   5.279  0.5432 -0.1734  0.8192
18889TIP3    H178158   6.857   5.932   5.355  1.1172 -0.8316  0.2013
18889TIP3    H278159   6.843   5.911   5.206  0.2923  0.8049  0.0309
18890TIP3   OH278160   2.020   4.111   0.883 -0.0806 -0.6959 -0.2823
18890TIP3    H178161   1.951   4.126   0.819 -0.7643 -2.0600  0.1106
18890TIP3    H278162   1.977   4.127   0.968  1.1398  2.4490 -0.1026
18891TIP3   OH278163   3.506   5.724  13.221 -0.1470  0.5869 -0.0980
18891TIP3    H178164   3.535   5.809  13.255  1.3400 -0.3874  1.2605
18891TIP3    H278165   3.486   5.672  13.300  2.1208 -1.3452 -0.6773
18892TIP3   OH278166   6.732   1.103   4.692 -0.1415 -0.1001  0.2508
18892TIP3    H178167   6.725   1.115   4.597  0.5763  0.4885  0.2650
18892TIP3    H278168   6.641   1.089   4.720 -0.0593 -3.9483 -0.9387
18893TIP3   OH278169   3.017   1.086   3.040 -0.0641 -0.0647 -0.2582
18893TIP3    H178170   3.042   1.054   2.954  1.0215  0.3485 -0.1158
18893TIP3    H278171   2.940   1.141   3.024  1.4488  1.8635 -1.3185
18894TIP3   OH278172   5.957   2.358   0.079  0.1133 -0.1070 -0.0862
18894TIP3    H178173   5.980   2.272   0.113 -1.1615 -0.1080  0.8187
18894TIP3    H278174   5.998   2.420   0.139 -0.3287 -0.0942  0.2027
18895TIP3   OH278175   4.987   6.721  13.774 -0.3393 -0.0229  0.1698
18895TIP3    H178176   5.041   6.748  13.848  0.6818 -2.0453  0.2504
18895TIP3    H278177   4.924   6.659  13.811 -0.7532  0.0358 -0.4231
18896TIP3   OH278178   5.639   0.506  15.862  0.2034  0.2912  0.0475
18896TIP3    H178179   5.628   0.602  15.860  0.0061  0.2810  0.5012
18896TIP3    H278180   5.723   0.490  15.820  0.0098  0.6299 -0.4843
18897TIP3   OH278181   2.709   4.193  12.396 -0.3741  0.5508  0.0199
18897TIP3    H178182   2.693   4.186  12.490  1.6423  1.6514  0.5117
18897TIP3    H278183   2.658   4.123  12.357 -0.9007 -0.2059  1.9856
18898TIP3   OH278184   0.365   0.529   0.011 -0.1136  0.1784  0.0296
18898TIP3    H178185   0.345   0.436   0.028 -0.0285 -0.0626 -1.1527
18898TIP3    H278186   0.334   0.544  -0.078  1.2564  0.8900 -0.3428
18899TIP3   OH278187   0.062   3.589   6.467 -0.0040  0.1020 -0.0214
18899TIP3    H178188   0.124   3.518   6.449  0.3520  0.8971 -2.3201
18899TIP3    H278189   0.117   3.660   6.500 -0.0119  0.0899  0.0173
18900TIP3   OH278190   2.989   6.105  12.919  0.4128  0.2212 -0.0330
18900TIP3    H178191   3.007   6.016  12.888  0.2217  0.2385 -0.1954
18900TIP3    H278192   2.924   6.093  12.988  0.2801  0.2452 -0.1520
18901TIP3   OH278193   5.954   2.175  11.643 -0.0224 -0.2865 -0.4323
18901TIP3    H178194   5.983   2.228  11.717 -1.6885  1.6436 -1.0657
18901TIP3    H278195   5.864   2.204  11.627 -0.2978 -1.8852 -2.1370
18902TIP3   OH278196   0.277   2.439   0.840 -0.7002  0.1110  1.0089
18902TIP3    H178197   0.190   2.433   0.800 -0.7198  0.0561  1.0608
18902TIP3    H278198   0.305   2.349   0.852  0.3927  0.0670 -1.2498
18903TIP3   OH278199   3.353   2.534   5.693  0.0235  0.0997  0.2244
18903TIP3    H178200   3.377   2.470   5.626  1.6658  0.3214  0.5534
18903TIP3    H278201   3.395   2.501   5.773  0.6330  1.4228  0.4625
18904TIP3   OH278202   0.362   0.811  16.992 -0.5010 -0.9413 -0.1843
18904TIP3    H178203   0.289   0.871  17.009 -2.3432 -3.3908  1.1537
18904TIP3    H278204   0.440   0.865  17.001 -2.0254  1.1695  1.3248
18905TIP3   OH278205   5.131   0.362   4.587  0.0531 -0.3071  0.1261
18905TIP3    H178206   5.217   0.329   4.559 -0.5012 -0.3498 -1.6237
18905TIP3    H278207   5.070   0.291   4.568 -0.5769  0.2600 -0.0262
18906TIP3   OH278208   2.157   1.464  15.366  0.0669 -0.3265 -0.2213
18906TIP3    H178209   2.121   1.544  15.403 -1.0639 -0.2210 -1.4604
18906TIP3    H278210   2.180   1.488  15.276  0.2927 -1.2308 -0.4125
18907TIP3   OH278211   0.119   2.376   3.311  0.7211 -0.4052 -0.0922
18907TIP3    H178212   0.150   2.429   3.385  1.1272  0.2302 -0.7033
18907TIP3    H278213   0.074   2.303   3.352 -1.6952  1.4575  0.8043
18908TIP3   OH278214   6.716   3.802  14.154  0.1197  1.0832 -1.3208
18908TIP3    H178215   6.752   3.868  14.094  1.3962  0.7802 -0.9179
18908TIP3    H278216   6.680   3.854  14.226  0.5818  1.3730 -1.2890
18909TIP3   OH278217   5.880   1.055   4.588  0.0582 -0.5770 -0.0662
18909TIP3    H178218   5.869   0.967   4.552 -1.2880 -0.4573  0.0199
18909TIP3    H278219   5.812   1.063   4.655  1.2193 -0.0545  1.1041
18910TIP3   OH278220   3.482   2.803   2.360  0.2532 -0.3568  0.1411
18910TIP3    H178221   3.532   2.813   2.441 -1.6524 -0.0528  1.3439
18910TIP3    H278222   3.413   2.740   2.382 -1.0350  0.6500 -0.8409
18911TIP3   OH278223   1.721   2.044  13.346  0.5563 -0.5998  0.2084
18911TIP3    H178224   1.813   2.053  13.323 -0.0058  2.9245 -1.3299
18911TIP3    H278225   1.710   2.100  13.423 -0.6311  0.6773 -0.8508
18912TIP3   OH278226   4.200   6.673  15.913 -0.5380  0.6091  0.0455
18912TIP3    H178227   4.266   6.622  15.960 -1.7045 -0.1254  0.9665
18912TIP3    H278228   4.200   6.758  15.956 -0.1776  0.6282  0.0129
18913TIP3   OH278229   3.137   6.822   5.505  0.5160 -0.1305 -0.0480
18913TIP3    H178230   3.161   6.733   5.530  1.8859  0.1047 -0.4751
18913TIP3    H278231   3.059   6.812   5.451 -0.6109 -0.8896  1.6426
18914TIP3   OH278232   6.546   3.332   2.810 -0.2894 -0.5262  0.4070
18914TIP3    H178233   6.539   3.388   2.887 -0.6909  3.4824 -2.2216
18914TIP3    H278234   6.631   3.354   2.772  1.1575 -4.4640  0.9617
18915TIP3   OH278235   0.869   2.566   4.178  0.4329 -0.1567 -0.2767
18915TIP3    H178236   0.819   2.543   4.256 -0.6107  2.4757 -0.0574
18915TIP3    H278237   0.935   2.497   4.170 -0.4310 -1.3390  1.9978
18916TIP3   OH278238   6.248   5.764   1.020  0.3977 -0.0488  0.0872
18916TIP3    H178239   6.340   5.774   1.043 -0.1783  0.1747  2.5631
18916TIP3    H278240   6.213   5.853   1.020  0.1134 -0.1420 -0.7258
18917TIP3   OH278241   1.422   3.651   4.957 -0.2325  0.2509  0.7893
18917TIP3    H178242   1.347   3.683   5.008 -0.7006 -0.8114  0.7877
18917TIP3    H278243   1.411   3.690   4.871 -2.2063 -1.8332  0.0010
18918TIP3   OH278244   1.453   3.393  14.261  0.1435  0.1888  0.0663
18918TIP3    H178245   1.505   3.402  14.341 -0.4355  2.4644  0.2640
18918TIP3    H278246   1.363   3.410  14.289 -0.4977 -1.7696 -0.6241
18919TIP3   OH278247   4.599   2.148   5.884  0.2025 -0.6958 -0.1230
18919TIP3    H178248   4.535   2.153   5.956  0.4612  0.3327  0.0528
18919TIP3    H278249   4.660   2.080   5.911  1.1084  0.6052  1.3369
18920TIP3   OH278250   1.396   4.591   0.152  0.6412  0.1036  0.2150
18920TIP3    H178251   1.489   4.585   0.171  0.3511 -0.6891  1.4872
18920TIP3    H278252   1.386   4.673   0.104  1.9614  0.2708  0.1992
18921TIP3   OH278253   1.077   4.785  14.495  0.2855 -0.0559 -0.0125
18921TIP3    H178254   1.135   4.753  14.427 -0.8277 -2.4935  0.0855
18921TIP3    H278255   1.045   4.869  14.462  0.9120 -0.4773 -1.8089
18922TIP3   OH278256   3.953   1.739   3.359  0.8701  0.7096  0.0655
18922TIP3    H178257   3.907   1.656   3.370  0.4590  0.6982 -1.4148
18922TIP3    H278258   4.044   1.713   3.343  0.7202  0.5209 -0.5227
18923TIP3   OH278259   1.547   2.517   3.109 -0.0764  0.2857 -0.0342
18923TIP3    H178260   1.575   2.597   3.152  0.9916 -0.1090  0.0449
18923TIP3    H278261   1.536   2.541   3.017 -1.0585  0.8199  0.2171
18924TIP3   OH278262   0.098   0.411   2.523 -0.1344 -0.4126  0.0732
18924TIP3    H178263   0.002   0.400   2.519 -0.2403  0.6949 -1.1309
18924TIP3    H278264   0.129   0.368   2.443  0.3225 -0.2372  0.1601
18925TIP3   OH278265   1.740   3.053   4.471 -0.1596 -0.0913  0.0840
18925TIP3    H178266   1.715   3.112   4.542 -0.4398  0.1941 -0.2436
18925TIP3    H278267   1.670   2.988   4.467 -0.2716  0.0364 -0.0850
18926TIP3   OH278268   0.827   3.647  11.993  0.0312 -0.0809  0.1453
18926TIP3    H178269   0.764   3.597  12.044  0.2225 -0.7285 -0.2477
18926TIP3    H278270   0.857   3.587  11.925  1.6950 -0.0881  0.8154
18927TIP3   OH278271   4.679   6.694   4.961  0.1743  0.9874  0.3232
18927TIP3    H178272   4.735   6.712   5.036  1.0424 -0.0566 -0.0543
18927TIP3    H278273   4.739   6.663   4.893 -1.0221 -2.2414  0.5701
18928TIP3   OH278274   3.514   3.184  14.410 -0.8244 -0.1562  0.3208
18928TIP3    H178275   3.569   3.212  14.484 -0.8829  1.3466 -0.1622
18928TIP3    H278276   3.519   3.088  14.411  0.5540 -0.1081  1.2272
18929TIP3   OH278277   0.902   0.863  13.950 -0.4959 -0.1967 -0.0526
18929TIP3    H178278   0.867   0.915  13.878 -0.5326  0.5292  0.4821
18929TIP3    H278279   0.923   0.927  14.018  0.6848 -0.7410  0.1224
18930TIP3   OH278280   3.866   5.988  16.204  0.0847  0.0073 -0.1492
18930TIP3    H178281   3.956   6.007  16.181  0.1963  0.1459  0.3956
18930TIP3    H278282   3.835   6.067  16.250  0.2786 -0.7466  1.3444
18931TIP3   OH278283   3.200   4.730   4.285 -0.3885  0.4648  0.2366
18931TIP3    H178284   3.179   4.659   4.346  1.5982  0.8975  1.5300
18931TIP3    H278285   3.127   4.792   4.293 -1.0651 -0.3845  0.7550
18932TIP3   OH278286   5.914   2.412  14.281 -0.3617 -0.3823  0.0920
18932TIP3    H178287   6.001   2.404  14.321 -1.0805 -0.6576  1.6622
18932TIP3    H278288   5.854   2.419  14.355 -1.5516  1.4071 -0.9574
18933TIP3   OH278289   3.072   0.925  16.470  0.4903  0.0411 -0.1626
18933TIP3    H178290   3.153   0.876  16.487  0.2516 -0.4021 -0.2825
18933TIP3    H278291   3.098   1.017  16.476  0.9469 -0.0981  0.0638
18934TIP3   OH278292   6.143   3.759   6.272  0.1790  0.4047 -0.0454
18934TIP3    H178293   6.196   3.681   6.289  0.6266  0.1758 -2.1909
18934TIP3    H278294   6.206   3.830   6.263 -0.0542  0.5972 -0.1838
18935TIP3   OH278295   3.722   1.589   0.889  0.5131  0.5211  0.2304
18935TIP3    H178296   3.703   1.509   0.938  1.3352  0.4816  0.4945
18935TIP3    H278297   3.817   1.593   0.884  0.4780  1.3429 -0.0191
18936TIP3   OH278298   0.593   3.037  12.828 -0.0483  0.1536  0.0885
18936TIP3    H178299   0.662   3.100  12.846 -0.9217  0.7135  1.6652
18936TIP3    H278300   0.574   2.997  12.913 -1.7409  0.1026 -0.2815
18937TIP3   OH278301   1.408   2.699  12.690  0.2809 -0.0379  0.1937
18937TIP3    H178302   1.401   2.638  12.764 -1.3875 -0.2594 -0.1273
18937TIP3    H278303   1.383   2.784  12.727  0.3561  0.0255  0.0973
18938TIP3   OH278304   1.677   5.240   1.125  0.2820 -0.3674  0.0281
18938TIP3    H178305   1.616   5.219   1.195  1.2720 -2.1245  0.4352
18938TIP3    H278306   1.681   5.336   1.124 -1.1314 -0.2653  1.1342
18939TIP3   OH278307   5.059   4.003   2.377 -0.2136 -0.1026 -0.3846
18939TIP3    H178308   5.076   3.912   2.402 -1.1369  0.0854  1.0903
18939TIP3    H278309   5.104   4.055   2.444 -2.7456  0.4363  1.0174
18940TIP3   OH278310   6.804   3.031   3.892 -0.5539 -0.3322  0.6005
18940TIP3    H178311   6.834   2.944   3.916 -1.0075 -0.1775  1.8012
18940TIP3    H278312   6.808   3.033   3.797  1.8672 -0.7996  0.6234
18941TIP3   OH278313   5.581   1.208   5.997 -0.4121 -0.5722  0.3316
18941TIP3    H178314   5.620   1.246   6.075 -0.0987 -0.4692  0.1253
18941TIP3    H278315   5.564   1.116   6.020 -2.4197 -0.0259  1.3065
18942TIP3   OH278316   1.004   3.742  14.268 -0.5101 -0.1820 -0.0452
18942TIP3    H178317   0.946   3.694  14.209 -2.0762  1.0232  0.4271
18942TIP3    H278318   1.009   3.830  14.229  1.2321 -0.3352 -0.2079
18943TIP3   OH278319   0.276   0.672   4.760 -0.3559  0.0495 -0.1251
18943TIP3    H178320   0.324   0.745   4.801 -0.4882  0.2467 -0.3169
18943TIP3    H278321   0.225   0.714   4.690 -2.9263  0.2696  1.7754
18944TIP3   OH278322   0.593   3.550   3.045 -0.0458 -0.0766  0.2891
18944TIP3    H178323   0.637   3.568   2.962  2.9100 -2.1086  1.2351
18944TIP3    H278324   0.633   3.610   3.107 -2.1847  1.3748  0.3439
18945TIP3   OH278325   2.241   6.607   0.464 -0.0213 -0.6825 -0.4003
18945TIP3    H178326   2.199   6.521   0.467 -1.2042 -0.1136  0.3134
18945TIP3    H278327   2.207   6.653   0.541  1.0377  0.2271 -0.4521
18946TIP3   OH278328   5.569   5.470  12.298  0.2208  0.4171  0.2197
18946TIP3    H178329   5.660   5.467  12.326  0.1983 -0.1950  0.2352
18946TIP3    H278330   5.555   5.561  12.270  0.8249  0.5169  0.2391
18947TIP3   OH278331   5.091   0.480   3.324 -0.0952  0.7397 -0.0406
18947TIP3    H178332   5.129   0.459   3.239  0.8574 -1.2035  0.8122
18947TIP3    H278333   5.052   0.567   3.312  0.1157  0.5595 -2.3993
18948TIP3   OH278334   5.166   0.253   6.058  0.0649 -0.1272  0.2420
18948TIP3    H178335   5.119   0.173   6.080 -0.3391  0.1298  0.3338
18948TIP3    H278336   5.239   0.256   6.120 -0.1195 -0.2477  0.4658
18949TIP3   OH278337   5.886   3.583  12.157  0.6715  0.8654  0.1738
18949TIP3    H178338   5.846   3.642  12.221  0.0632  1.3777 -0.6518
18949TIP3    H278339   5.875   3.628  12.073 -0.8075 -0.8987 -0.6385
18950TIP3   OH278340   5.137   3.687  12.363 -0.1301  0.3186  0.4065
18950TIP3    H178341   5.083   3.616  12.329  2.2367 -1.7455  0.6784
18950TIP3    H278342   5.104   3.702  12.451 -0.9572 -0.1217  0.1852
18951TIP3   OH278343   2.091   4.056  16.754  0.5141 -0.2190 -0.1449
18951TIP3    H178344   2.183   4.039  16.731  1.7194  3.7519  0.8327
18951TIP3    H278345   2.049   4.078  16.670  0.5907 -1.4538 -0.5170
18952TIP3   OH278346   4.647   2.095  13.840 -0.5446  0.6394 -0.4938
18952TIP3    H178347   4.586   2.147  13.892 -1.1822 -0.9599  0.4205
18952TIP3    H278348   4.618   2.005  13.852  1.5227 -0.1015 -0.7090
18953TIP3   OH278349   0.684   6.544   2.732 -0.6408 -0.8848 -0.0421
18953TIP3    H178350   0.734   6.621   2.704 -0.9498 -0.8261 -0.4430
18953TIP3    H278351   0.619   6.579   2.793  1.4706 -1.2960  2.6606
18954TIP3   OH278352   5.204   6.176   4.415  0.0683 -0.4078  0.1755
18954TIP3    H178353   5.223   6.121   4.491  0.1182  1.2599  1.4304
18954TIP3    H278354   5.109   6.167   4.401 -0.2012  0.3695  1.3675
18955TIP3   OH278355   5.759   5.018  11.907  0.0412  0.2948 -0.2557
18955TIP3    H178356   5.764   4.923  11.922 -2.5670  0.1908  0.3309
18955TIP3    H278357   5.729   5.053  11.991 -1.8488  1.2788 -1.2942
18956TIP3   OH278358   1.606   5.276   5.274 -0.2630 -0.0161 -0.2689
18956TIP3    H178359   1.521   5.311   5.302 -0.6046 -0.3354 -0.8718
18956TIP3    H278360   1.640   5.229   5.350  0.2772  1.7124  0.6296
18957TIP3   OH278361   6.505   5.515   5.536 -0.0251 -0.5063 -0.2763
18957TIP3    H178362   6.553   5.572   5.596  2.7801 -0.7894 -2.0353
18957TIP3    H278363   6.537   5.427   5.556 -1.4884 -1.0254 -0.0971
18958TIP3   OH278364   6.461   4.794  16.261  0.0300  0.2176 -0.3449
18958TIP3    H178365   6.498   4.876  16.226 -0.8098  0.1784 -1.3646
18958TIP3    H278366   6.457   4.736  16.185 -0.5079 -0.3652  0.1241
18959TIP3   OH278367   0.226   1.269  17.109 -0.1917  0.7838  0.3100
18959TIP3    H178368   0.244   1.286  17.016 -1.2317 -0.8794 -0.2513
18959TIP3    H278369   0.291   1.320  17.156  0.0849  2.0290 -1.3238
18960TIP3   OH278370   5.187   0.770   1.685  0.3009 -0.3188 -0.4679
18960TIP3    H178371   5.178   0.799   1.775  2.2382 -1.4288  0.1188
18960TIP3    H278372   5.096   0.757   1.656 -0.3506 -2.1144  2.0466
18961TIP3   OH278373   6.329   2.199  15.415 -0.1386  0.6666 -0.0138
18961TIP3    H178374   6.317   2.254  15.337  1.5071  1.0663 -0.0168
18961TIP3    H278375   6.292   2.250  15.486 -0.3928  0.9182 -0.3214
18962TIP3   OH278376   1.230   5.894  16.991  1.1254 -0.3828  0.1030
18962TIP3    H178377   1.287   5.824  16.960  0.4688 -0.2025 -1.6238
18962TIP3    H278378   1.289   5.968  17.007  1.3855 -0.0278 -2.1874
18963TIP3   OH278379   5.684   4.952  15.331  0.2614 -0.0490 -0.0000
18963TIP3    H178380   5.608   4.970  15.386  0.6159  3.0613 -0.3303
18963TIP3    H278381   5.709   4.862  15.353 -3.2152 -1.0634  0.3734
18964TIP3   OH278382   2.898   6.525   0.037  0.5034  0.0210  0.3538
18964TIP3    H178383   2.934   6.575  -0.037 -1.7134  2.8009  0.9855
18964TIP3    H278384   2.899   6.586   0.110 -2.1802 -0.8814  1.2554
18965TIP3   OH278385   5.324   5.296   4.069 -0.2778  0.6700 -0.1268
18965TIP3    H178386   5.350   5.388   4.063  1.0999  0.3012 -0.0819
18965TIP3    H278387   5.280   5.289   4.154  1.0980  0.9566  0.6436
18966TIP3   OH278388   2.022   2.808  12.656 -0.0162 -0.3611  0.1688
18966TIP3    H178389   1.963   2.843  12.722 -1.6256  0.0310 -1.3761
18966TIP3    H278390   2.015   2.713  12.666 -0.6982 -0.3134  0.2312
18967TIP3   OH278391   2.176   3.660   0.816  0.3022  0.4575  0.3519
18967TIP3    H178392   2.097   3.704   0.845 -0.6814  0.2030 -1.7904
18967TIP3    H278393   2.248   3.714   0.850 -0.8343  2.5263 -0.3986
18968TIP3   OH278394   5.905   0.726   5.890 -0.0713 -0.5221 -0.0474
18968TIP3    H178395   5.981   0.678   5.859  0.2108 -0.0921 -0.0344
18968TIP3    H278396   5.891   0.794   5.824  0.6365  0.5091  0.8285
18969TIP3   OH278397   0.594   4.803  11.943 -0.3568 -0.3223  0.8557
18969TIP3    H178398   0.502   4.828  11.933 -0.3545  0.1707  1.8797
18969TIP3    H278399   0.601   4.719  11.898 -0.3963  1.3822 -2.6221
18970TIP3   OH278400   0.059   6.693  15.984 -0.3550  0.2032 -0.0795
18970TIP3    H178401   0.070   6.636  16.060  1.4645  0.7452  0.1280
18970TIP3    H278402  -0.019   6.745  16.003 -2.0124 -2.0785 -0.2309
18971TIP3   OH278403   6.502   3.636  14.348 -0.8798  0.4879  0.3078
18971TIP3    H178404   6.569   3.701  14.366  2.7255 -2.1421 -2.3193
18971TIP3    H278405   6.454   3.670  14.272 -1.1002  1.3824  0.8365
18972TIP3   OH278406   1.690   1.673  12.855  0.2361 -0.0839 -0.5799
18972TIP3    H178407   1.714   1.585  12.828 -0.9841 -0.1196 -1.6427
18972TIP3    H278408   1.614   1.660  12.913 -0.2589  0.2810 -1.1334
18973TIP3   OH278409   0.315   3.063  13.364  0.8451 -0.5833  0.3339
18973TIP3    H178410   0.346   3.071  13.454  1.8596 -0.9103  0.0255
18973TIP3    H278411   0.251   2.992  13.367  0.0919  0.1015  0.9795
18974TIP3   OH278412   4.136   6.568   0.326  0.3036  0.2347  0.4365
18974TIP3    H178413   4.136   6.486   0.376 -1.8694  0.5725  1.1329
18974TIP3    H278414   4.204   6.557   0.260  0.6345 -1.7851  1.0510
18975TIP3   OH278415   0.823   3.034  12.384 -0.0444  0.5711 -0.8495
18975TIP3    H178416   0.877   3.076  12.452  1.1042 -2.1000  0.0161
18975TIP3    H278417   0.877   3.038  12.305  0.7570 -0.5803 -0.3904
18976TIP3   OH278418   1.159   1.112   1.798 -0.1352 -0.2309  0.2955
18976TIP3    H178419   1.069   1.083   1.812 -1.0610  0.2368 -3.5064
18976TIP3    H278420   1.203   1.037   1.758 -0.5074  1.0768 -2.8856
18977TIP3   OH278421   4.621   0.048   4.369 -0.0975  0.3765  0.4435
18977TIP3    H178422   4.619  -0.046   4.388 -4.3622 -0.2377 -1.7833
18977TIP3    H278423   4.602   0.054   4.275  1.3787  3.4892  0.2298
18978TIP3   OH278424   6.096   4.918   2.297 -0.4493  0.0489 -0.3280
18978TIP3    H178425   6.186   4.939   2.321 -0.1586 -2.5583  1.1818
18978TIP3    H278426   6.097   4.916   2.201  0.9879  0.4521 -0.3480
18979TIP3   OH278427   1.533   3.298   1.280  0.3488  0.4226  0.3534
18979TIP3    H178428   1.473   3.322   1.351  0.2046  2.4299 -0.3869
18979TIP3    H278429   1.475   3.277   1.206  0.5082  1.5215 -0.1039
18980TIP3   OH278430   5.673   3.316   2.802  0.0694  0.4107  0.4363
18980TIP3    H178431   5.698   3.305   2.894 -0.3762 -3.6656  0.2370
18980TIP3    H278432   5.591   3.268   2.793 -0.4106  1.5260 -1.9458
18981TIP3   OH278433   1.403   1.561  16.540  0.2252 -0.4464 -0.3611
18981TIP3    H178434   1.345   1.492  16.507 -0.5274  0.5309 -1.1413
18981TIP3    H278435   1.474   1.565  16.477  0.9252 -1.3221  0.3426
18982TIP3   OH278436   5.026   3.651  15.188 -0.0712  0.2415 -0.2471
18982TIP3    H178437   5.040   3.695  15.104 -2.9362 -0.8446 -1.3876
18982TIP3    H278438   5.008   3.560  15.165  1.5564 -0.6716  1.7806
18983TIP3   OH278439   2.526   4.985  13.623  0.2210  0.5160  0.2879
18983TIP3    H178440   2.493   4.961  13.710 -0.4751  2.3670  0.5710
18983TIP3    H278441   2.621   4.969  13.629  0.1899  0.6629  1.4136
18984TIP3   OH278442   1.283   3.661  13.102  0.0747  0.0159 -0.3034
18984TIP3    H178443   1.318   3.679  13.189  0.7460 -0.7100 -0.4114
18984TIP3    H278444   1.249   3.572  13.108  0.6902 -0.2768 -0.9414
18985TIP3   OH278445   3.867   4.239  11.124 -0.2092 -0.0149 -0.1095
18985TIP3    H178446   3.903   4.221  11.037 -0.2585 -0.9163  0.0449
18985TIP3    H278447   3.943   4.251  11.180 -0.1758  0.2645 -0.2120
18986TIP3   OH278448   6.088   0.105   3.109 -0.1436  0.1627  0.3956
18986TIP3    H178449   6.039   0.027   3.083 -1.1974  0.6417  0.8473
18986TIP3    H278450   6.177   0.074   3.126  0.5796 -0.2441 -3.3341
18987TIP3   OH278451   1.314   1.311   0.171  0.2258 -0.1366 -0.6478
18987TIP3    H178452   1.406   1.287   0.159 -0.2983 -1.6062 -2.1179
18987TIP3    H278453   1.297   1.295   0.264  1.8555  1.8126  0.0587
18988TIP3   OH278454   4.606   2.067  11.812  0.0773 -0.4371  0.5397
18988TIP3    H178455   4.608   2.136  11.745 -0.0575 -2.1259 -1.3155
18988TIP3    H278456   4.542   2.097  11.876  1.4148  2.0100  0.8269
18989TIP3   OH278457   1.025   0.152   2.647 -0.8208 -0.5619  0.2680
18989TIP3    H178458   0.987   0.126   2.563  1.7008 -0.5718 -0.9567
18989TIP3    H278459   1.062   0.072   2.684  0.6054 -0.0812 -0.0379
18990TIP3   OH278460   5.490   1.101  16.642  0.2348 -0.1101 -0.1017
18990TIP3    H178461   5.426   1.031  16.632 -0.1221  0.2313 -0.2209
18990TIP3    H278462   5.450   1.177  16.599 -0.0155  0.5651  1.2752
18991TIP3   OH278463   3.317   6.300   5.037  0.3592  0.0847 -0.8954
18991TIP3    H178464   3.275   6.347   4.965  0.3710  2.4629  0.5517
18991TIP3    H278465   3.401   6.272   5.001  0.3497  1.1766 -1.8352
18992TIP3   OH278466   5.013   3.430   4.120  0.1218  0.4633  0.0982
18992TIP3    H178467   5.027   3.339   4.094  0.5832  0.9666 -1.5195
18992TIP3    H278468   4.959   3.424   4.199 -0.9851 -1.1831 -0.7156
18993TIP3   OH278469   0.477   4.758   4.971  0.3044  0.1150 -0.0978
18993TIP3    H178470   0.538   4.745   4.899  0.8097  0.5314  0.2438
18993TIP3    H278471   0.457   4.670   5.003  0.3051 -0.0518 -0.5524
18994TIP3   OH278472   0.250   4.760  10.882 -0.3042  0.5004  0.7710
18994TIP3    H178473   0.249   4.855  10.896  1.4050  0.4664  1.3277
18994TIP3    H278474   0.231   4.723  10.968 -0.5143  0.3310  0.6522
18995TIP3   OH278475   0.923   3.812  14.993 -0.1244 -0.3062  0.2000
18995TIP3    H178476   0.854   3.867  14.956 -0.4536 -0.4233  0.6290
18995TIP3    H278477   1.002   3.866  14.990 -0.6617  0.6257  1.6403
18996TIP3   OH278478   6.637   6.172   1.831  0.9128  0.5990 -0.9623
18996TIP3    H178479   6.624   6.191   1.738  1.7231 -0.8281 -1.3964
18996TIP3    H278480   6.659   6.079   1.834  0.0363  0.4091  0.7581
18997TIP3   OH278481   2.019   5.181  14.590 -0.1858  0.1405 -0.1917
18997TIP3    H178482   1.954   5.154  14.525  0.1002  0.6785 -0.7152
18997TIP3    H278483   2.101   5.144  14.560 -0.0110  0.5748 -0.2625
18998TIP3   OH278484   0.979   4.187  13.725  0.3440 -0.0391 -0.5294
18998TIP3    H178485   1.071   4.169  13.704  0.6819  0.7058  0.2386
18998TIP3    H278486   0.947   4.236  13.649  0.3487 -0.9970 -1.1559
18999TIP3   OH278487   5.862   6.749  16.018 -0.6848  0.0529 -0.5321
18999TIP3    H178488   5.857   6.814  16.088  1.6256  0.6934 -0.8893
18999TIP3    H278489   5.772   6.742  15.986 -1.5449  0.7704  1.5522
19000TIP3   OH278490   3.218   1.724  16.938 -0.1181  0.2081 -0.0910
19000TIP3    H178491   3.223   1.707  16.844 -1.3745  1.9086 -0.5270
19000TIP3    H278492   3.141   1.781  16.947  1.3313  2.0456  1.6356
19001TIP3   OH278493   2.651   6.279   1.705  0.5487  0.0437  0.5931
19001TIP3    H178494   2.639   6.357   1.651 -0.2175 -0.2027  0.4019
19001TIP3    H278495   2.627   6.308   1.793 -1.1225 -0.3257  0.2902
19002TIP3   OH278496   5.393   5.763  14.807 -0.5818 -0.5760 -0.3172
19002TIP3    H178497   5.482   5.746  14.777 -0.0265  0.4991  0.6469
19002TIP3    H278498   5.394   5.745  14.900 -1.2172 -0.0096 -0.1883
19003TIP3   OH278499   1.044   0.517  11.984  0.2135 -0.5215  0.8421
19003TIP3    H178500   1.005   0.497  12.069  0.5416 -0.6712  0.9593
19003TIP3    H278501   0.982   0.483  11.920  0.8896 -2.2125  1.0298
19004TIP3   OH278502   5.887   5.222  12.892  0.1203 -0.7032 -0.0321
19004TIP3    H178503   5.875   5.128  12.907  0.5644 -0.8983 -0.8546
19004TIP3    H278504   5.933   5.227  12.809  1.1739  0.2160  0.5879
19005TIP3   OH278505   5.753   6.738  15.277  0.2136 -0.1280  0.0691
19005TIP3    H178506   5.671   6.737  15.327  0.5173  0.4857  0.5907
19005TIP3    H278507   5.733   6.687  15.198 -1.4123  1.9554 -0.9844
19006TIP3   OH278508   4.641   6.511   1.229  0.1097  0.8213 -0.0649
19006TIP3    H178509   4.565   6.559   1.197  0.3370  0.4134 -1.2448
19006TIP3    H278510   4.624   6.500   1.323 -2.8206 -1.9417 -0.7350
19007TIP3   OH278511   5.154   4.907   3.592  0.0816  0.0189  0.9725
19007TIP3    H178512   5.195   4.844   3.533 -0.6971 -0.2410  0.6914
19007TIP3    H278513   5.156   4.990   3.545  1.7200  0.3778  1.6173
19008TIP3   OH278514   1.116   5.980   2.226 -0.1973 -0.0860 -0.2737
19008TIP3    H178515   1.123   6.023   2.312 -0.0727 -2.2726  0.8724
19008TIP3    H278516   1.193   5.924   2.222  0.3737  0.7568 -2.3297
19009TIP3   OH278517   3.828   4.654   4.001  0.1241  0.1344 -0.0024
19009TIP3    H178518   3.909   4.669   3.952  0.7857  0.4245  1.1335
19009TIP3    H278519   3.857   4.616   4.084 -0.5142  3.4169  1.9202
19010TIP3   OH278520   3.534   6.366   5.326 -0.0120 -0.1576  0.0582
19010TIP3    H178521   3.585   6.291   5.356 -0.4521 -0.7408 -0.6219
19010TIP3    H278522   3.581   6.397   5.248  0.1390  0.2445  0.3070
19011TIP3   OH278523   1.156   6.585  11.421  0.4069 -0.0820 -0.7781
19011TIP3    H178524   1.111   6.655  11.467 -1.1265 -1.9274  0.7030
19011TIP3    H278525   1.148   6.607  11.328 -0.6605  1.2990 -0.3745
19012TIP3   OH278526   1.656   2.342   3.277  0.5292  0.0400 -0.1665
19012TIP3    H178527   1.706   2.298   3.209 -1.2472  0.7163 -2.0276
19012TIP3    H278528   1.619   2.420   3.234 -1.1464  0.1842  1.3776
19013TIP3   OH278529   3.207   1.002   0.086  0.5854 -0.1956  0.3631
19013TIP3    H178530   3.213   1.074   0.023 -1.4254 -0.1143  0.2180
19013TIP3    H278531   3.198   1.045   0.171  0.7292 -0.2995  0.4323
19014TIP3   OH278532   2.394   5.121   0.765 -0.2021 -0.3041  0.1568
19014TIP3    H178533   2.360   5.139   0.677 -0.0766 -0.4879  0.0697
19014TIP3    H278534   2.455   5.048   0.753  0.1827 -0.0108  0.3205
19015TIP3   OH278535   4.521   3.703   5.393  0.0108 -0.2203 -0.3463
19015TIP3    H178536   4.470   3.702   5.312 -2.0917 -0.6470  0.8853
19015TIP3    H278537   4.481   3.635   5.447 -0.1368  1.5098  1.8679
19016TIP3   OH278538   1.917   4.334  12.087  0.2569  0.2102 -0.5889
19016TIP3    H178539   1.982   4.332  12.017 -0.2071  0.6296 -1.0449
19016TIP3    H278540   1.835   4.354  12.042 -0.1816 -0.2694 -0.0185
19017TIP3   OH278541   0.973   3.715  12.250 -0.6015  0.3640  0.0572
19017TIP3    H178542   0.934   3.672  12.174 -0.0802  0.2482 -0.1495
19017TIP3    H278543   0.983   3.806  12.223  0.0065  0.2310 -0.1890
19018TIP3   OH278544   1.347   0.807  11.150 -0.0423 -0.3451 -0.0640
19018TIP3    H178545   1.436   0.791  11.183  0.4012 -0.4192 -1.2352
19018TIP3    H278546   1.297   0.831  11.228  1.2669  0.8126  0.4758
19019TIP3   OH278547   2.489   1.432  16.397 -0.0765 -0.1037  0.3470
19019TIP3    H178548   2.572   1.427  16.348  0.9086 -0.0694  1.9248
19019TIP3    H278549   2.446   1.349  16.380 -0.8154  0.7079 -2.2639
19020TIP3   OH278550   4.302   0.667   1.300  0.0575  0.0904  0.4023
19020TIP3    H178551   4.253   0.602   1.250  0.0524 -0.6242  1.3252
19020TIP3    H278552   4.363   0.616   1.354  0.6034  0.8847  0.5576
19021TIP3   OH278553   6.225   1.884   2.043 -0.5381 -0.3908 -0.1527
19021TIP3    H178554   6.240   1.979   2.036 -0.3574 -0.4116 -0.0624
19021TIP3    H278555   6.282   1.856   2.115 -0.5296 -0.5824 -0.2334
19022TIP3   OH278556   0.655   3.671   0.898 -0.2654  0.2537 -0.2402
19022TIP3    H178557   0.560   3.684   0.901 -0.3833 -0.6193 -0.0838
19022TIP3    H278558   0.679   3.650   0.988  0.2466  1.5471 -0.0522
19023TIP3   OH278559   4.731   2.213  13.614  0.3061  0.3254  0.0651
19023TIP3    H178560   4.687   2.193  13.696  0.6283  1.0235  0.4187
19023TIP3    H278561   4.824   2.214  13.636  0.3077  2.6648  0.2273
19024TIP3   OH278562   4.158   6.059  16.749  0.1806  0.1469  0.2465
19024TIP3    H178563   4.210   5.993  16.796  2.4530  0.4248 -1.6651
19024TIP3    H278564   4.220   6.129  16.730 -1.1884  1.0161 -1.2453
19025TIP3   OH278565   5.414   3.813  15.262 -0.1078  0.2474  0.2660
19025TIP3    H178566   5.330   3.786  15.299  0.0841 -0.0318  0.5079
19025TIP3    H278567   5.478   3.792  15.330  0.5445 -2.3678 -1.0162
19026TIP3   OH278568   2.976   0.015  13.401 -0.0776 -0.2719  0.6651
19026TIP3    H178569   3.030   0.007  13.323 -0.3763  0.5460  0.3617
19026TIP3    H278570   3.035  -0.006  13.473  0.6931  0.6914  0.3455
19027TIP3   OH278571   2.884   3.743   0.862 -1.0045 -0.0697  0.3716
19027TIP3    H178572   2.793   3.768   0.879 -1.1745  0.0626 -0.6351
19027TIP3    H278573   2.879   3.691   0.781 -0.1111  0.5184 -0.0705
19028TIP3   OH278574   0.953   4.494  12.870  0.0147 -0.1512 -0.2538
19028TIP3    H178575   1.026   4.442  12.903 -0.2549 -1.3153 -1.3955
19028TIP3    H278576   0.875   4.454  12.910 -0.2294 -0.9587 -1.4612
19029TIP3   OH278577   0.705   5.314  12.819 -0.0324  0.0848 -0.3993
19029TIP3    H178578   0.793   5.318  12.858 -0.8787  0.1146  1.6660
19029TIP3    H278579   0.652   5.369  12.877 -1.0979  1.5314 -2.6301
19030TIP3   OH278580   2.569   0.109  12.058  0.7409 -0.1816  0.2246
19030TIP3    H178581   2.505   0.050  12.018  1.4542 -0.5246 -0.4300
19030TIP3    H278582   2.579   0.076  12.147 -0.9873  0.6876  0.7882
19031TIP3   OH278583   3.624   4.524  17.196  0.3167 -0.1848  0.2394
19031TIP3    H178584   3.533   4.494  17.201  0.5850 -1.0402  0.0563
19031TIP3    H278585   3.672   4.451  17.157  0.7167  1.0752 -1.7688
19032TIP3   OH278586   3.344   0.676   3.838  0.0587  0.5475  0.0770
19032TIP3    H178587   3.318   0.656   3.929  2.5435 -0.8010  0.5839
19032TIP3    H278588   3.313   0.765   3.824 -0.2886  0.8494  2.2955
19033TIP3   OH278589   6.036   1.139  11.573 -0.1747  0.4182 -0.1222
19033TIP3    H178590   6.117   1.095  11.600 -0.0300  0.1296 -0.9965
19033TIP3    H278591   6.066   1.214  11.522 -0.2651  3.3628  3.6613
19034TIP3   OH278592   4.838   6.575   2.378 -0.4198  0.1458  0.0278
19034TIP3    H178593   4.898   6.644   2.407 -0.0591 -0.5812  1.0563
19034TIP3    H278594   4.844   6.508   2.446  0.7959 -1.8438 -1.9056
19035TIP3   OH278595   3.314   6.420  13.867 -0.2047  0.0122 -0.0991
19035TIP3    H178596   3.222   6.449  13.864 -0.5042 -0.7450  1.1792
19035TIP3    H278597   3.336   6.404  13.775 -1.7013 -0.7970 -0.3547
19036TIP3   OH278598   4.564   5.067   4.228 -0.3308 -0.6076 -0.1729
19036TIP3    H178599   4.577   5.018   4.147  0.0881 -0.9352  0.0895
19036TIP3    H278600   4.548   5.157   4.199  0.5640 -0.5729 -0.5931
19037TIP3   OH278601   4.165   1.856  15.433 -0.1512 -0.2508  0.2040
19037TIP3    H178602   4.173   1.933  15.377  0.9766 -0.9832 -0.6877
19037TIP3    H278603   4.153   1.891  15.521 -0.4376  0.9256 -0.2926
19038TIP3   OH278604   0.538   1.451  11.818  0.3468  0.0681  0.1316
19038TIP3    H178605   0.585   1.507  11.756  0.3934  0.5522  0.5953
19038TIP3    H278606   0.522   1.507  11.894 -0.9480 -0.0965  0.0076
19039TIP3   OH278607   6.607   6.478  12.787  0.4657 -0.4104  0.2055
19039TIP3    H178608   6.532   6.426  12.757  0.5775  0.0162 -0.8845
19039TIP3    H278609   6.629   6.443  12.873 -0.3654 -1.1962  0.1074
19040TIP3   OH278610   5.978   4.319   3.641 -0.6677 -0.5394  0.3438
19040TIP3    H178611   5.946   4.262   3.711  0.6054 -1.3150  0.3141
19040TIP3    H278612   6.046   4.268   3.597 -0.3579  0.5354 -0.4664
19041TIP3   OH278613   2.635   0.600   1.119  0.4495 -0.7458 -0.0233
19041TIP3    H178614   2.568   0.542   1.156 -0.3950  1.3402  1.9599
19041TIP3    H278615   2.705   0.601   1.185  0.0916  1.0461  0.3606
19042TIP3   OH278616   0.890   0.272   5.513  0.2630  0.3823 -0.1270
19042TIP3    H178617   0.874   0.178   5.509 -0.1591  0.4312  0.3934
19042TIP3    H278618   0.982   0.280   5.538  1.0419  0.1052 -2.6161
19043TIP3   OH278619   5.748   5.494   4.627  0.2881 -0.2617 -0.0722
19043TIP3    H178620   5.777   5.403   4.623 -0.6213 -0.6893  2.0129
19043TIP3    H278621   5.806   5.535   4.692  0.3372  0.5382 -0.5967
19044TIP3   OH278622   5.734   2.006  16.553 -0.2241  0.1556  0.0084
19044TIP3    H178623   5.711   1.923  16.594 -0.2218 -0.4362 -1.1498
19044TIP3    H278624   5.692   2.073  16.608 -1.2563 -0.6812  0.2624
19045TIP3   OH278625   4.422   0.550   3.571 -0.1953  0.4624 -0.5120
19045TIP3    H178626   4.365   0.547   3.648  1.1387  0.1873  0.4942
19045TIP3    H278627   4.500   0.596   3.600  0.1256  0.8349 -1.8665
19046TIP3   OH278628   6.684   0.700  13.983  0.2335 -0.6902 -0.0729
19046TIP3    H178629   6.685   0.697  13.887 -0.7636 -0.6690 -0.0899
19046TIP3    H278630   6.775   0.717  14.007  0.0851  1.9865 -1.1018
19047TIP3   OH278631   4.062   1.465   2.750 -0.3382 -0.7794  0.1523
19047TIP3    H178632   4.097   1.388   2.704  0.1872 -0.0219 -0.7686
19047TIP3    H278633   4.109   1.538   2.710 -1.4853  0.0927  0.3903
19048TIP3   OH278634   3.581   1.607  13.089 -0.1136  0.4809 -0.1238
19048TIP3    H178635   3.652   1.605  13.024 -1.0187 -0.1291 -1.1255
19048TIP3    H278636   3.625   1.625  13.172  1.0604  1.4504 -0.9206
19049TIP3   OH278637   6.120   1.335   5.794 -0.2820 -0.1529 -0.5203
19049TIP3    H178638   6.043   1.374   5.753  0.1991  0.0011 -1.3200
19049TIP3    H278639   6.186   1.405   5.790  0.1309 -0.5435 -0.5708
19050TIP3   OH278640   0.567   4.754  17.153 -0.3142 -0.1348 -0.1425
19050TIP3    H178641   0.588   4.759  17.246 -0.8643  0.3747 -0.0434
19050TIP3    H278642   0.650   4.773  17.109 -0.0325 -0.4613  0.2361
19051TIP3   OH278643   3.334   1.165   5.561 -0.0634  0.2680 -0.0877
19051TIP3    H178644   3.341   1.117   5.479 -0.2081  0.4849 -0.2278
19051TIP3    H278645   3.368   1.104   5.627 -1.6228 -0.6249 -0.0429
19052TIP3   OH278646   0.627   6.168   3.478 -0.2957  1.1865  0.1171
19052TIP3    H178647   0.708   6.184   3.429 -0.5059  0.2835 -0.5525
19052TIP3    H278648   0.622   6.073   3.485 -0.9366  1.2673  0.7811
19053TIP3   OH278649   4.686   3.767   2.627  0.5941  0.3620  0.0896
19053TIP3    H178650   4.661   3.675   2.628 -0.3581  0.6097  0.1812
19053TIP3    H278651   4.604   3.814   2.609  0.6925  1.3059  1.9058
19054TIP3   OH278652   5.567   2.364  14.110 -0.3345 -0.1240 -0.2263
19054TIP3    H178653   5.544   2.287  14.058  0.7528 -0.6882  0.0911
19054TIP3    H278654   5.511   2.434  14.076 -0.0836 -0.6243 -1.7432
19055TIP3   OH278655   0.940   3.323   3.280  0.3012  0.2521 -0.6471
19055TIP3    H178656   0.955   3.312   3.374  0.0910 -2.9520 -0.8847
19055TIP3    H278657   0.849   3.353   3.274 -0.0526 -0.5824  0.1885
19056TIP3   OH278658   0.209   0.868  10.699 -0.4865  0.1455  0.3090
19056TIP3    H178659   0.304   0.869  10.706 -0.5482 -0.4755  1.3675
19056TIP3    H278660   0.181   0.953  10.730 -0.2537  0.5900 -0.6504
19057TIP3   OH278661   5.448   6.021  12.524 -0.0088 -0.7061  0.0707
19057TIP3    H178662   5.422   5.932  12.502 -0.5680 -0.1905 -1.5129
19057TIP3    H278663   5.509   6.046  12.454 -0.1600  0.2829  0.2696
19058TIP3   OH278664   2.236   3.176   4.303  0.2179 -0.2205  0.3406
19058TIP3    H178665   2.280   3.092   4.294  1.0327  0.1867  0.4876
19058TIP3    H278666   2.166   3.160   4.366 -0.6101 -1.1636 -0.7582
19059TIP3   OH278667   3.422   3.526  17.169  0.0990  0.3597 -0.1755
19059TIP3    H178668   3.444   3.479  17.249 -2.3540 -1.5918 -0.5152
19059TIP3    H278669   3.404   3.615  17.198  0.4089 -0.0070  1.2362
19060TIP3   OH278670   0.700   1.000  14.265  0.6209  0.4508  0.5698
19060TIP3    H178671   0.675   1.057  14.192  1.1429 -0.3617 -0.2769
19060TIP3    H278672   0.792   1.023  14.282  1.4163 -1.2907 -0.9719
19061TIP3   OH278673   5.863   0.161   1.440  0.0550 -0.5493  0.2945
19061TIP3    H178674   5.814   0.144   1.360  1.0935  1.4439 -0.8464
19061TIP3    H278675   5.889   0.075   1.472  1.7764 -1.3780 -2.9368
19062TIP3   OH278676   4.897   1.385   3.700  0.1501  0.1193 -0.5751
19062TIP3    H178677   4.841   1.367   3.775 -1.8203 -2.2593 -2.4371
19062TIP3    H278678   4.942   1.302   3.683  2.0852  1.1753 -0.8818
19063TIP3   OH278679   0.808   0.143  13.274 -0.1975 -0.1302  1.0293
19063TIP3    H178680   0.774   0.154  13.363 -1.0620  2.0918  0.4875
19063TIP3    H278681   0.903   0.141  13.285 -0.3029 -0.1362  2.0286
19064TIP3   OH278682   6.811   3.522   0.492  0.1733 -0.3787  0.2164
19064TIP3    H178683   6.890   3.514   0.545  1.4017 -0.6696 -1.5912
19064TIP3    H278684   6.750   3.460   0.532  0.5822  0.3385  2.0535
19065TIP3   OH278685   0.465   3.885  16.107 -0.0903  0.2488  0.1566
19065TIP3    H178686   0.406   3.857  16.177  0.5559  1.7375  1.3466
19065TIP3    H278687   0.548   3.842  16.128 -0.5221 -1.3485 -1.1732
19066TIP3   OH278688   4.299   0.421  11.352  0.3511  0.0615 -0.0580
19066TIP3    H178689   4.278   0.448  11.441  0.1063 -1.1884  0.2755
19066TIP3    H278690   4.394   0.413  11.351  0.2390 -1.9304  0.7204
19067TIP3   OH278691   1.175   0.608  10.790 -0.0791  0.5514 -0.1560
19067TIP3    H178692   1.232   0.549  10.740 -1.2283 -0.7718  0.0039
19067TIP3    H278693   1.235   0.670  10.831  1.4785 -1.7483  1.3389
19068TIP3   OH278694   1.375   2.598  14.718  0.2375  0.0920  0.4866
19068TIP3    H178695   1.314   2.538  14.760  0.9809  0.9608  3.0096
19068TIP3    H278696   1.458   2.585  14.765  1.4645  0.3974 -1.4721
19069TIP3   OH278697   6.367   5.888   4.169  0.1422 -0.2562  0.2084
19069TIP3    H178698   6.358   5.830   4.245  0.3891 -1.3054 -0.5383
19069TIP3    H278699   6.428   5.956   4.197 -1.0483  0.3230  1.4879
19070TIP3   OH278700   3.422   1.803   3.302  0.1110 -0.1215  0.0525
19070TIP3    H178701   3.390   1.770   3.219  0.3728  1.2224 -0.6071
19070TIP3    H278702   3.472   1.882   3.280 -0.2937  0.5971  1.5210
19071TIP3   OH278703   4.596   0.078  15.191 -0.2638  0.6326 -0.5912
19071TIP3    H178704   4.596   0.084  15.096 -0.1499  2.4553 -0.5177
19071TIP3    H278705   4.542   0.001  15.211 -1.7026  1.1863 -2.0944
19072TIP3   OH278706   1.058   3.403  10.114 -0.3359 -0.4142  0.0622
19072TIP3    H178707   1.151   3.404  10.090 -0.6333 -2.4275 -1.4346
19072TIP3    H278708   1.043   3.315  10.147 -1.9371 -0.4553 -0.6921
19073TIP3   OH278709   2.593   2.830   1.650  0.2439 -0.2611 -0.2798
19073TIP3    H178710   2.557   2.744   1.630  1.1505 -0.8363  0.5455
19073TIP3    H278711   2.682   2.814   1.681  0.3282  0.9409  0.1837
19074TIP3   OH278712   3.418   0.016  11.430  0.1787 -0.0512  0.0282
19074TIP3    H178713   3.499   0.006  11.481  1.5474  3.0579 -1.2544
19074TIP3    H278714   3.433  -0.039  11.352  0.8291  0.0816  0.0513
19075TIP3   OH278715   5.039   1.651  14.638  0.4816 -0.6493 -0.5423
19075TIP3    H178716   4.985   1.609  14.571 -0.7794 -1.6545  1.0562
19075TIP3    H278717   5.128   1.650  14.601 -0.4555  0.8744 -3.1543
19076TIP3   OH278718   1.790   3.647   2.689 -0.3882 -0.3229 -0.3477
19076TIP3    H178719   1.736   3.611   2.759  0.9789  0.5741  1.2380
19076TIP3    H278720   1.785   3.742   2.701  1.3386 -0.2053 -0.2641
19077TIP3   OH278721   5.748   0.291   2.404  0.0768 -0.1206 -0.0658
19077TIP3    H178722   5.817   0.353   2.428 -0.2917  1.0558 -1.8765
19077TIP3    H278723   5.763   0.274   2.311 -1.6734 -0.3488 -0.3320
19078TIP3   OH278724   0.966   5.514  15.838 -0.7571 -0.0809 -0.0929
19078TIP3    H178725   0.955   5.592  15.784 -0.5666  0.4048  0.5553
19078TIP3    H278726   1.050   5.527  15.883 -1.4519  0.0901  1.2208
19079TIP3   OH278727   3.832   5.669  12.756 -0.0010 -0.2883 -0.2360
19079TIP3    H178728   3.926   5.655  12.751  0.5598  1.9467  2.1478
19079TIP3    H278729   3.815   5.740  12.693 -0.3305 -1.3909 -1.4361
19080TIP3   OH278730   5.955   3.395   0.364  0.6160  0.2221  0.3758
19080TIP3    H178731   5.872   3.399   0.316  1.8141  0.8678 -1.8134
19080TIP3    H278732   5.957   3.475   0.416 -0.6336 -0.3862  1.4018
19081TIP3   OH278733   6.020   2.541   4.883  0.0634  0.0060  0.3409
19081TIP3    H178734   6.106   2.562   4.917 -0.1877  0.3061  0.7999
19081TIP3    H278735   6.037   2.496   4.800  0.6661 -0.2385  0.5926
19082TIP3   OH278736   1.508   4.269  15.942 -0.3600 -0.0246 -0.0506
19082TIP3    H178737   1.576   4.202  15.933  0.3257  0.6002  0.3886
19082TIP3    H278738   1.507   4.314  15.857 -1.9416 -1.5826 -0.9415
19083TIP3   OH278739   3.237   4.411  10.992 -0.1612 -0.4156  0.3963
19083TIP3    H178740   3.156   4.421  10.943 -0.5962 -2.0311  0.7201
19083TIP3    H278741   3.277   4.498  10.991 -2.1335  0.5492  0.6664
19084TIP3   OH278742   0.349   3.964   1.995 -0.6465  0.7706 -0.0959
19084TIP3    H178743   0.375   4.001   1.910 -1.6560 -0.7622 -1.1188
19084TIP3    H278744   0.425   3.979   2.051  0.4031  1.0296 -1.5207
19085TIP3   OH278745   1.191   1.541   0.999 -0.1580  0.7108 -0.5007
19085TIP3    H178746   1.198   1.566   1.091 -0.2240 -0.4405 -0.1645
19085TIP3    H278747   1.132   1.465   0.999 -0.8030  1.1912 -1.5892
19086TIP3   OH278748   3.160   5.876  12.003 -0.9904  0.6902 -0.1108
19086TIP3    H178749   3.107   5.853  12.079  0.9663 -0.7512  0.9187
19086TIP3    H278750   3.117   5.954  11.967 -1.8701  1.6125  2.6253
19087TIP3   OH278751   4.900   0.274   1.037  0.3434 -0.4665 -0.6167
19087TIP3    H178752   4.843   0.350   1.029  1.0589  0.7815  3.5155
19087TIP3    H278753   4.986   0.305   1.009 -0.1511 -1.2945 -3.3870
19088TIP3   OH278754   4.945   3.411  13.486 -0.3593  0.2565 -0.6866
19088TIP3    H178755   4.984   3.393  13.400 -0.7909 -1.5486 -0.5540
19088TIP3    H278756   4.852   3.388  13.474 -0.8685  1.9727 -0.2826
19089TIP3   OH278757   6.103   3.488   5.547 -0.4804  0.2827  0.2131
19089TIP3    H178758   6.110   3.468   5.641 -1.1674 -0.0907  0.1900
19089TIP3    H278759   6.096   3.583   5.544 -2.3821  0.1947  0.6911
19090TIP3   OH278760   4.331   0.048   0.776  0.3483 -0.4824  0.4938
19090TIP3    H178761   4.285   0.039   0.860 -1.6544 -0.8112 -0.5752
19090TIP3    H278762   4.261   0.052   0.711  1.7387  2.2410 -0.9980
19091TIP3   OH278763   3.221   1.868  14.443 -0.4639  0.1946  0.4722
19091TIP3    H178764   3.154   1.890  14.508  0.5070  1.0214  1.2184
19091TIP3    H278765   3.282   1.941  14.445 -0.1794  0.0436 -1.0920
19092TIP3   OH278766   6.066   3.905  11.091 -0.0046 -0.6310 -0.1335
19092TIP3    H178767   6.024   3.860  11.017 -1.0116  1.7598 -1.1105
19092TIP3    H278768   6.106   3.983  11.052 -2.7834  2.1565  2.0706
19093TIP3   OH278769   4.601   1.148  15.185  0.3141 -0.4320 -0.2931
19093TIP3    H178770   4.570   1.229  15.225  0.7125 -0.8633  0.9389
19093TIP3    H278771   4.523   1.108  15.147  0.0223  0.2585 -0.4271
19094TIP3   OH278772   3.003   2.145   1.741  0.4358 -0.1210 -0.4779
19094TIP3    H178773   2.971   2.192   1.665  1.5186 -1.2417 -1.6918
19094TIP3    H278774   2.982   2.053   1.723 -1.9064 -0.1732  1.9554
19095TIP3   OH278775   1.769   3.408   1.084  0.6107 -0.0028 -0.2783
19095TIP3    H178776   1.784   3.370   1.170 -2.3908 -0.6569  0.0819
19095TIP3    H278777   1.753   3.333   1.026  0.4193  0.5006 -0.8932
19096TIP3   OH278778   5.299   0.327  14.131 -0.2596  0.0132  0.3561
19096TIP3    H178779   5.329   0.318  14.221  0.3802  0.7167  0.2205
19096TIP3    H278780   5.359   0.273  14.080  0.6911  1.2376  0.1149
19097TIP3   OH278781   0.492   4.287  15.266 -0.0060 -0.0365 -0.4836
19097TIP3    H178782   0.516   4.265  15.176 -0.7686 -1.0893 -0.4450
19097TIP3    H278783   0.396   4.284  15.267 -0.1533  2.4891 -0.2463
19098TIP3   OH278784   2.904   6.058  13.236 -0.5301  0.3662  0.0620
19098TIP3    H178785   2.867   6.145  13.249 -1.8262  0.1980 -1.9921
19098TIP3    H278786   2.829   5.999  13.246 -0.2901 -0.2399 -1.4052
19099TIP3   OH278787   2.415   0.550   3.625  0.2927 -0.0419 -0.1785
19099TIP3    H178788   2.427   0.525   3.533 -1.3752  0.9661 -0.7095
19099TIP3    H278789   2.331   0.597   3.626  0.3389  0.0511  1.8478
19100TIP3   OH278790   1.581   0.987   0.052 -0.1474 -0.2100 -0.3946
19100TIP3    H178791   1.642   0.969  -0.020  0.8967  2.3782 -0.2403
19100TIP3    H278792   1.511   0.923   0.039  0.1243 -0.0329 -3.5760
19101TIP3   OH278793   3.894   6.560   6.172 -0.2382  0.0791 -0.1263
19101TIP3    H178794   3.849   6.484   6.207 -3.0209  1.5057 -0.3314
19101TIP3    H278795   3.930   6.605   6.249 -1.3217  0.1805  0.3340
19102TIP3   OH278796   4.158   0.978  13.342  0.3077 -0.1718 -0.4457
19102TIP3    H178797   4.181   0.936  13.425 -2.9567 -0.7332  0.3336
19102TIP3    H278798   4.170   0.910  13.276  0.7067 -0.4576 -0.0785
19103TIP3   OH278799   4.945   6.825   5.352  0.0150  0.4328 -0.2443
19103TIP3    H178800   4.975   6.894   5.410  1.0415  0.5530 -0.8804
19103TIP3    H278801   4.905   6.870   5.278 -0.8011  0.2969  0.1101
19104TIP3   OH278802   6.184   5.487  11.223 -0.2085  0.2918 -0.0964
19104TIP3    H178803   6.226   5.402  11.215 -1.2684 -0.1731 -1.0248
19104TIP3    H278804   6.217   5.538  11.149 -1.9653 -0.4136 -1.4318
19105TIP3   OH278805   5.672   4.700   3.066  0.2659  0.0082 -0.1509
19105TIP3    H178806   5.672   4.723   3.159 -1.7024  0.4721 -0.2231
19105TIP3    H278807   5.717   4.616   3.062  1.5129  0.5744  1.0331
19106TIP3   OH278808   3.228   1.096  13.620  0.3789  0.0698 -0.0742
19106TIP3    H178809   3.216   1.090  13.715 -0.1289  2.9802  0.1429
19106TIP3    H278810   3.287   1.170  13.607 -1.6811  1.5420 -2.0333
19107TIP3   OH278811   3.485   0.290   3.790 -0.3800 -0.1973 -0.1602
19107TIP3    H178812   3.538   0.215   3.763 -0.8251 -0.0819 -1.4336
19107TIP3    H278813   3.549   0.358   3.811  0.0265 -0.9021  0.9762
19108TIP3   OH278814   2.198   3.564  13.530  0.3689 -0.5114  0.3381
19108TIP3    H178815   2.129   3.564  13.464 -0.0643 -2.2417  0.7422
19108TIP3    H278816   2.151   3.568  13.614  0.8844  1.0093  0.5774
19109TIP3   OH278817   3.626   3.155   1.913 -0.0419  0.1985 -0.1059
19109TIP3    H178818   3.606   3.096   1.986  3.1392 -1.6866 -0.5623
19109TIP3    H278819   3.541   3.171   1.872 -1.6001 -0.6133  2.5591
19110TIP3   OH278820   5.898   2.435  15.679  0.0464  0.4369  0.7756
19110TIP3    H178821   5.930   2.354  15.717 -1.6108 -0.3036  0.6593
19110TIP3    H278822   5.869   2.411  15.591 -1.2454  0.9501  1.0414
19111TIP3   OH278823   2.465   1.667  14.685 -0.0332  0.6213 -0.3563
19111TIP3    H178824   2.530   1.620  14.633 -1.4023 -2.3758  0.4030
19111TIP3    H278825   2.388   1.673  14.629 -0.8104 -0.7205  0.5006
19112TIP3   OH278826   2.507   0.343   3.769  0.5201 -0.4379  0.4767
19112TIP3    H178827   2.600   0.358   3.788  0.8939 -1.5525 -0.3645
19112TIP3    H278828   2.477   0.427   3.734  1.7755 -0.6722 -1.2922
19113TIP3   OH278829   5.188   1.256  15.706 -0.2698 -0.4114 -0.3445
19113TIP3    H178830   5.254   1.316  15.742  1.0667 -1.8931 -0.2248
19113TIP3    H278831   5.119   1.314  15.674 -0.6155  1.0841  2.7603
19114TIP3   OH278832   6.127   1.293   1.606  0.0586  0.4879 -0.4351
19114TIP3    H178833   6.073   1.215   1.610  0.3316  0.3346  0.8127
19114TIP3    H278834   6.216   1.262   1.627  0.7944  0.6256 -3.0432
19115TIP3   OH278835   0.967   1.583  16.593  0.4986  1.0561 -0.0354
19115TIP3    H178836   0.884   1.628  16.607 -0.2294 -0.4354  0.7785
19115TIP3    H278837   1.007   1.580  16.680  1.7093  2.2639 -0.5188
19116TIP3   OH278838   4.114   3.586   1.076  0.4128  0.1536  0.0191
19116TIP3    H178839   4.034   3.629   1.107 -0.0947 -1.1708  0.5983
19116TIP3    H278840   4.086   3.500   1.047  1.3330  0.3696 -1.6482
19117TIP3   OH278841   1.167   1.652  10.665  0.0270  0.1932  0.1971
19117TIP3    H178842   1.162   1.564  10.627  0.3558 -0.3545  1.3686
19117TIP3    H278843   1.243   1.692  10.624 -0.0999 -0.0843 -0.3126
19118TIP3   OH278844   6.591   2.517   1.122  0.3681 -0.0031 -0.1551
19118TIP3    H178845   6.685   2.507   1.136  0.3028  0.7247  0.9942
19118TIP3    H278846   6.553   2.513   1.210 -0.5117  1.1856 -0.4548
19119TIP3   OH278847   0.263   2.184  15.070  0.3946  0.1658  0.1562
19119TIP3    H178848   0.186   2.133  15.094 -0.3112  1.6086  1.0907
19119TIP3    H278849   0.336   2.122  15.075 -0.7277 -1.3480 -1.1989
19120TIP3   OH278850   5.059   0.434   1.626  0.2719  0.7779  0.2256
19120TIP3    H178851   5.048   0.514   1.575  0.9466  0.9064  0.2613
19120TIP3    H278852   5.005   0.447   1.704 -0.8616  0.5234 -0.5125
19121TIP3   OH278853   1.343   3.046  14.364 -0.4533  0.1212 -0.2550
19121TIP3    H178854   1.259   3.047  14.412 -1.0079  0.6053 -1.2045
19121TIP3    H278855   1.405   3.088  14.424 -1.3912  1.7657 -0.3538
19122TIP3   OH278856   2.433   2.214  13.115  0.1156  0.1939  0.1895
19122TIP3    H178857   2.365   2.153  13.142  0.7469  0.0383  1.5002
19122TIP3    H278858   2.477   2.239  13.196  2.0353 -0.2142 -0.6721
19123TIP3   OH278859   3.033   2.158   6.694  0.7128 -0.2180 -0.2240
19123TIP3    H178860   2.991   2.086   6.647  1.7058 -0.3492 -0.9363
19123TIP3    H278861   3.113   2.176   6.644  1.0607  0.6035  0.6047
19124TIP3   OH278862   3.161   5.306  13.802  0.1421  0.0398  0.5780
19124TIP3    H178863   3.214   5.288  13.724  0.0322  0.1627  0.4753
19124TIP3    H278864   3.126   5.394  13.789 -0.0317 -0.0118  0.6765
19125TIP3   OH278865   3.281   5.718  14.720  0.5697 -0.5110 -0.0363
19125TIP3    H178866   3.237   5.793  14.678 -0.0515  0.3458  2.0305
19125TIP3    H278867   3.227   5.643  14.696  0.0539 -0.0065 -0.5119
19126TIP3   OH278868   2.285   5.563  11.712 -0.5290 -0.1856 -0.0040
19126TIP3    H178869   2.229   5.543  11.636 -0.6624  3.1499 -0.9511
19126TIP3    H278870   2.225   5.605  11.774  0.1521 -0.2620  0.7069
19127TIP3   OH278871   0.825   6.701  11.038 -0.0250 -0.2039 -0.1896
19127TIP3    H178872   0.904   6.750  11.012  1.3263 -2.0978  0.1143
19127TIP3    H278873   0.808   6.643  10.964 -0.5148 -0.5276  0.1767
19128TIP3   OH278874   3.974   5.013   5.448 -0.2461  0.0834 -0.5898
19128TIP3    H178875   3.887   5.048   5.429 -1.4514 -1.0799  2.1022
19128TIP3    H278876   3.965   4.976   5.536  1.5338 -4.6096 -2.0825
19129TIP3   OH278877   1.331   1.894  12.694  0.2760  0.6401  0.0876
19129TIP3    H178878   1.287   1.914  12.611  1.6509 -2.6973 -1.6358
19129TIP3    H278879   1.423   1.882  12.671  0.6483 -0.7317  1.9897
19130TIP3   OH278880   2.782   2.693   5.452  0.0648 -0.1533  0.2096
19130TIP3    H178881   2.775   2.598   5.442  0.0638 -0.2323  0.9068
19130TIP3    H278882   2.845   2.705   5.524  0.4018  0.3840 -0.1673
19131TIP3   OH278883   1.787   2.195  16.028 -0.2322  0.0608 -0.8502
19131TIP3    H178884   1.880   2.181  16.048 -0.3308 -1.5707 -1.4043
19131TIP3    H278885   1.742   2.120  16.067 -1.1252 -0.0039 -1.9494
19132TIP3   OH278886   5.505   3.477   1.990 -0.2524  0.4627  1.1492
19132TIP3    H178887   5.510   3.490   1.895  0.4114  0.4173  1.1693
19132TIP3    H278888   5.469   3.559   2.023 -3.3400 -0.5439  0.6279
19133TIP3   OH278889   6.665   4.542   2.622  0.5144  0.2435 -0.3542
19133TIP3    H178890   6.661   4.475   2.691  1.7644 -0.4011 -0.8715
19133TIP3    H278891   6.579   4.540   2.581  0.4245 -0.8260 -0.1402
19134TIP3   OH278892   0.722   5.631  15.066 -0.0866  0.6852  0.1426
19134TIP3    H178893   0.705   5.717  15.029  2.1809  0.4999 -1.5500
19134TIP3    H278894   0.786   5.647  15.136  1.2784  0.3089 -0.9795
19135TIP3   OH278895   5.408   5.756  12.455  0.2909  0.7570 -0.9994
19135TIP3    H178896   5.412   5.669  12.494 -0.6548  1.3346  0.4630
19135TIP3    H278897   5.474   5.754  12.385  1.6356 -0.5227  0.2279
19136TIP3   OH278898   3.370   3.346   2.950  0.1999 -0.1248 -0.2779
19136TIP3    H178899   3.292   3.363   3.004  0.5734  2.0859 -0.3502
19136TIP3    H278900   3.435   3.313   3.012 -0.2694 -0.3705  0.0906
19137TIP3   OH278901   4.478   0.528   0.318  0.4877  0.2429 -0.6473
19137TIP3    H178902   4.493   0.579   0.398 -0.4185 -0.2937 -0.1205
19137TIP3    H278903   4.502   0.439   0.342 -0.8609 -0.1259 -0.6125
19138TIP3   OH278904   0.301   4.056   3.867 -0.1627 -0.3651 -0.4331
19138TIP3    H178905   0.367   4.058   3.936  0.2530  1.4868 -0.8325
19138TIP3    H278906   0.240   4.126   3.890  0.5001  0.9247 -2.3921
19139TIP3   OH278907   5.160   4.684  15.320  0.0566  0.1855 -0.4972
19139TIP3    H178908   5.253   4.693  15.342 -0.1313  0.6177  0.1527
19139TIP3    H278909   5.115   4.683  15.405 -0.4461 -1.1681 -0.7410
19140TIP3   OH278910   0.274   3.499   3.928  0.0638  0.7364 -0.6175
19140TIP3    H178911   0.310   3.586   3.914  0.0155  0.6248 -1.4638
19140TIP3    H278912   0.331   3.461   3.995  0.1335  1.3797 -0.3013
19141TIP3   OH278913   4.804   1.743   1.652  0.3599  0.0641  0.2068
19141TIP3    H178914   4.864   1.674   1.681  0.7604  0.3021 -0.0361
19141TIP3    H278915   4.815   1.745   1.556 -0.0201  0.1243  0.1631
19142TIP3   OH278916   4.868   1.922   0.201 -0.5904 -0.1924  0.2445
19142TIP3    H178917   4.855   1.858   0.272 -1.1536  1.9302  2.1709
19142TIP3    H278918   4.940   1.977   0.232 -1.4400  1.3246 -0.3787
19143TIP3   OH278919   3.236   4.043  13.989  0.0599 -0.4235  0.1929
19143TIP3    H178920   3.155   4.053  14.039 -1.0216 -0.3309 -1.4937
19143TIP3    H278921   3.269   3.956  14.013 -0.4728 -0.4148  0.9859
19144TIP3   OH278922   3.893   6.106   5.076 -0.5364  0.8232  0.2844
19144TIP3    H178923   3.836   6.029   5.070  1.4365 -0.8294  1.0370
19144TIP3    H278924   3.906   6.133   4.985 -3.1741  1.8681  0.1332
19145TIP3   OH278925   3.126   3.408   0.665  0.3559 -0.2471 -0.0365
19145TIP3    H178926   3.133   3.500   0.690  1.7269  0.8961 -3.8646
19145TIP3    H278927   3.159   3.405   0.575 -2.5836 -3.9537 -1.2592
19146TIP3   OH278928   2.095   2.873  16.257  0.4972  0.4994  0.0534
19146TIP3    H178929   2.052   2.790  16.235 -0.5592  1.1124 -0.2529
19146TIP3    H278930   2.122   2.909  16.173  1.4567  0.2208  0.2260
19147TIP3   OH278931   1.920   1.961   0.162 -0.3938  0.0320  0.2839
19147TIP3    H178932   1.985   1.913   0.213  0.2508  0.4977 -0.0859
19147TIP3    H278933   1.860   1.893   0.130  1.6867 -0.8704 -2.0043
19148TIP3   OH278934   5.717   1.275  14.646 -0.2392  0.3722 -0.2284
19148TIP3    H178935   5.696   1.192  14.604  0.1113  0.3934 -0.4478
19148TIP3    H278936   5.801   1.301  14.608  1.4841 -0.9302  2.3942
19149TIP3   OH278937   4.135   6.321  11.387 -0.2737 -0.3929  0.7333
19149TIP3    H178938   4.106   6.344  11.299  1.4274  1.0210  0.4734
19149TIP3    H278939   4.058   6.332  11.442 -1.3479 -1.2463 -0.5521
19150TIP3   OH278940   6.812   6.116  11.764  0.2473 -0.1236 -0.2943
19150TIP3    H178941   6.832   6.130  11.672  0.5603  0.5114 -0.1365
19150TIP3    H278942   6.834   6.199  11.807 -0.4667 -0.1966  0.2564
19151TIP3   OH278943   0.838   0.034   5.643 -0.2142 -0.2276  0.3056
19151TIP3    H178944   0.847  -0.041   5.702 -0.9525  0.2183  1.0158
19151TIP3    H278945   0.766   0.011   5.585  2.2517 -1.8684 -2.3696
19152TIP3   OH278946   3.771   0.732  12.106  0.0856  0.1252 -0.0586
19152TIP3    H178947   3.807   0.655  12.060 -1.7404 -1.0037  0.2989
19152TIP3    H278948   3.687   0.748  12.064 -1.3260 -0.5000  2.3503
19153TIP3   OH278949   4.313   3.604   0.409  0.4381 -0.3101  0.4724
19153TIP3    H178950   4.377   3.544   0.370  0.5190  0.5775 -0.8091
19153TIP3    H278951   4.353   3.631   0.492  1.0515 -0.8793  0.3745
19154TIP3   OH278952   2.812   3.875  11.971 -0.0755 -0.1554  0.1624
19154TIP3    H178953   2.860   3.957  11.984  0.1049 -0.2404  0.0376
19154TIP3    H278954   2.721   3.903  11.956  0.0975  0.0612 -0.5089
19155TIP3   OH278955   2.441   4.773   0.965 -0.1659 -0.0268  0.7527
19155TIP3    H178956   2.403   4.837   1.025  0.2032 -0.3580  1.3423
19155TIP3    H278957   2.509   4.729   1.016 -0.8704 -1.3683  0.5892
19156TIP3   OH278958   3.831   0.308   4.006 -0.1035  0.3997  0.5323
19156TIP3    H178959   3.926   0.303   4.012 -0.2238 -1.8974  1.6983
19156TIP3    H278960   3.801   0.306   4.097 -1.2718 -2.4261  0.2138
19157TIP3   OH278961   6.086   2.588   2.785  0.1349 -0.5413  0.4464
19157TIP3    H178962   6.059   2.594   2.693 -0.2346  0.2289  0.5979
19157TIP3    H278963   6.034   2.655   2.829  0.4829 -0.7496  1.1785
19158TIP3   OH278964   2.780   0.761  12.934  0.2018 -0.1437  0.2498
19158TIP3    H178965   2.818   0.688  12.982  1.5868 -0.1023 -0.7194
19158TIP3    H278966   2.830   0.765  12.853 -0.6108  1.1659 -0.2200
19159TIP3   OH278967   1.040   2.924   3.558  0.3210 -0.2836 -0.1656
19159TIP3    H178968   1.010   2.959   3.474 -0.9127 -0.3419  0.2330
19159TIP3    H278969   1.136   2.924   3.551  0.2904  1.1682 -0.9686
19160TIP3   OH278970   6.805   0.603   4.026  0.1036  0.0801  0.1587
19160TIP3    H178971   6.856   0.629   3.949  0.6005 -1.0582  0.0952
19160TIP3    H278972   6.731   0.664   4.026  1.4993  1.8926  0.3403
19161TIP3   OH278973   6.468   6.161  15.613 -0.0777 -0.1084  0.0807
19161TIP3    H178974   6.544   6.118  15.651  0.9314  1.0130 -0.5958
19161TIP3    H278975   6.439   6.223  15.680 -0.1345 -0.2470  0.1832
19162TIP3   OH278976   6.465   3.773   5.294 -0.4019  0.1011 -0.3343
19162TIP3    H178977   6.506   3.847   5.250 -0.0089  0.1962  0.1806
19162TIP3    H278978   6.482   3.789   5.387  0.4606 -1.0989 -0.2725
19163TIP3   OH278979   4.214   0.673  14.223  0.0891 -0.7860  0.1635
19163TIP3    H178980   4.168   0.729  14.286  0.9244  1.3555 -1.0027
19163TIP3    H278981   4.209   0.585  14.261 -1.4376  0.0209  2.0313
19164TIP3   OH278982   6.533   6.437  12.115  0.2096 -0.2951  0.6355
19164TIP3    H178983   6.438   6.434  12.127 -0.0052  0.6833 -0.6248
19164TIP3    H278984   6.564   6.495  12.184 -0.1842 -0.1519  0.6963
19165TIP3   OH278985   0.599   1.404  16.605  0.3323 -0.4215 -0.0632
19165TIP3    H178986   0.511   1.375  16.583  0.3218  0.9973 -2.2366
19165TIP3    H278987   0.591   1.499  16.618  1.7943  0.1239 -2.4573
19166TIP3   OH278988   5.573   1.775  13.773 -0.9710  0.2366 -0.5080
19166TIP3    H178989   5.482   1.798  13.792 -0.4998  1.0186  0.9037
19166TIP3    H278990   5.622   1.856  13.786  0.1338 -0.5298  0.3218
19167TIP3   OH278991   3.144   1.481  14.907  0.3770  0.1403  0.0459
19167TIP3    H178992   3.066   1.537  14.898  1.4248  1.5915 -0.3208
19167TIP3    H278993   3.108   1.394  14.922 -1.3348  1.1090  2.2037
19168TIP3   OH278994   6.784   6.467  14.267 -0.3076  0.3564 -0.2169
19168TIP3    H178995   6.693   6.438  14.271 -0.2253 -0.6075 -3.2902
19168TIP3    H278996   6.832   6.393  14.231  1.4113  1.4229 -0.2389
19169TIP3   OH278997   1.766   5.280  14.276 -0.6758  0.7290 -0.6504
19169TIP3    H178998   1.800   5.352  14.330 -0.1553  1.5356 -2.0149
19169TIP3    H278999   1.725   5.323  14.201  0.1731 -0.3812 -1.8021
19170TIP3   OH279000   3.532   6.515  16.156  0.0060  0.1060 -0.4377
19170TIP3    H179001   3.531   6.523  16.251 -0.0523  0.2051 -0.4474
19170TIP3    H279002   3.620   6.543  16.130 -0.0747  0.3543 -0.4398
19171TIP3   OH279003   5.720   1.863   6.353 -0.0826  0.8417 -0.6625
19171TIP3    H179004   5.713   1.920   6.430 -1.0574 -1.7271  1.3150
19171TIP3    H279005   5.803   1.816   6.366 -0.5897 -0.1067 -0.7713
19172TIP3   OH279006   4.037   2.354   2.190  0.0480 -0.1556 -0.2426
19172TIP3    H179007   4.004   2.265   2.180 -0.9671  0.3945 -2.3151
19172TIP3    H279008   4.108   2.346   2.254 -1.0243 -2.1631  0.7848
19173TIP3   OH279009   1.191   1.602   0.714  0.1597  0.3524  0.4939
19173TIP3    H179010   1.179   1.577   0.805  0.0190  1.0266  0.6653
19173TIP3    H279011   1.174   1.696   0.712 -0.4426  0.2437 -0.3365
19174TIP3   OH279012   3.965   5.719  13.380  0.0258  0.0808  0.1859
19174TIP3    H179013   3.897   5.774  13.421 -0.9647  2.4864 -4.0469
19174TIP3    H279014   4.046   5.745  13.424 -1.0357  1.6613  1.3477
19175TIP3   OH279015   1.736   5.005  14.109 -0.1443  0.1709 -0.4664
19175TIP3    H179016   1.706   5.093  14.088  1.7004  0.7601 -0.8296
19175TIP3    H279017   1.798   4.983  14.039 -1.4588 -1.9325 -1.0792
19176TIP3   OH279018   3.772   4.209  11.680  0.2586 -0.0477 -0.5979
19176TIP3    H179019   3.802   4.151  11.750 -0.1839  2.0494  1.4762
19176TIP3    H279020   3.721   4.153  11.622 -0.1161 -1.7324  1.2499
19177TIP3   OH279021   1.362   4.084   4.131 -0.4895 -0.3894  0.1716
19177TIP3    H179022   1.287   4.084   4.071 -0.0778 -2.0229 -0.3970
19177TIP3    H279023   1.405   4.000   4.116  1.6160  0.5876  0.3101
19178TIP3   OH279024   1.268   4.274  14.125 -0.1885  0.2269  0.4728
19178TIP3    H179025   1.283   4.181  14.139 -1.4450  0.0834  1.0120
19178TIP3    H279026   1.215   4.278  14.045 -0.3943  0.4566  0.6187
19179TIP3   OH279027   2.913   3.608   5.799  0.1277 -0.5519  0.2823
19179TIP3    H179028   2.998   3.581   5.763  0.9893 -0.3717  2.0712
19179TIP3    H279029   2.890   3.539   5.861 -0.2649  0.1712  0.9621
19180TIP3   OH279030   3.223   5.575   2.616  0.2511  0.3021  0.3097
19180TIP3    H179031   3.152   5.538   2.563  1.1243 -1.8422  0.5242
19180TIP3    H279032   3.285   5.609   2.552  0.8975 -1.4992 -0.0776
19181TIP3   OH279033   5.770   6.035   1.400  0.1918 -0.1982 -0.8767
19181TIP3    H179034   5.764   6.129   1.387  0.8402 -0.1937 -1.1687
19181TIP3    H279035   5.806   6.002   1.318  2.5976 -0.3922  0.1775
19182TIP3   OH279036   1.604   2.661  15.246  0.3877  0.6814 -0.0508
19182TIP3    H179037   1.680   2.655  15.189  1.2316  1.2527  0.9843
19182TIP3    H279038   1.599   2.753  15.270 -1.3568  0.8848 -1.0524
19183TIP3   OH279039   5.964   2.176  12.571  0.2578  0.2555 -0.3142
19183TIP3    H179040   5.979   2.237  12.644 -1.3472  0.6632 -0.2826
19183TIP3    H279041   6.034   2.111  12.580  0.4188  0.5921  1.2793
19184TIP3   OH279042   3.004   3.206  13.945  0.1355  0.3869 -0.1353
19184TIP3    H179043   2.944   3.131  13.945 -0.1319  0.5986  0.3506
19184TIP3    H279044   2.972   3.263  13.875 -1.9944  1.8859  1.9517
19185TIP3   OH279045   4.933   4.673  11.731  0.3369  0.7210 -0.1682
19185TIP3    H179046   4.864   4.725  11.689 -0.3723  1.8305  2.1935
19185TIP3    H279047   5.015   4.712  11.700 -0.1416  1.4549 -0.5450
19186TIP3   OH279048   2.074   1.230   3.364  0.4660  0.4510  0.0757
19186TIP3    H179049   2.044   1.288   3.294 -0.1798  0.0110 -0.0205
19186TIP3    H279050   2.074   1.143   3.325  0.4535  0.2506  0.5194
19187TIP3   OH279051   1.392   2.784  12.403 -0.2087  0.1570  0.2873
19187TIP3    H179052   1.401   2.808  12.496  0.1111  1.9250 -0.1679
19187TIP3    H279053   1.348   2.699  12.405 -1.4626  0.7696  2.0361
19188TIP3   OH279054   2.646   6.453   0.683  0.9521  0.2332  0.5652
19188TIP3    H179055   2.564   6.502   0.693  2.0236  2.0941  0.6180
19188TIP3    H279056   2.662   6.452   0.588  1.4502  0.9155  0.6336
19189TIP3   OH279057   0.148   0.824  11.528  0.2066 -0.0647  0.2900
19189TIP3    H179058   0.149   0.729  11.515 -0.3338 -0.0227 -0.0753
19189TIP3    H279059   0.058   0.850  11.512  0.4109  0.5559  0.1021
19190TIP3   OH279060   4.990   5.521   0.307 -0.1637 -0.0322  0.1350
19190TIP3    H179061   4.966   5.612   0.326 -0.1742 -0.1306  0.6046
19190TIP3    H279062   4.949   5.470   0.377 -0.2367 -0.4109 -0.1775
19191TIP3   OH279063   6.555   3.660   0.105  0.2809  0.0060  0.3120
19191TIP3    H179064   6.465   3.627   0.112  0.0297  0.8385  1.3105
19191TIP3    H279065   6.545   3.755   0.094  1.0153 -0.0922 -1.4867
19192TIP3   OH279066   2.331   1.418  16.043 -0.2421  0.6202  0.1693
19192TIP3    H179067   2.337   1.325  16.066  0.3252  0.5901 -0.0766
19192TIP3    H279068   2.247   1.426  15.998 -0.8732  0.4734  1.2951
19193TIP3   OH279069   0.442   5.429  16.912  0.2184  0.2012  0.2010
19193TIP3    H179070   0.524   5.390  16.881 -0.4115 -0.9043 -0.1407
19193TIP3    H279071   0.465   5.519  16.933  1.7045 -0.2961  0.8560
19194TIP3   OH279072   2.331   2.523   0.068 -0.2396  0.1886  0.1737
19194TIP3    H179073   2.253   2.467   0.066  0.4681 -0.7952 -0.0715
19194TIP3    H279074   2.388   2.488  -0.000 -0.1015  1.6885 -0.5257
19195TIP3   OH279075   1.275   4.791   1.017  0.3721  0.2328  0.0608
19195TIP3    H179076   1.211   4.755   1.079  1.3722  1.3152  1.8294
19195TIP3    H279077   1.222   4.834   0.950 -0.7613 -0.2004  0.6464
19196TIP3   OH279078   1.117   2.445   5.352  0.2664 -0.2086 -0.0741
19196TIP3    H179079   1.139   2.410   5.438  0.0681  1.0902  0.5356
19196TIP3    H279080   1.201   2.464   5.311  0.3681 -1.1383 -0.3144
19197TIP3   OH279081   1.830   6.407  15.226  0.0606 -0.0094 -0.5150
19197TIP3    H179082   1.761   6.408  15.159 -1.4528  2.0776  0.9290
19197TIP3    H279083   1.858   6.498  15.233  0.6226 -0.2670  1.2296
19198TIP3   OH279084   6.372   5.504   2.291 -0.1215 -0.2854 -0.3084
19198TIP3    H179085   6.316   5.534   2.362  1.4646  0.0150  0.8935
19198TIP3    H279086   6.442   5.569   2.286  0.9054 -1.3691 -0.7619
19199TIP3   OH279087   4.458   6.458   3.123  0.8792  0.0091  0.4944
19199TIP3    H179088   4.365   6.449   3.145  0.3136 -0.2907 -1.8225
19199TIP3    H279089   4.499   6.381   3.164 -0.0958 -0.5279  0.5004
19200TIP3   OH279090   4.340   4.824  11.175  0.2539 -0.8955 -0.6494
19200TIP3    H179091   4.349   4.805  11.081  1.9397 -1.5007 -0.4101
19200TIP3    H279092   4.269   4.768  11.204  0.6601 -1.7848 -1.3149
19201TIP3   OH279093   4.719   5.636   2.077  0.1917  0.4756  0.1789
19201TIP3    H179094   4.780   5.706   2.053  2.1119 -0.3577  2.2695
19201TIP3    H279095   4.669   5.672   2.151 -0.6848  0.5389 -0.4294
19202TIP3   OH279096   2.232   0.410   2.415 -0.6276 -0.4053  0.2318
19202TIP3    H179097   2.159   0.391   2.474 -0.8998 -1.1093 -0.3179
19202TIP3    H279098   2.197   0.394   2.328  0.7226 -2.7378  0.0245
19203TIP3   OH279099   3.176   6.518  13.104 -0.5423 -0.5358 -0.3003
19203TIP3    H179100   3.169   6.428  13.070 -0.9896 -0.4719 -0.3807
19203TIP3    H279101   3.143   6.572  13.033  1.0159 -0.1887 -0.8089
19204TIP3   OH279102   4.391   0.449  14.697 -0.2316 -0.2123  0.1916
19204TIP3    H179103   4.317   0.477  14.751  0.1182  1.1355  0.0164
19204TIP3    H279104   4.404   0.522  14.635  0.0004 -1.2850 -1.0660
19205TIP3   OH279105   5.696   2.795   3.023 -0.8275  0.0510  0.2500
19205TIP3    H179106   5.626   2.730   3.018 -1.9120  1.2322 -0.7079
19205TIP3    H279107   5.662   2.864   3.080 -1.9914  2.2950 -2.8582
19206TIP3   OH279108   1.290   4.468  13.360 -0.1131  0.3208  0.0416
19206TIP3    H179109   1.302   4.540  13.421 -0.1811 -1.2925  2.0588
19206TIP3    H279110   1.343   4.396  13.396 -1.5089 -1.2267 -0.8486
19207TIP3   OH279111   4.791   3.917   2.394 -0.1278 -0.0217 -0.0125
19207TIP3    H179112   4.795   3.885   2.485 -0.4151 -0.0806 -0.0181
19207TIP3    H279113   4.872   3.965   2.382  0.3270 -0.7608 -0.0010
19208TIP3   OH279114   4.125   4.278  11.903 -0.5106  0.2555 -0.0738
19208TIP3    H179115   4.136   4.244  11.814 -0.7927 -0.6298  0.2173
19208TIP3    H279116   4.080   4.208  11.950 -0.4545  0.7540  0.7448
19209TIP3   OH279117   5.319   5.731   0.033 -0.2363 -0.1854  0.1124
19209TIP3    H179118   5.354   5.694   0.114  0.2130  1.3885  0.6763
19209TIP3    H279119   5.225   5.712   0.037  0.1073 -2.1752 -0.1687
19210TIP3   OH279120   2.103   0.216   4.664  0.1884  0.2029  0.3078
19210TIP3    H179121   2.055   0.253   4.738  0.9268  1.3013  0.2655
19210TIP3    H279122   2.195   0.231   4.685  0.4169  0.4280 -0.7702
19211TIP3   OH279123   1.653   3.875   2.202 -0.0228  0.0732  0.0214
19211TIP3    H179124   1.600   3.911   2.131  0.1962 -0.1137 -0.2351
19211TIP3    H279125   1.744   3.893   2.176  0.0280  0.9299  0.7376
19212TIP3   OH279126   2.350   4.544   0.831  0.0649 -0.3800 -0.3332
19212TIP3    H179127   2.369   4.611   0.896 -2.6480  0.7043 -0.5155
19212TIP3    H279128   2.401   4.569   0.754  1.3776 -0.2720  0.5493
19213TIP3   OH279129   4.793   4.105   6.890 -0.0711  0.4366  0.3462
19213TIP3    H179130   4.836   4.188   6.871  2.4518 -1.1266 -1.5789
19213TIP3    H279131   4.705   4.115   6.854  0.2629  2.1691 -0.1034
19214TIP3   OH279132   2.782   6.057   2.251  0.2716  0.0521 -0.3519
19214TIP3    H179133   2.754   6.012   2.331  0.3395 -0.3118 -0.5278
19214TIP3    H279134   2.847   6.121   2.280 -0.4914  0.6691  0.0140
19215TIP3   OH279135   2.893   2.772   5.212 -0.3513 -0.7070  0.4363
19215TIP3    H179136   2.982   2.737   5.220 -0.3097 -0.3697  1.5936
19215TIP3    H279137   2.863   2.781   5.302  0.2786  3.8533  0.4132
19216TIP3   OH279138   5.518   5.609  10.941  0.6570 -0.4774 -0.5568
19216TIP3    H179139   5.571   5.599  10.861 -0.7086 -0.9007 -1.4471
19216TIP3    H279140   5.456   5.536  10.938  1.2206 -1.0931  1.4394
19217TIP3   OH279141   3.691   0.460   3.293 -0.0100 -0.3159  0.3273
19217TIP3    H179142   3.663   0.395   3.357  1.0908  0.9872  2.2499
19217TIP3    H279143   3.610   0.493   3.254 -0.5988 -2.4459 -0.3616
19218TIP3   OH279144   0.359   5.403   2.651  0.6150 -0.0320 -0.1203
19218TIP3    H179145   0.342   5.354   2.731  0.0319  1.3758  0.6558
19218TIP3    H279146   0.306   5.358   2.584  0.5070 -0.7544  0.4357
19219TIP3   OH279147   0.639   6.045  12.349 -0.2331 -0.0381 -0.2986
19219TIP3    H179148   0.704   6.076  12.286  0.1799 -0.1980  0.0433
19219TIP3    H279149   0.691   6.012  12.423 -0.6653  3.0319  1.5802
19220TIP3   OH279150   1.354   0.359   4.987 -0.3441  0.2714  0.5382
19220TIP3    H179151   1.367   0.314   5.070 -1.0397  0.0938  0.5549
19220TIP3    H279152   1.381   0.296   4.921 -0.4405  0.1650  0.6000
19221TIP3   OH279153   4.931   1.805  14.306 -0.1448 -0.4392 -0.0425
19221TIP3    H179154   4.838   1.828  14.302 -0.0833 -0.0972  0.3942
19221TIP3    H279155   4.971   1.877  14.353  0.3278 -0.6452 -0.1241
19222TIP3   OH279156   4.746   1.414  11.430 -0.7509 -0.0778 -0.1310
19222TIP3    H179157   4.712   1.488  11.480 -1.2529  0.5137 -1.2901
19222TIP3    H279158   4.668   1.370  11.397 -0.4826 -1.6923  1.2876
19223TIP3   OH279159   4.959   3.683  13.549  0.4677 -0.5009 -0.2646
19223TIP3    H179160   5.054   3.686  13.539  0.5064 -2.3007 -0.7989
19223TIP3    H279161   4.934   3.596  13.516 -1.2096 -0.5829  1.0614
19224TIP3   OH279162   0.736   0.593  16.714  0.2740 -0.8612  0.3546
19224TIP3    H179163   0.726   0.572  16.807  1.6895 -0.2464  0.6655
19224TIP3    H279164   0.816   0.548  16.688 -0.0013 -0.8609 -0.5321
19225TIP3   OH279165   0.457   5.393  15.405 -0.1424 -0.5571 -0.2343
19225TIP3    H179166   0.466   5.299  15.388 -1.1468 -0.5811 -0.7207
19225TIP3    H279167   0.383   5.398  15.467 -0.0218 -0.0934 -0.1294
19226TIP3   OH279168   4.185   3.944   5.690 -0.0016 -0.3913  0.0277
19226TIP3    H179169   4.237   3.867   5.669  0.3818 -0.3045  0.6499
19226TIP3    H279170   4.131   3.918   5.764 -1.0250 -0.5531 -0.7552
19227TIP3   OH279171   0.007   6.562  14.742 -0.2856  0.1372  0.2817
19227TIP3    H179172  -0.084   6.532  14.740 -0.1623 -0.2283 -1.0414
19227TIP3    H279173   0.000   6.657  14.756 -0.8610  0.0813  0.4223
19228TIP3   OH279174   0.085   3.722   2.332  0.3083  0.2435 -0.6440
19228TIP3    H179175  -0.008   3.725   2.310  0.5525  1.6596 -1.6374
19228TIP3    H279176   0.095   3.789   2.400  0.6824  0.4442 -0.8958
19229TIP3   OH279177   1.506   5.949   0.511  0.3102  0.0276 -0.1728
19229TIP3    H179178   1.561   5.918   0.583 -0.8262  0.9335  1.1245
19229TIP3    H279179   1.433   5.886   0.508 -0.4440  0.8433  0.5087
19230TIP3   OH279180   1.564   1.273   5.111 -0.1462 -0.4443 -0.3464
19230TIP3    H179181   1.547   1.296   5.020 -1.2806 -0.1370 -0.0739
19230TIP3    H279182   1.533   1.182   5.119 -2.0133  0.1962  0.2124
19231TIP3   OH279183   6.366   6.599  17.146 -0.3819  0.6157 -0.2647
19231TIP3    H179184   6.422   6.572  17.219 -0.6658 -0.7928 -0.5394
19231TIP3    H279185   6.420   6.661  17.097  0.3468  0.4780  0.3378
19232TIP3   OH279186   6.606   5.558  14.380 -0.0041 -0.1225  0.3686
19232TIP3    H179187   6.539   5.580  14.316 -0.3712 -0.9415  0.4647
19232TIP3    H279188   6.681   5.529  14.328 -0.0196 -0.0183  0.2889
19233TIP3   OH279189   0.917   6.393   0.981 -0.1305  0.6581 -0.1942
19233TIP3    H179190   0.876   6.387   0.895  1.9397  1.3521 -1.2847
19233TIP3    H279191   0.993   6.335   0.976 -2.4718 -3.1959  2.8308
19234TIP3   OH279192   0.852   4.921  10.627  0.2480  0.1073 -0.1268
19234TIP3    H179193   0.892   4.937  10.712  1.1338 -1.1795 -0.2718
19234TIP3    H279194   0.762   4.895  10.648 -0.3677  2.3434  0.2385
19235TIP3   OH279195   0.317   3.286  14.714 -0.0040 -0.2133  0.5305
19235TIP3    H179196   0.288   3.199  14.685  0.6097 -0.7649  1.5247
19235TIP3    H279197   0.406   3.295  14.679 -0.0647  0.0265  0.4332
19236TIP3   OH279198   4.097   5.117   3.210 -0.2064 -0.4806  0.2450
19236TIP3    H179199   4.180   5.134   3.165  0.0048 -2.0521 -0.0035
19236TIP3    H279200   4.030   5.139   3.146  0.0215  0.1929  0.2295
19237TIP3   OH279201   0.348   5.650   4.201 -0.2149  0.3284 -0.2233
19237TIP3    H179202   0.391   5.729   4.169 -1.9794  1.4980  0.1734
19237TIP3    H279203   0.346   5.592   4.126  1.2117  0.5780 -0.4885
19238TIP3   OH279204   5.259   0.673   6.644  0.1324 -0.2396 -0.2764
19238TIP3    H179205   5.177   0.698   6.688 -0.1597 -1.0306 -0.3605
19238TIP3    H279206   5.261   0.578   6.650  1.6037 -0.1733  0.6999
19239TIP3   OH279207   5.476   5.731   3.179  0.4095 -0.1744 -0.2304
19239TIP3    H179208   5.501   5.679   3.255  0.0998  2.4658  1.8347
19239TIP3    H279209   5.544   5.798   3.172 -1.0543  1.3498 -0.4540
19240TIP3   OH279210   4.454   2.132  10.407 -0.3093 -0.1168  0.2319
19240TIP3    H179211   4.527   2.180  10.445 -0.2165  0.4871 -0.6723
19240TIP3    H279212   4.376   2.168  10.449 -0.3291  1.6102 -1.1484
19241TIP3   OH279213   4.853   0.855  11.781 -0.0106  0.0617  0.2839
19241TIP3    H179214   4.828   0.905  11.703 -0.7503 -2.0255 -0.9161
19241TIP3    H279215   4.773   0.851  11.833 -0.5750 -1.5269 -0.6302
19242TIP3   OH279216   6.652   5.788  15.533 -0.5083  0.0326  0.1043
19242TIP3    H179217   6.607   5.772  15.616 -1.9560 -1.1577 -0.8658
19242TIP3    H279218   6.614   5.869  15.500  0.2876  0.6741  0.7163
19243TIP3   OH279219   2.801   2.652   6.054 -0.3417 -0.0550 -0.2289
19243TIP3    H179220   2.787   2.674   6.146  1.0142 -0.8477  0.1954
19243TIP3    H279221   2.740   2.580   6.036 -0.9779  0.4460 -0.1193
19244TIP3   OH279222   1.238   1.370  13.214 -0.1768  0.2654  0.0472
19244TIP3    H179223   1.164   1.335  13.264 -1.1426 -0.0122 -1.5236
19244TIP3    H279224   1.198   1.413  13.139  1.2046  1.3745 -0.0932
19245TIP3   OH279225   1.582   5.255   5.774  0.7996 -0.1911 -0.0092
19245TIP3    H179226   1.654   5.204   5.812 -0.0526  1.4605  4.4326
19245TIP3    H279227   1.503   5.208   5.802  0.0627  2.3971  2.7376
19246TIP3   OH279228   6.137   2.622  12.983  0.4277 -0.2678 -0.4973
19246TIP3    H179229   6.226   2.636  12.950 -0.0760  1.3667 -1.2565
19246TIP3    H279230   6.080   2.642  12.909 -0.5825 -1.5164 -0.0851
19247TIP3   OH279231   1.521   3.802   1.596  0.1596  0.4140  0.1754
19247TIP3    H179232   1.614   3.815   1.575  0.0939 -0.6789 -0.9316
19247TIP3    H279233   1.522   3.756   1.680  0.6509 -0.1337 -0.1214
19248TIP3   OH279234   6.061   5.147   2.880  0.3068  0.7195  0.3651
19248TIP3    H179235   6.146   5.115   2.849  0.2218  1.8047 -1.0912
19248TIP3    H279236   6.080   5.187   2.965  1.4999  1.9674 -0.4434
19249TIP3   OH279237   5.433   1.686  12.796  0.2452 -0.3213  0.1640
19249TIP3    H179238   5.342   1.694  12.825  0.2542 -1.7326  0.6578
19249TIP3    H279239   5.462   1.776  12.781 -0.4396  0.3196  2.4072
19250TIP3   OH279240   5.040   5.478   6.409  0.0458 -0.3681 -0.6985
19250TIP3    H179241   5.022   5.464   6.502 -3.0005 -3.0976 -1.5322
19250TIP3    H279242   5.097   5.405   6.384  1.1771  0.5674 -0.9764
19251TIP3   OH279243   1.057   1.840  16.855  0.1793 -0.0180 -0.1474
19251TIP3    H179244   1.056   1.744  16.846 -0.0747 -0.0856  0.4963
19251TIP3    H279245   1.089   1.872  16.771 -0.7731 -0.6189 -0.7645
19252TIP3   OH279246   5.761   3.224   0.174  0.5628  0.1318  0.4520
19252TIP3    H179247   5.731   3.308   0.140  1.6580  0.5437  0.4549
19252TIP3    H279248   5.682   3.170   0.180 -0.0972  1.0506  0.1380
19253TIP3   OH279249   2.290   4.595   5.740  0.1537  0.2492  0.5798
19253TIP3    H179250   2.342   4.525   5.781  0.2139  0.1313  0.3028
19253TIP3    H279251   2.240   4.633   5.812 -0.3379 -0.4809  0.6337
19254TIP3   OH279252   1.582   3.199  12.739 -0.8936  0.1768  0.3595
19254TIP3    H179253   1.563   3.235  12.825  1.0977 -0.2960  1.0429
19254TIP3    H279254   1.646   3.260  12.701 -0.9134 -0.2213 -0.3270
19255TIP3   OH279255   1.876   4.551  15.022 -0.0071 -0.6562 -0.3811
19255TIP3    H179256   1.834   4.515  15.101 -0.4503  0.2179 -0.2018
19255TIP3    H279257   1.917   4.633  15.053 -1.8662  0.7376 -1.4401
19256TIP3   OH279258   4.291   1.183   4.850  0.0731  0.0292  0.1213
19256TIP3    H179259   4.311   1.250   4.785 -1.8774  0.5985  0.0538
19256TIP3    H279260   4.261   1.232   4.927 -3.1406 -0.6526 -0.5250
19257TIP3   OH279261   6.274   1.844  17.179 -0.4313  0.1506  0.3125
19257TIP3    H179262   6.360   1.884  17.171 -1.2756  1.8847 -0.8475
19257TIP3    H279263   6.289   1.750  17.167  1.0322  0.6338 -2.4707
19258TIP3   OH279264   1.391   4.204   5.720  0.0616  0.2516  0.7114
19258TIP3    H179265   1.329   4.136   5.747 -1.0408  0.8199 -0.3201
19258TIP3    H279266   1.439   4.225   5.801  0.6895 -1.9601  0.9899
19259TIP3   OH279267   4.389   3.048   5.303 -0.1069  0.1080 -0.3559
19259TIP3    H179268   4.476   3.027   5.335 -0.5607  1.2100  1.8386
19259TIP3    H279269   4.379   3.141   5.320 -1.7103  0.0077 -0.5676
19260TIP3   OH279270   6.679   1.098  11.211 -0.1739 -0.7407 -0.2807
19260TIP3    H179271   6.651   1.107  11.120 -0.3432 -0.4805 -0.2042
19260TIP3    H279272   6.742   1.169  11.225 -1.1810  0.0791  0.1954
19261TIP3   OH279273   1.501   6.558   0.924  0.2234 -0.6905 -0.1273
19261TIP3    H179274   1.506   6.643   0.967 -0.9528  0.1263 -1.5279
19261TIP3    H279275   1.418   6.559   0.877  0.1376 -2.6559 -0.1313
19262TIP3   OH279276   4.643   2.808  12.613  0.4252 -0.0303  0.2820
19262TIP3    H179277   4.619   2.729  12.661 -0.4868 -0.0376 -0.1576
19262TIP3    H279278   4.669   2.776  12.526  2.8659 -0.1031  0.9542
19263TIP3   OH279279   1.167   2.436   2.177 -0.1961 -0.3025  0.1030
19263TIP3    H179280   1.186   2.375   2.248 -1.3586 -0.5847  0.1915
19263TIP3    H279281   1.196   2.390   2.098 -2.5874 -1.7487 -0.0181
19264TIP3   OH279282   1.223   1.751   5.194 -0.0076  0.1684  0.0546
19264TIP3    H179283   1.229   1.745   5.098  1.2404 -0.2296  0.1346
19264TIP3    H279284   1.219   1.660   5.223  2.3868  0.1291  0.4829
19265TIP3   OH279285   0.534   5.566   0.785 -0.4104  0.3165  0.5092
19265TIP3    H179286   0.619   5.575   0.827 -0.1391 -0.0528  0.0445
19265TIP3    H279287   0.474   5.614   0.842 -0.1610 -0.6707  1.6441
19266TIP3   OH279288   0.574   3.081   2.595  0.6717 -0.5755 -0.2137
19266TIP3    H179289   0.478   3.089   2.591  0.7487 -0.0143 -1.4560
19266TIP3    H279290   0.606   3.165   2.563  1.5939 -0.5972  0.6078
19267TIP3   OH279291   4.575   4.681  16.530 -0.1187 -0.3890 -0.4437
19267TIP3    H179292   4.630   4.621  16.480 -0.0868 -0.7025 -0.0334
19267TIP3    H279293   4.503   4.627  16.562 -0.2776 -0.1330 -0.3669
19268TIP3   OH279294   0.843   0.243  11.017  0.2541  0.2265  0.3177
19268TIP3    H179295   0.883   0.162  10.986 -1.0905 -0.7253  0.9202
19268TIP3    H279296   0.910   0.310  11.005  0.8095 -0.6264 -1.8266
19269TIP3   OH279297   6.248   3.780  15.381 -0.4987  0.0472 -0.2516
19269TIP3    H179298   6.208   3.763  15.295 -0.1541  0.6339 -0.5380
19269TIP3    H279299   6.341   3.795  15.361 -0.2593 -0.6271  0.3238
19270TIP3   OH279300   1.450   2.932   4.189  0.2910  0.4737 -0.4362
19270TIP3    H179301   1.405   3.012   4.215  0.4888  0.6737 -0.7117
19270TIP3    H279302   1.387   2.884   4.136 -0.1288  0.0496  0.4184
19271TIP3   OH279303   3.246   1.922   4.423  0.0035 -0.0834 -0.6335
19271TIP3    H179304   3.337   1.899   4.445  0.0735  1.8884  1.5466
19271TIP3    H279305   3.207   1.840   4.395  1.8639 -1.4711  0.5755
19272TIP3   OH279306   5.778   0.575  14.897  0.1137  0.4959 -0.3534
19272TIP3    H179307   5.856   0.630  14.893 -0.2921  1.0691 -0.7020
19272TIP3    H279308   5.789   0.512  14.826  1.1250 -0.6472  0.7735
19273TIP3   OH279309   5.007   2.086   4.572 -0.1636 -0.1561 -0.0332
19273TIP3    H179310   4.997   2.009   4.629  0.1798 -0.3556 -0.2393
19273TIP3    H279311   4.967   2.158   4.622 -3.0732 -0.9494 -0.9731
19274TIP3   OH279312   4.738   4.056   2.907 -0.0150 -0.0152 -0.2855
19274TIP3    H179313   4.696   4.082   2.825 -1.4583  0.2636  0.5071
19274TIP3    H279314   4.667   4.057   2.971  1.2623  0.6574  1.1688
19275TIP3   OH279315   1.642   4.174  17.023 -0.1406 -0.8292  0.1161
19275TIP3    H179316   1.613   4.114  17.091 -0.8189 -0.9328 -0.2579
19275TIP3    H279317   1.683   4.117  16.957  0.7089 -0.7086  0.5262
19276TIP3   OH279318   2.058   4.229  16.098  0.1092  0.0888  0.8247
19276TIP3    H179319   2.001   4.295  16.059  0.2830 -0.0817  0.2686
19276TIP3    H279320   2.130   4.279  16.136  0.9146  0.1619 -0.7176
19277TIP3   OH279321   1.491   3.773   2.653 -0.3134 -0.2125  0.1546
19277TIP3    H179322   1.474   3.772   2.747  1.1737  0.4069  0.4682
19277TIP3    H279323   1.529   3.859   2.636  0.9995 -0.9106 -0.6831
19278TIP3   OH279324   2.935   5.557  16.921 -0.3796  0.3103 -0.0170
19278TIP3    H179325   2.878   5.481  16.936  0.5580 -0.6235 -0.9774
19278TIP3    H279326   3.006   5.522  16.867  0.5029  1.7048  0.2152
19279TIP3   OH279327   5.791   5.384   4.054 -0.6556  0.5380  0.1635
19279TIP3    H179328   5.729   5.354   3.987 -0.4446  0.4186  0.0217
19279TIP3    H279329   5.738   5.394   4.133 -0.4625 -1.6170  0.6169
19280TIP3   OH279330   3.211   3.065   3.473  0.2723 -0.5720  0.1172
19280TIP3    H179331   3.152   2.991   3.479 -0.0172 -0.2537  1.6262
19280TIP3    H279332   3.154   3.141   3.459  0.4857 -0.5058 -0.4216
19281TIP3   OH279333   5.701   4.953  12.772  0.5813  0.5035  0.0200
19281TIP3    H179334   5.641   5.012  12.819  0.5655 -0.7564  1.6754
19281TIP3    H279335   5.653   4.926  12.694 -1.2756 -0.8468  1.5438
19282TIP3   OH279336   2.360   5.903   5.365  0.5256 -0.1901  0.2367
19282TIP3    H179337   2.348   5.927   5.273  0.2899  0.2813  0.3880
19282TIP3    H279338   2.331   5.980   5.414 -1.5741 -1.2643  0.7958
19283TIP3   OH279339   6.628   2.981  11.814  0.2702 -0.3554  0.3946
19283TIP3    H179340   6.551   2.967  11.870 -0.5868 -0.3814 -0.7615
19283TIP3    H279341   6.658   3.069  11.836 -1.1132  0.3343 -0.3167
19284TIP3   OH279342   5.438   5.148  15.064  0.7127  0.8501 -0.2212
19284TIP3    H179343   5.523   5.102  15.060 -0.0054 -0.6275  0.6206
19284TIP3    H279344   5.432   5.194  14.981  1.8066 -0.0323 -0.8174
19285TIP3   OH279345   2.633   5.966  12.950  0.2615 -0.7985  0.1232
19285TIP3    H179346   2.723   5.937  12.964  0.2966 -0.2542  1.1502
19285TIP3    H279347   2.598   5.978  13.038 -0.1690  0.9141 -0.2465
19286TIP3   OH279348   6.656   0.905   4.925  0.2548  0.0575  0.5061
19286TIP3    H179349   6.744   0.922   4.958 -0.2845  1.1017  1.4713
19286TIP3    H279350   6.669   0.883   4.832  1.4970  0.3954  0.5820
19287TIP3   OH279351   6.426   2.914   0.538 -0.2254  0.2320  0.4404
19287TIP3    H179352   6.335   2.926   0.512  0.0444  0.2389 -0.5550
19287TIP3    H279353   6.422   2.852   0.611 -1.0108  0.0440  0.2484
19288TIP3   OH279354   2.060   3.129   2.925  0.3611  0.7382  0.0446
19288TIP3    H179355   2.033   3.075   3.000  0.9813  1.1054  0.5480
19288TIP3    H279356   1.985   3.187   2.909 -0.7530 -0.9578 -1.1994
19289TIP3   OH279357   4.643   6.055   2.013 -0.2476 -0.0610 -0.2939
19289TIP3    H179358   4.664   6.082   2.102  0.2514 -1.1286 -0.0623
19289TIP3    H279359   4.651   6.135   1.961 -0.8553  0.6350  0.6623
19290TIP3   OH279360   3.252   0.800   4.304 -0.0206 -0.3693 -0.1663
19290TIP3    H179361   3.249   0.895   4.291  0.0543 -0.1816  1.0654
19290TIP3    H279362   3.171   0.780   4.350  0.3148 -0.7987  0.2400
19291TIP3   OH279363   1.263   0.412   4.130 -0.0810  0.3808  0.0218
19291TIP3    H179364   1.242   0.327   4.168  1.1779  0.4890  1.0335
19291TIP3    H279365   1.355   0.426   4.152  0.2968  1.1399 -1.8163
19292TIP3   OH279366   0.242   0.670   2.300 -0.4572  0.0641 -0.8996
19292TIP3    H179367   0.234   0.681   2.395 -0.5102  0.2663 -0.9282
19292TIP3    H279368   0.231   0.758   2.264 -0.4720 -0.0174 -1.0961
19293TIP3   OH279369   0.789   1.108  10.835 -0.1195 -0.2575  0.0435
19293TIP3    H179370   0.871   1.149  10.808 -0.0104 -0.3953  0.1741
19293TIP3    H279371   0.722   1.174  10.814  0.1037  0.1931  0.7148
19294TIP3   OH279372   1.143   5.350  11.625  0.0452 -0.0951 -0.1811
19294TIP3    H179373   1.223   5.302  11.646 -1.0321 -0.9730  2.1412
19294TIP3    H279374   1.091   5.288  11.574 -0.3315 -0.5415  0.7392
19295TIP3   OH279375   5.391   0.794   1.024 -0.3047 -0.3463  0.4418
19295TIP3    H179376   5.475   0.837   1.010 -0.2471 -0.4747  0.3908
19295TIP3    H279377   5.352   0.840   1.099  0.1238 -0.7503  0.9222
19296TIP3   OH279378   3.732   2.065   4.074  0.3531  0.2662 -0.3329
19296TIP3    H179379   3.812   2.013   4.076  0.0875 -0.1158  0.5810
19296TIP3    H279380   3.709   2.069   3.981  1.7800  0.9416 -0.6941
19297TIP3   OH279381   3.633   0.953   0.404  0.0896  0.0688  0.2136
19297TIP3    H179382   3.674   0.933   0.488  1.9857 -0.9011 -0.8870
19297TIP3    H279383   3.637   0.871   0.355  1.0370  1.1614 -1.6199
19298TIP3   OH279384   3.981   6.724  14.921 -0.3947 -0.1088 -0.1413
19298TIP3    H179385   4.053   6.784  14.901 -0.9400  0.6263  0.0585
19298TIP3    H279386   3.902   6.771  14.893 -0.7774 -1.0770 -0.7565
19299TIP3   OH279387   3.449   2.191   5.008 -0.0102 -0.1744 -0.1702
19299TIP3    H179388   3.472   2.267   4.954 -1.8447  0.2696 -0.3835
19299TIP3    H279389   3.422   2.124   4.945  1.7631 -1.1047  0.0035
19300TIP3   OH279390   6.133   2.794  11.719 -0.2195  0.4072  0.1917
19300TIP3    H179391   6.151   2.775  11.627 -1.8757 -1.7890  0.2407
19300TIP3    H279392   6.102   2.711  11.755 -1.8182  1.7592  2.1572
19301TIP3   OH279393   5.120   0.126  17.061  0.1132  0.1794 -0.2959
19301TIP3    H179394   5.144   0.119  16.968  0.9517  0.8478 -0.1505
19301TIP3    H279395   5.170   0.202  17.092 -1.0601  0.6828  0.4223
19302TIP3   OH279396   0.700   6.331  13.826  0.6553  1.0434 -0.3402
19302TIP3    H179397   0.661   6.406  13.873  0.0997 -0.4616  1.7605
19302TIP3    H279398   0.711   6.265  13.894  2.0441 -0.4502 -1.9626
19303TIP3   OH279399   3.332   5.946  16.576 -0.5633 -0.3984  0.2492
19303TIP3    H179400   3.339   6.041  16.584  1.3077 -0.5718  1.3543
19303TIP3    H279401   3.417   5.919  16.540 -1.6325 -1.5451 -1.5981
19304TIP3   OH279402   2.034   4.799   4.304  0.2445  0.6158  0.2363
19304TIP3    H179403   2.066   4.887   4.282  1.5773  0.6908  2.1533
19304TIP3    H279404   2.087   4.740   4.250 -0.7770  0.9627 -1.1889
19305TIP3   OH279405   3.453   1.118   0.273 -0.3900  0.1916  1.1054
19305TIP3    H179406   3.516   1.073   0.330  1.0315  0.1445 -0.4009
19305TIP3    H279407   3.369   1.076   0.291  0.0651  0.0133  2.9526
19306TIP3   OH279408   6.357   4.422  15.182  0.1145  0.3151  0.7572
19306TIP3    H179409   6.362   4.357  15.252  1.6764  1.1089  1.4153
19306TIP3    H279410   6.428   4.399  15.123 -0.9648 -0.1277 -0.4172
19307TIP3   OH279411   1.732   4.070   1.828 -0.1537  0.2064  0.2257
19307TIP3    H179412   1.741   4.164   1.812  2.5774  0.2971  1.6667
19307TIP3    H279413   1.748   4.030   1.743  1.1264  1.0126  0.0515
19308TIP3   OH279414   0.416   5.510  14.338 -0.0564  0.1965 -0.0402
19308TIP3    H179415   0.372   5.591  14.314  0.5144  0.3830 -0.4689
19308TIP3    H279416   0.382   5.489  14.426 -2.4314 -0.6693 -1.0580
19309TIP3   OH279417   0.217   2.379  14.742 -0.4194  0.3933  0.2075
19309TIP3    H179418   0.233   2.450  14.680 -0.8677  0.4792  0.1834
19309TIP3    H279419   0.296   2.374  14.794  0.5550 -0.6170 -1.2747
19310TIP3   OH279420   5.463   6.634   5.047 -0.3464 -0.4199 -0.4829
19310TIP3    H179421   5.433   6.667   4.962 -0.0317  1.4476  0.0886
19310TIP3    H279422   5.388   6.645   5.105 -0.6195 -1.8660 -0.5305
19311TIP3   OH279423   0.472   1.651   0.146 -0.1958  0.2220 -0.0536
19311TIP3    H179424   0.560   1.614   0.141 -0.7845 -1.1335 -1.3008
19311TIP3    H279425   0.456   1.663   0.240  0.5082 -1.6140  0.3441
19312TIP3   OH279426   0.927   6.179   3.314  0.4112 -0.1514  0.2011
19312TIP3    H179427   0.993   6.246   3.297 -0.7453  1.5094  1.8841
19312TIP3    H279428   0.877   6.173   3.232  0.0159  1.6655  0.2828
19313TIP3   OH279429   4.752   5.186   2.830 -0.1320  0.3469  0.4309
19313TIP3    H179430   4.683   5.160   2.770 -0.0135  0.1055  0.3978
19313TIP3    H279431   4.707   5.201   2.913 -0.1109 -0.6699  0.6431
19314TIP3   OH279432   6.496   4.072  12.586  0.0336 -0.6117  0.1686
19314TIP3    H179433   6.485   4.072  12.491  2.6631  2.0516 -0.2870
19314TIP3    H279434   6.586   4.103  12.600 -0.4228 -0.4122  3.5298
19315TIP3   OH279435   6.326   3.931  11.860  0.4613  0.7912 -0.2636
19315TIP3    H179436   6.349   3.981  11.782 -1.3903 -0.5407 -1.7635
19315TIP3    H279437   6.283   3.994  11.917 -1.2664  1.1221 -1.8319
19316TIP3   OH279438   5.974   0.720   3.170  0.0153  0.4726  0.5283
19316TIP3    H179439   5.977   0.816   3.179 -1.0680  0.4803  0.9232
19316TIP3    H279440   5.990   0.705   3.077  3.2473  0.8393  0.8974
19317TIP3   OH279441   0.827   3.732  15.448  0.1994  0.5084  0.1727
19317TIP3    H179442   0.824   3.657  15.507  0.1192 -0.6811 -1.2852
19317TIP3    H279443   0.858   3.804  15.503  2.3469 -1.0417  1.1691
19318TIP3   OH279444   5.492   6.273  11.209 -0.4113 -0.4086  0.2519
19318TIP3    H179445   5.397   6.283  11.198 -0.5226 -1.4514  0.1893
19318TIP3    H279446   5.503   6.251  11.302 -0.4909 -2.8783 -0.2595
19319TIP3   OH279447   1.770   3.821  13.085 -0.0455 -0.1023  0.0621
19319TIP3    H179448   1.845   3.881  13.085 -0.1365  0.0176  0.5600
19319TIP3    H279449   1.754   3.803  12.993  2.0453 -1.9540 -0.0198
19320TIP3   OH279450   6.711   5.188  14.404 -0.0923  0.2885 -0.2848
19320TIP3    H179451   6.660   5.261  14.371  0.4702  0.3619 -0.9916
19320TIP3    H279452   6.696   5.190  14.499  0.0403  1.4064 -0.2738
19321TIP3   OH279453   2.064   4.198  12.291  0.0200 -0.1993 -0.4103
19321TIP3    H179454   2.012   4.197  12.210  0.5954 -0.5873 -0.7755
19321TIP3    H279455   2.154   4.212  12.262  0.0760  0.9331  0.2585
19322TIP3   OH279456   4.988   3.972   3.293 -0.0579  0.1287  1.2623
19322TIP3    H179457   5.039   3.937   3.220 -0.7538  1.0861  0.2864
19322TIP3    H279458   5.035   3.942   3.371  2.6526  1.8861  0.4378
19323TIP3   OH279459   2.635   6.022  12.494  0.0304 -0.1014  0.1641
19323TIP3    H179460   2.647   5.932  12.523 -0.0759 -0.1916 -0.0776
19323TIP3    H279461   2.670   6.075  12.567 -1.7219 -0.2860  1.1895
19324TIP3   OH279462   4.292   0.075  11.059 -0.4428  1.4657 -0.2930
19324TIP3    H179463   4.208   0.112  11.032 -0.3953  0.3625 -2.1696
19324TIP3    H279464   4.324   0.030  10.980  0.5167 -0.6151  1.1854
19325TIP3   OH279465   2.276   6.594  13.157 -0.4561 -1.2034 -0.5311
19325TIP3    H179466   2.260   6.677  13.112 -0.5893 -1.1254 -0.3403
19325TIP3    H279467   2.263   6.527  13.089 -1.6958 -1.1495 -0.3598
19326TIP3   OH279468   4.968   1.636  13.709  0.1287  0.0745  0.2169
19326TIP3    H179469   4.991   1.716  13.758 -0.0854  1.9632 -2.5437
19326TIP3    H279470   5.010   1.647  13.624 -0.8641 -2.2557 -0.6552
19327TIP3   OH279471   2.718   6.321  11.386  0.6718  0.2409  0.0659
19327TIP3    H179472   2.751   6.378  11.316  0.3524 -0.1662 -0.4236
19327TIP3    H279473   2.749   6.362  11.467  0.6948  0.9505 -0.2921
19328TIP3   OH279474   4.497   1.663   3.486 -0.1606  0.1226  0.0810
19328TIP3    H179475   4.467   1.674   3.576  1.9214 -0.2811  0.8943
19328TIP3    H279476   4.557   1.736   3.472  0.1932 -0.3011 -0.6688
19329TIP3   OH279477   1.961   2.627   5.558  0.3150  0.6823  0.4915
19329TIP3    H179478   1.921   2.586   5.635 -0.7336  2.2683  0.8440
19329TIP3    H279479   1.909   2.595   5.484  1.6957 -1.3208  0.3010
19330TIP3   OH279480   4.507   6.011  16.678  0.2580  0.0607  0.4347
19330TIP3    H179481   4.444   6.084  16.679  1.3255  1.0733 -0.9471
19330TIP3    H279482   4.528   5.996  16.770 -0.9649  0.6239  0.8336
19331TIP3   OH279483   3.934   3.567   6.754  0.6525  0.2671 -0.1065
19331TIP3    H179484   3.979   3.494   6.795  1.5124  0.7511 -0.1503
19331TIP3    H279485   4.004   3.631   6.736 -0.3219  2.0182  1.8908
19332TIP3   OH279486   3.694   1.533   3.368  0.2405  0.2430 -0.4170
19332TIP3    H179487   3.633   1.574   3.429 -0.5817 -0.6906 -0.5810
19332TIP3    H279488   3.729   1.458   3.417  0.2715  0.0255 -0.7718
19333TIP3   OH279489   0.016   6.239  14.062 -0.0303  0.0592 -0.5867
19333TIP3    H179490   0.071   6.203  14.131 -0.5644  2.1064  1.0281
19333TIP3    H279491  -0.051   6.172  14.047 -1.6871  0.6215  3.1071
19334TIP3   OH279492   2.788   4.299   1.745 -0.7934 -0.1621  0.0618
19334TIP3    H179493   2.804   4.221   1.692 -1.1100  0.5710 -1.1536
19334TIP3    H279494   2.870   4.314   1.791 -0.8751 -1.4595  0.6580
19335TIP3   OH279495   6.109   3.409  17.161 -0.1239  0.2429  0.3665
19335TIP3    H179496   6.099   3.392  17.067 -2.0238  1.4073  0.3054
19335TIP3    H279497   6.081   3.328  17.203 -1.5690  0.4720 -0.0705
19336TIP3   OH279498   6.246   5.906  13.666  0.3356 -0.1453 -0.3155
19336TIP3    H179499   6.220   5.983  13.615  1.6594  0.1690 -0.5640
19336TIP3    H279500   6.301   5.856  13.606 -1.5584 -2.0131 -0.6279
19337TIP3   OH279501   0.864   1.583   5.188  0.1508  0.0967  0.1145
19337TIP3    H179502   0.847   1.493   5.160 -0.5018  0.1460  0.3314
19337TIP3    H279503   0.787   1.607   5.240  0.3341  0.7669  0.0870
19338TIP3   OH279504   2.912   4.249  13.809  0.4257  0.0177  0.3451
19338TIP3    H179505   2.849   4.317  13.830  0.1084  0.0072 -0.5426
19338TIP3    H279506   2.901   4.233  13.715  2.3366  0.6272 -0.0388
19339TIP3   OH279507   5.037   3.981  13.963 -0.1220 -0.6811 -0.0812
19339TIP3    H179508   4.981   3.907  13.989  0.3225 -0.4712  1.5592
19339TIP3    H279509   4.975   4.049  13.937 -0.5963 -0.8801  0.5006
19340TIP3   OH279510   5.155   3.131   2.926  0.1440  0.0142  0.5528
19340TIP3    H179511   5.161   3.201   2.991 -1.1965 -0.3629  1.1261
19340TIP3    H279512   5.061   3.122   2.909  0.3544 -1.0709 -0.1433
19341TIP3   OH279513   2.107   3.122   2.290 -0.6732 -0.7139  0.2120
19341TIP3    H179514   2.044   3.194   2.298 -0.3736 -0.2808 -1.0377
19341TIP3    H279515   2.146   3.134   2.203  1.1924 -0.9301  0.9685
19342TIP3   OH279516   3.650   4.124   4.922  0.8412 -0.0597  0.4683
19342TIP3    H179517   3.656   4.046   4.867  1.0625  0.9336 -0.9703
19342TIP3    H279518   3.736   4.131   4.964  1.2418  0.0862 -0.3640
19343TIP3   OH279519   2.526   1.695  14.277 -0.1954  0.1318 -0.2308
19343TIP3    H179520   2.509   1.758  14.207 -0.6088  1.9144  1.3770
19343TIP3    H279521   2.456   1.712  14.341  1.0404 -0.3485  1.3044
19344TIP3   OH279522   4.170   5.423   4.477 -0.2236 -0.1938  0.3595
19344TIP3    H179523   4.129   5.341   4.451 -1.8387  0.2218  1.4049
19344TIP3    H279524   4.100   5.471   4.521  0.1558  2.4956 -1.7279
19345TIP3   OH279525   3.953   4.487   2.959 -0.0944  0.4542  0.0422
19345TIP3    H179526   4.021   4.421   2.976  0.1843  0.5208 -0.7392
19345TIP3    H279527   3.926   4.517   3.045  2.0096  1.5912  0.3699
19346TIP3   OH279528   2.786   3.428  12.287 -0.0971 -0.2118 -0.1239
19346TIP3    H179529   2.830   3.433  12.203  0.7987  1.5450  0.4062
19346TIP3    H279530   2.850   3.389  12.346 -0.9586 -2.0877 -0.3481
19347TIP3   OH279531   5.931   2.834   3.951 -0.5006 -0.0954 -0.4202
19347TIP3    H179532   5.881   2.759   3.918  1.5028 -0.2867 -3.5326
19347TIP3    H279533   6.010   2.795   3.989  0.1551  0.3439 -1.2839
19348TIP3   OH279534   1.367   6.206   5.255 -0.1023  0.1022  0.4113
19348TIP3    H179535   1.415   6.194   5.173  0.0317  2.0653  0.1340
19348TIP3    H279536   1.325   6.292   5.245 -0.3673  0.2281  2.2616
19349TIP3   OH279537   4.941   4.436  17.031  0.4660  0.6719 -0.3717
19349TIP3    H179538   5.015   4.479  16.989 -0.1409  2.0564 -0.0788
19349TIP3    H279539   4.931   4.482  17.114 -0.5061  0.2661 -0.2554
19350TIP3   OH279540   0.822   6.529  17.005  0.0398  0.2042 -0.1057
19350TIP3    H179541   0.814   6.606  16.948 -1.3881 -0.1843 -0.4795
19350TIP3    H279542   0.830   6.455  16.945 -1.2480 -0.1861  0.1748
19351TIP3   OH279543   6.253   2.121  11.303  0.0613  0.5301  0.1165
19351TIP3    H179544   6.169   2.075  11.305  0.0325  0.5819  0.0863
19351TIP3    H279545   6.267   2.150  11.393  0.0822  0.4586  0.1363
19352TIP3   OH279546   2.275   1.850  17.199 -0.1669 -0.5310 -0.3397
19352TIP3    H179547   2.367   1.830  17.215  0.0726 -1.1508 -2.3071
19352TIP3    H279548   2.237   1.767  17.173 -0.8245  0.1016 -1.4817
19353TIP3   OH279549   4.190   4.513  13.446 -0.1745 -0.8984  0.4875
19353TIP3    H179550   4.098   4.542  13.442 -0.4779 -1.9057 -0.3476
19353TIP3    H279551   4.188   4.437  13.505  0.3114 -0.2812  1.3061
19354TIP3   OH279552   1.061   0.302   5.109  0.5670  0.6941  0.1233
19354TIP3    H179553   1.043   0.391   5.140  1.0881  0.7451  0.2891
19354TIP3    H279554   1.102   0.259   5.183 -0.5212  0.0213  0.3568
19355TIP3   OH279555   0.418   2.210  12.989  0.4332  0.0898 -0.4988
19355TIP3    H179556   0.507   2.180  13.005  0.8183  0.3008 -2.0954
19355TIP3    H279557   0.386   2.156  12.917 -0.7140  0.0793 -0.0131
19356TIP3   OH279558   6.386   5.101  17.188  0.0145 -0.0438 -0.2538
19356TIP3    H179559   6.327   5.090  17.114 -1.0098  3.0782 -0.0591
19356TIP3    H279560   6.472   5.115  17.148  0.4614 -3.0277 -0.5843
19357TIP3   OH279561   2.825   3.045  11.696 -0.1210  0.6160 -0.3767
19357TIP3    H179562   2.887   3.061  11.767 -0.7016  2.3269 -0.2091
19357TIP3    H279563   2.775   2.969  11.725 -0.8899  1.7494  1.4765
19358TIP3   OH279564   0.078   5.291  12.321  0.3285  0.0118 -0.3316
19358TIP3    H179565   0.034   5.211  12.292  0.7335 -0.2120 -0.3336
19358TIP3    H279566   0.159   5.294  12.270  0.4331  0.2920 -0.1526
19359TIP3   OH279567   0.108   0.947  11.263  0.0612 -0.0585 -0.1943
19359TIP3    H179568   0.174   1.015  11.248  1.0734 -0.9843 -0.0258
19359TIP3    H279569   0.028   0.996  11.282  0.5081  1.0912 -1.1473
19360TIP3   OH279570   4.486   4.497  11.118 -0.1470  0.3405 -0.3070
19360TIP3    H179571   4.455   4.587  11.108 -0.0734  0.2133 -1.8817
19360TIP3    H279572   4.582   4.504  11.119 -0.1445  0.3514  0.5601
19361TIP3   OH279573   3.478   0.937   3.341 -0.1029  0.2508  0.2381
19361TIP3    H179574   3.528   1.007   3.300  0.1966  0.5280  1.0573
19361TIP3    H279575   3.404   0.922   3.281  0.3066  0.6563 -0.3789
19362TIP3   OH279576   5.173   3.596   6.257  0.3738  0.4893 -0.8224
19362TIP3    H179577   5.161   3.531   6.188  0.9734  0.7659 -1.1934
19362TIP3    H279578   5.266   3.618   6.254  0.3291  0.8018 -0.1916
19363TIP3   OH279579   5.512   2.122   2.280 -0.1284  0.2799  0.5484
19363TIP3    H179580   5.560   2.082   2.208 -0.2082  0.0087  0.6444
19363TIP3    H279581   5.578   2.138   2.347 -0.2152 -0.3561  0.7928
19364TIP3   OH279582   3.685   1.537   5.419 -0.9101 -0.0419 -0.6472
19364TIP3    H179583   3.703   1.486   5.340  0.6058 -0.2400 -0.2088
19364TIP3    H279584   3.759   1.598   5.426 -1.0966  0.0871  0.5189
19365TIP3   OH279585   4.698   1.396   2.074  0.1024  0.8780 -0.2715
19365TIP3    H179586   4.757   1.382   2.149 -2.3697  0.6829  1.7582
19365TIP3    H279587   4.702   1.491   2.058  1.8371  0.7248 -1.0108
19366TIP3   OH279588   4.937   4.691   1.488  0.1960  0.2300  0.6075
19366TIP3    H179589   4.847   4.685   1.517  0.4551  1.0991  1.6585
19366TIP3    H279590   4.977   4.608   1.513 -0.5067 -0.5098 -0.6448
19367TIP3   OH279591   0.132   5.989   1.170 -0.1501  0.6604 -0.6469
19367TIP3    H179592   0.074   6.023   1.102 -1.8031  0.6658  0.7055
19367TIP3    H279593   0.157   6.066   1.221  0.6367  0.5800 -0.8921
19368TIP3   OH279594   2.304   4.674   4.947 -0.0819 -0.1240  0.1732
19368TIP3    H179595   2.375   4.699   5.006  0.6295  0.8905 -1.0534
19368TIP3    H279596   2.345   4.618   4.882 -0.7226 -0.7284  0.2786
19369TIP3   OH279597   4.756   4.461  16.783 -0.8316  0.2135  0.1362
19369TIP3    H179598   4.673   4.499  16.810 -0.2556  0.2832  1.9042
19369TIP3    H279599   4.765   4.381  16.835  0.3549  0.3784  0.2289
19370TIP3   OH279600   2.588   3.966  16.393  0.1838  0.3807 -0.0798
19370TIP3    H179601   2.640   4.044  16.372  0.5139  0.4244  0.8311
19370TIP3    H279602   2.502   3.984  16.356  0.5313  0.7562 -0.7268
19371TIP3   OH279603   4.691   1.361   5.136  0.4133 -0.0715  0.2776
19371TIP3    H179604   4.614   1.345   5.082  0.1103 -0.4659  0.8129
19371TIP3    H279605   4.673   1.315   5.218 -0.0091  2.1043  1.4699
19372TIP3   OH279606   4.211   4.117  13.208 -0.3021  0.3173 -0.3386
19372TIP3    H179607   4.252   4.073  13.133 -0.1661 -0.2199  0.0422
19372TIP3    H279608   4.139   4.058  13.233 -0.0294  0.2376  0.2647
19373TIP3   OH279609   4.673   1.265   6.159 -0.4822 -0.0718  0.4088
19373TIP3    H179610   4.672   1.240   6.066 -0.9401  0.5007  0.2503
19373TIP3    H279611   4.615   1.201   6.201 -2.3339  1.1602 -0.1356
19374TIP3   OH279612   4.098   1.486  15.080 -0.0697 -0.2799  0.5224
19374TIP3    H179613   4.098   1.579  15.059  0.5853 -0.3253  0.2702
19374TIP3    H279614   4.191   1.465  15.092 -0.0939 -1.1338 -0.5734
19375TIP3   OH279615   0.367   5.063  16.677  0.1627 -0.7892  0.0582
19375TIP3    H179616   0.370   4.969  16.694 -0.0243 -0.5585  1.5436
19375TIP3    H279617   0.276   5.088  16.694  0.5574 -0.0983  1.3084
19376TIP3   OH279618   2.535   6.275   0.302 -0.0234 -0.3103 -0.0436
19376TIP3    H179619   2.505   6.198   0.253 -0.0474 -0.9268  0.9309
19376TIP3    H279620   2.627   6.258   0.319  0.0187 -0.0281  0.0157
19377TIP3   OH279621   0.949   6.454   5.137  0.1198 -0.4072  0.1130
19377TIP3    H179622   0.866   6.425   5.100 -0.3633  0.2842  0.6568
19377TIP3    H279623   0.990   6.374   5.170 -0.2751 -0.7622 -0.2492
19378TIP3   OH279624   4.162   2.231   1.970 -0.7621  0.2356 -0.0746
19378TIP3    H179625   4.227   2.212   2.037 -1.6700 -0.3241  0.6799
19378TIP3    H279626   4.119   2.311   2.000  0.3758  1.3076 -1.2011
19379TIP3   OH279627   2.011   1.760   2.736 -0.6065  0.3306  0.5744
19379TIP3    H179628   2.004   1.839   2.682 -1.9843 -1.1921 -1.6679
19379TIP3    H279629   2.081   1.709   2.696 -1.9429 -1.0295 -0.1486
19380TIP3   OH279630   0.665   3.879  11.152  0.6944  0.0397 -0.5651
19380TIP3    H179631   0.717   3.838  11.083  1.1303 -0.3123 -0.0340
19380TIP3    H279632   0.661   3.971  11.127  2.2835  0.2368 -0.1849
19381TIP3   OH279633   5.704   3.997   0.616  0.0456 -0.2217 -0.6318
19381TIP3    H179634   5.744   3.939   0.682 -0.7322 -0.8081 -0.6648
19381TIP3    H279635   5.776   4.018   0.556  0.5145 -0.5399 -0.1889
19382TIP3   OH279636   5.429   4.797  12.057  0.2172  0.2048 -0.0706
19382TIP3    H179637   5.351   4.784  12.003 -0.9028  1.3635  1.1907
19382TIP3    H279638   5.502   4.789  11.996 -0.9366  0.1223 -1.4900
19383TIP3   OH279639   2.957   5.701   0.108  0.1312  0.4473  0.0563
19383TIP3    H179640   2.979   5.742   0.024 -0.0589 -1.6698 -1.0802
19383TIP3    H279641   2.866   5.674   0.098  0.5281 -1.0995  0.3820
19384TIP3   OH279642   0.263   1.703  12.472 -0.1695 -0.6265  0.7178
19384TIP3    H179643   0.189   1.747  12.431  1.2125  0.5096 -0.6809
19384TIP3    H279644   0.275   1.623  12.421 -0.1091 -0.5541  0.6190
19385TIP3   OH279645   0.110   4.614   1.493 -0.2822 -0.0235 -0.3162
19385TIP3    H179646   0.203   4.592   1.489  0.3218  2.3924 -1.4206
19385TIP3    H279647   0.089   4.643   1.404 -1.9612 -0.0078  0.0519
19386TIP3   OH279648   4.011   3.707  13.578  0.3771 -0.0769  0.1628
19386TIP3    H179649   4.010   3.635  13.515  0.8894  0.3351 -0.3291
19386TIP3    H279650   4.094   3.752  13.561  1.4035 -0.9851  2.2837
19387TIP3   OH279651   3.130   2.527   3.585 -0.0857  0.7486  0.3458
19387TIP3    H179652   3.123   2.444   3.632  0.8916  0.9552  0.8757
19387TIP3    H279653   3.214   2.564   3.613 -0.4408  1.8502  0.0127
19388TIP3   OH279654   5.365   0.801   3.778 -0.0070 -1.0157  0.2857
19388TIP3    H179655   5.416   0.794   3.858  0.2854 -0.2109  0.1746
19388TIP3    H279656   5.375   0.715   3.736  3.3346 -0.1775 -0.9634
19389TIP3   OH279657   3.446   3.288  13.752 -0.5606  0.2131  0.0259
19389TIP3    H179658   3.370   3.256  13.801  0.1555 -0.6269  0.6070
19389TIP3    H279659   3.515   3.224  13.770 -0.4527 -0.5449 -2.6413
19390TIP3   OH279660   4.277   3.776  17.077 -0.0699  0.1310 -0.4576
19390TIP3    H179661   4.321   3.857  17.103  1.5243 -0.7233 -0.4018
19390TIP3    H279662   4.189   3.784  17.115 -0.0754  1.9658 -0.7346
19391TIP3   OH279663   0.685   6.244  13.183 -0.1404  0.5636 -0.6798
19391TIP3    H179664   0.734   6.221  13.104  0.7197 -0.8143  0.2040
19391TIP3    H279665   0.613   6.299  13.152  0.1573  0.0310 -2.4181
19392TIP3   OH279666   0.555   6.033   1.949  0.0234  0.0098 -0.4069
19392TIP3    H179667   0.650   6.019   1.945  0.2798  1.7821 -1.7061
19392TIP3    H279668   0.545   6.122   1.983 -1.0369  0.7939 -2.5948
19393TIP3   OH279669   4.731   6.806  16.905 -0.4122 -0.1849 -0.1609
19393TIP3    H179670   4.680   6.887  16.897 -1.7772 -0.7926  1.8566
19393TIP3    H279671   4.800   6.816  16.839  0.3137  3.2247  0.9210
19394TIP3   OH279672   4.384   2.554   3.637  0.2589  0.0117 -0.1953
19394TIP3    H179673   4.313   2.490   3.649  1.3099 -1.0975  0.2976
19394TIP3    H279674   4.415   2.571   3.726 -0.5962  1.9338 -0.2257
19395TIP3   OH279675   3.830   6.238  17.051 -0.0719  0.3928 -0.3260
19395TIP3    H179676   3.893   6.309  17.063  0.6051 -0.2864  0.2384
19395TIP3    H279677   3.866   6.165  17.102 -0.7049 -0.3900 -0.9735
19396TIP3   OH279678   0.051   4.505  11.890  0.5705 -0.6320 -0.4772
19396TIP3    H179679  -0.010   4.495  11.963 -1.8797 -2.1941 -2.6073
19396TIP3    H279680   0.072   4.415  11.863  2.4955 -0.1059 -0.9435
19397TIP3   OH279681   6.575   6.684   3.265  0.0602 -0.0060 -0.4914
19397TIP3    H179682   6.639   6.750   3.238 -0.5218  1.4694  1.4834
19397TIP3    H279683   6.616   6.600   3.246  1.5735  0.9154 -1.4525
19398TIP3   OH279684   1.705   4.079  15.881 -0.3288  0.2413 -0.3530
19398TIP3    H179685   1.786   4.103  15.834  0.1559 -0.8826 -0.1301
19398TIP3    H279686   1.675   4.000  15.836 -0.6614 -0.0154  0.3228
19399TIP3   OH279687   0.527   4.803  14.179  0.0640 -0.3384  0.3840
19399TIP3    H179688   0.455   4.763  14.228 -1.3834 -1.3435 -2.3132
19399TIP3    H279689   0.519   4.897  14.198 -1.4440 -0.5250  0.8447
19400TIP3   OH279690   2.851   0.186  16.555 -0.2091  0.0913  0.3096
19400TIP3    H179691   2.827   0.205  16.464  0.7786 -1.2517 -0.2663
19400TIP3    H279692   2.768   0.189  16.602 -0.6335  1.5820 -0.4736
19401TIP3   OH279693   6.000   2.898  14.057 -0.2332 -0.1652  0.4653
19401TIP3    H179694   6.064   2.828  14.045 -0.8952 -0.9461  1.3077
19401TIP3    H279695   5.967   2.885  14.147 -1.2533  0.4671  0.2037
19402TIP3   OH279696   0.771   5.236  12.138  0.3524  0.2251  0.1305
19402TIP3    H179697   0.834   5.234  12.066 -1.4279  0.4280 -1.5101
19402TIP3    H279698   0.782   5.151  12.181 -1.3738 -1.7489 -3.0061
19403TIP3   OH279699   4.448   2.179  13.187 -0.5581 -0.3625  0.3546
19403TIP3    H179700   4.453   2.253  13.248  0.3760  0.3479 -0.5557
19403TIP3    H279701   4.463   2.102  13.242  2.4136  0.3930  0.7888
19404TIP3   OH279702   0.440   1.531   3.740  0.8783  0.3400  0.5523
19404TIP3    H179703   0.363   1.494   3.785  1.1614  1.9916  2.5662
19404TIP3    H279704   0.403   1.583   3.668  0.0989  0.7893  1.2500
19405TIP3   OH279705   1.792   4.071  10.919 -0.0925 -0.1889 -0.4751
19405TIP3    H179706   1.769   4.081  10.826 -1.9796  1.2243  0.0771
19405TIP3    H279707   1.723   4.015  10.954  0.9964 -1.2867 -0.0293
19406TIP3   OH279708   0.087   3.644  13.471 -0.0852  0.2500  0.5892
19406TIP3    H179709   0.146   3.710  13.507  0.2562  0.2764 -0.0104
19406TIP3    H279710   0.104   3.566  13.523  2.2815 -0.4801 -1.1093
19407TIP3   OH279711   1.758   0.047   6.311  0.4860 -0.0318  0.8356
19407TIP3    H179712   1.744   0.079   6.222  0.9012 -0.4201  0.6223
19407TIP3    H279713   1.832  -0.013   6.303  1.1848  0.6985  1.6266
19408TIP3   OH279714   1.289   0.309  16.786 -0.2207  0.3002 -0.0664
19408TIP3    H179715   1.214   0.252  16.806  0.4194 -0.2521  0.8450
19408TIP3    H279716   1.356   0.284  16.850  0.4167  1.4346 -0.2589
19409TIP3   OH279717   3.928   1.014   2.959 -0.2013 -0.2058  0.2304
19409TIP3    H179718   3.883   1.038   3.040  0.1791  0.8417  0.1363
19409TIP3    H279719   4.018   0.996   2.986  0.0042  0.4544  0.0015
19410TIP3   OH279720   3.368   0.188   6.262 -0.3880 -0.1048 -0.3985
19410TIP3    H179721   3.455   0.191   6.302 -1.3307  2.2380  1.8078
19410TIP3    H279722   3.333   0.276   6.275 -2.2902 -0.3422 -3.1958
19411TIP3   OH279723   5.528   3.711  16.738 -0.8043 -0.1585  0.1594
19411TIP3    H179724   5.546   3.618  16.748 -3.3726 -0.9122 -1.3524
19411TIP3    H279725   5.530   3.746  16.827  0.2055 -1.6364  0.7488
19412TIP3   OH279726   5.305   3.551  15.573 -0.0975  0.2139 -0.5175
19412TIP3    H179727   5.247   3.622  15.545 -0.2180  0.2071 -0.2858
19412TIP3    H279728   5.248   3.489  15.619  0.1101  0.2599 -0.1936
19413TIP3   OH279729   0.001   3.334   3.390 -0.2750 -0.4242 -0.1069
19413TIP3    H179730   0.086   3.293   3.377 -0.3898 -0.1608 -1.9691
19413TIP3    H279731  -0.051   3.305   3.314 -1.8592 -0.6091  0.9949
19414TIP3   OH279732   1.363   0.309  16.085  0.0312  0.2094  0.0381
19414TIP3    H179733   1.275   0.282  16.112 -0.0768  0.7503  0.2182
19414TIP3    H279734   1.417   0.232  16.104 -1.0683 -1.8643 -3.9763
19415TIP3   OH279735   6.595   1.503  16.659 -0.1891  0.2003 -0.0022
19415TIP3    H179736   6.570   1.589  16.625  0.7245  0.8166  0.8191
19415TIP3    H279737   6.639   1.522  16.742  0.8661 -0.9889 -0.2643
19416TIP3   OH279738   0.141   1.806   1.148  0.3241  0.2548  0.0797
19416TIP3    H179739   0.130   1.835   1.057 -1.3861 -0.7732 -0.0955
19416TIP3    H279740   0.231   1.773   1.152  0.4220  0.2938 -1.2563
19417TIP3   OH279741   4.971   4.476  16.594  0.0137 -0.0431 -0.3822
19417TIP3    H179742   5.027   4.535  16.645 -0.2576  0.3403 -0.5250
19417TIP3    H279743   4.896   4.459  16.652  0.7017 -1.2696  0.1606
19418TIP3   OH279744   1.607   0.856   5.551  0.4970  0.2879  0.0449
19418TIP3    H179745   1.519   0.849   5.588 -0.2965  1.2306 -1.5170
19418TIP3    H279746   1.608   0.791   5.481  1.1674  0.0629  0.2608
19419TIP3   OH279747   6.305   1.423   5.008  0.2156  0.6617  0.8057
19419TIP3    H179748   6.258   1.341   4.995 -0.5841  1.3764 -1.3475
19419TIP3    H279749   6.395   1.403   4.983 -0.1992  0.6394 -0.8355
19420TIP3   OH279750   4.853   0.010   4.037 -0.8139 -0.1511  0.4170
19420TIP3    H179751   4.905   0.065   4.095 -1.0219 -1.9227  2.3810
19420TIP3    H279752   4.833   0.067   3.962  0.7399  1.7376  1.3387
19421TIP3   OH279753   6.028   1.554   2.426 -0.0099  0.5858 -0.6544
19421TIP3    H179754   5.992   1.541   2.514 -1.5450  2.9758 -0.8351
19421TIP3    H279755   6.078   1.474   2.408  0.7963  0.2352  2.5701
19422TIP3   OH279756   5.459   0.249  14.418 -0.5498 -0.4689  0.1432
19422TIP3    H179757   5.554   0.244  14.426 -0.3869  0.6870 -0.8944
19422TIP3    H279758   5.426   0.210  14.500  0.8155 -0.0730  0.9126
19423TIP3   OH279759   5.335   5.448   6.258  0.3501  0.2864 -0.1946
19423TIP3    H179760   5.272   5.377   6.271  0.3901  0.5185  1.4842
19423TIP3    H279761   5.347   5.485   6.346  2.4311  0.5938 -0.5728
19424TIP3   OH279762   4.663   3.686  13.465 -0.0865 -0.2946 -0.4548
19424TIP3    H179763   4.668   3.745  13.389 -0.3067 -1.0095 -1.0311
19424TIP3    H279764   4.689   3.601  13.430 -0.4025 -0.6708  0.2330
19425TIP3   OH279765   1.090   2.746  11.174  0.0843 -0.2517  0.3725
19425TIP3    H179766   1.044   2.818  11.131  1.3849  0.2258 -0.2523
19425TIP3    H279767   1.122   2.692  11.103  0.6490 -0.4782  0.7921
19426TIP3   OH279768   1.255   6.107  12.832  0.3894 -0.0204  0.0879
19426TIP3    H179769   1.186   6.144  12.777 -1.8660 -1.1634  1.9549
19426TIP3    H279770   1.217   6.027  12.867  2.0154  0.1820  2.5391
19427TIP3   OH279771   4.945   2.230  11.862 -0.2383 -0.0376  0.6413
19427TIP3    H179772   4.929   2.321  11.884 -1.0462  0.2305 -0.9046
19427TIP3    H279773   4.875   2.207  11.800  0.9453 -1.1666 -0.3509
19428TIP3   OH279774   4.548   0.808   1.243 -0.0215  0.2618 -0.6459
19428TIP3    H179775   4.479   0.742   1.246 -0.0106  0.2696  0.0253
19428TIP3    H279776   4.566   0.828   1.335 -0.7594  1.9768 -0.8273
19429TIP3   OH279777   2.500   5.263  10.329 -0.0085 -0.7854 -0.6421
19429TIP3    H179778   2.549   5.341  10.305  0.9603 -1.3730 -0.6432
19429TIP3    H279779   2.408   5.289  10.322  0.2856  0.6570  0.3968
19430TIP3   OH279780   1.076   6.037   0.598 -0.0097 -0.5423 -0.0225
19430TIP3    H179781   1.132   6.101   0.643 -1.8087  0.3351  1.0601
19430TIP3    H279782   1.049   6.082   0.518  0.5637 -0.8584 -0.4036
19431TIP3   OH279783   6.623   0.408   0.019 -0.1920  0.4624 -0.2324
19431TIP3    H179784   6.683   0.407   0.094 -0.7744 -1.8528  0.2642
19431TIP3    H279785   6.679   0.390  -0.057 -0.1845 -1.6432  0.2220
19432TIP3   OH279786   0.908   0.490   5.712  0.1390 -0.1426  0.0781
19432TIP3    H179787   0.845   0.558   5.732  0.1673 -0.4095  1.1053
19432TIP3    H279788   0.892   0.469   5.620 -0.9757  0.0849  0.2109
19433TIP3   OH279789   3.271   5.679  13.863 -0.3169 -0.5295  0.3316
19433TIP3    H179790   3.274   5.750  13.800 -0.2689  1.4392  2.4132
19433TIP3    H279791   3.180   5.650  13.864 -0.4185 -0.2251 -0.2370
19434TIP3   OH279792   1.664   0.270  15.879  0.2184  0.8416  0.2768
19434TIP3    H179793   1.679   0.364  15.893 -3.5894  1.8872 -1.2189
19434TIP3    H279794   1.600   0.246  15.946 -0.1424 -0.2224 -0.4198
19435TIP3   OH279795   6.170   6.027   4.031  0.5316 -0.2718 -0.4419
19435TIP3    H179796   6.226   5.969   4.083  0.0550  0.5169  1.0132
19435TIP3    H279797   6.094   5.974   4.009  1.0388 -0.8157 -0.9116
19436TIP3   OH279798   6.335   2.672  15.466  0.2682 -0.0680 -0.1528
19436TIP3    H179799   6.268   2.725  15.510  0.5160  0.2316 -0.1296
19436TIP3    H279800   6.396   2.736  15.429  1.7233 -0.3176  1.6261
19437TIP3   OH279801   0.599   2.122  16.853  0.3309  0.2025  0.1860
19437TIP3    H179802   0.596   2.214  16.881 -1.0036  0.8233 -1.7747
19437TIP3    H279803   0.633   2.126  16.764  1.0435 -1.3306  0.3630
19438TIP3   OH279804   4.219   1.321  15.283 -0.0146  0.4727  0.0327
19438TIP3    H179805   4.157   1.386  15.316 -1.2666 -0.5028 -0.3216
19438TIP3    H279806   4.177   1.237  15.300  0.5854 -0.1602 -1.4390
19439TIP3   OH279807   6.173   1.800  13.225  0.4986 -0.3613 -0.1372
19439TIP3    H179808   6.079   1.790  13.211 -0.1696  1.2041  2.5114
19439TIP3    H279809   6.189   1.894  13.223  2.3475 -0.6373 -2.0644
19440TIP3   OH279810   5.831   6.040  13.093  0.3747  0.5654 -0.6106
19440TIP3    H179811   5.836   6.134  13.076 -0.6809  0.7039 -0.2192
19440TIP3    H279812   5.754   6.010  13.044  0.2918  0.0411 -0.1754
19441TIP3   OH279813   6.633   4.768   4.095 -0.0043  0.1362 -0.5543
19441TIP3    H179814   6.700   4.782   4.162 -1.3477 -0.8985  1.1009
19441TIP3    H279815   6.672   4.704   4.036  0.1908 -1.1210  0.8732
19442TIP3   OH279816   6.813   0.031   0.468 -0.0322 -0.5423 -0.6582
19442TIP3    H179817   6.870   0.064   0.538  1.0382 -0.3395 -1.5992
19442TIP3    H279818   6.866   0.038   0.389 -1.5539  0.1112 -1.6572
19443TIP3   OH279819   4.709   1.549  13.800 -0.5091 -0.4279  0.1577
19443TIP3    H179820   4.654   1.531  13.724  0.6664  0.2979 -0.8911
19443TIP3    H279821   4.793   1.577  13.764  0.8647 -2.2574  1.6861
19444TIP3   OH279822   1.465   4.450  14.204 -0.0235 -0.1752  0.0404
19444TIP3    H179823   1.397   4.388  14.179 -0.1737 -0.4698  1.1277
19444TIP3    H279824   1.475   4.507  14.128 -1.6013 -0.0129 -0.0727
19445TIP3   OH279825   4.564   0.849   4.074 -0.2383  0.3336 -0.7620
19445TIP3    H179826   4.476   0.831   4.107 -0.0240  2.0378  0.9223
19445TIP3    H279827   4.577   0.943   4.091  2.2422 -0.0654 -0.0985
19446TIP3   OH279828   4.342   4.418   1.076  0.6125 -0.1402  0.6902
19446TIP3    H179829   4.393   4.368   1.139  0.5239 -1.0114  0.0856
19446TIP3    H279830   4.337   4.506   1.114  0.7931 -0.5714  1.7549
19447TIP3   OH279831   5.138   0.006  13.977  0.2583 -0.1753  0.1217
19447TIP3    H179832   5.102   0.066  14.043 -1.0629 -1.6688  0.8290
19447TIP3    H279833   5.216  -0.030  14.018 -0.8123 -1.4593  1.1591
19448TIP3   OH279834   0.922   1.725   4.111 -0.0346  0.0426 -0.0904
19448TIP3    H179835   0.910   1.634   4.082  0.3868 -0.9277  2.5372
19448TIP3    H279836   0.834   1.763   4.106 -0.3288 -0.6864 -0.6549
19449TIP3   OH279837   3.901   2.428  11.918 -0.0612 -0.3857  0.1220
19449TIP3    H179838   3.903   2.416  11.823  3.9820 -1.3212  0.1691
19449TIP3    H279839   3.908   2.522  11.931 -0.8602 -0.2327 -0.4447
19450TIP3   OH279840   3.172   3.592   2.171  0.4684 -0.4054  0.0254
19450TIP3    H179841   3.251   3.542   2.155  0.3178  0.0134 -2.3549
19450TIP3    H279842   3.100   3.532   2.151  0.0774 -0.9888  2.7725
19451TIP3   OH279843   3.497   3.931   0.750  0.3657  0.1859  0.1509
19451TIP3    H179844   3.524   3.972   0.668 -1.9351 -2.7142 -2.3026
19451TIP3    H279845   3.571   3.876   0.775  0.6590  0.1897 -0.6792
19452TIP3   OH279846   6.434   2.563  11.963 -0.4535 -0.4366  0.8122
19452TIP3    H179847   6.354   2.614  11.970 -1.5724 -2.2119  1.7166
19452TIP3    H279848   6.426   2.496  12.030  1.7225 -0.7914  0.8019
19453TIP3   OH279849   4.301   6.728   5.327 -0.1057  0.6857 -0.5284
19453TIP3    H179850   4.351   6.699   5.404 -1.0716  1.7311  0.5257
19453TIP3    H279851   4.258   6.648   5.296 -3.0134  0.8108  2.5460
19454TIP3   OH279852   0.236   4.142   3.290  0.0140  0.0292 -0.0448
19454TIP3    H179853   0.259   4.228   3.256 -1.2939  0.6945  0.6698
19454TIP3    H279854   0.286   4.081   3.237  2.3107  1.2820  0.5460
19455TIP3   OH279855   3.647   0.326   5.151  0.0293 -0.3301 -0.4811
19455TIP3    H179856   3.687   0.269   5.086 -0.9259  1.2021 -2.5020
19455TIP3    H279857   3.555   0.301   5.153  0.1991 -0.9714  1.0092
19456TIP3   OH279858   0.982   5.918   3.414 -0.0887 -0.3878  0.6433
19456TIP3    H179859   0.965   6.010   3.393  1.2519 -0.6529 -2.1360
19456TIP3    H279860   1.012   5.880   3.331 -0.1127 -3.2289  1.8217
19457TIP3   OH279861   5.598   2.407  11.825  0.2706  0.0579  0.1691
19457TIP3    H179862   5.547   2.479  11.788 -1.1279 -1.0693 -0.1780
19457TIP3    H279863   5.565   2.329  11.781  0.9665 -0.9274  1.3361
19458TIP3   OH279864   1.874   1.333  14.017 -0.1081  0.0623  0.8038
19458TIP3    H179865   1.832   1.313  13.933  2.1696  0.5292 -0.5353
19458TIP3    H279866   1.918   1.251  14.041  0.7683  0.4427  0.5524
19459TIP3   OH279867   1.737   0.072  15.134  0.2931  0.2914 -0.1094
19459TIP3    H179868   1.770   0.148  15.182  0.6852  0.4988 -0.6968
19459TIP3    H279869   1.795   0.001  15.161  0.5692  0.4269 -0.3428
19460TIP3   OH279870   2.277   1.907   2.313 -0.1884  0.2133 -0.2559
19460TIP3    H179871   2.203   1.920   2.254  0.4880  0.9272 -0.9774
19460TIP3    H279872   2.249   1.944   2.396 -0.9176 -0.2235 -0.2958
19461TIP3   OH279873   0.984   0.767  14.669 -0.2127 -0.0733 -0.0230
19461TIP3    H179874   0.963   0.715  14.591  0.4753 -0.7799  0.2459
19461TIP3    H279875   0.940   0.722  14.741 -2.2535  1.5150 -0.1805
19462TIP3   OH279876   4.980   2.533   2.707 -0.0718  0.2414 -0.0005
19462TIP3    H179877   5.060   2.486   2.681  1.2704  2.3295  0.0835
19462TIP3    H279878   4.975   2.520   2.801  0.5481  0.5937  0.0918
19463TIP3   OH279879   1.292   4.399  16.964  0.5038  0.2302  0.2281
19463TIP3    H179880   1.268   4.338  16.894 -0.2032  0.8195 -0.0613
19463TIP3    H279881   1.306   4.482  16.919 -0.6183  0.7812  0.8512
19464TIP3   OH279882   0.056   2.668  17.138 -0.1953  0.0599  0.0447
19464TIP3    H179883   0.050   2.707  17.051 -0.0882  0.4340  0.2065
19464TIP3    H279884   0.097   2.735  17.192 -2.1357  0.6464  0.8896
19465TIP3   OH279885   5.520   5.625  13.842 -0.1229  0.0459  0.1523
19465TIP3    H179886   5.511   5.629  13.938 -0.2669 -1.7209  0.2548
19465TIP3    H279887   5.609   5.656  13.825 -0.5734  1.7539  0.6936
19466TIP3   OH279888   0.451   5.322  15.827 -0.6698 -0.2124  0.5189
19466TIP3    H179889   0.492   5.260  15.766 -2.4558 -2.6096  1.6110
19466TIP3    H279890   0.395   5.376  15.771  0.8312  0.4082 -0.4463
19467TIP3   OH279891   3.298   0.042  10.729  0.2276 -0.2886 -0.2362
19467TIP3    H179892   3.381   0.072  10.693  0.5197  0.9116  1.3467
19467TIP3    H279893   3.232   0.098  10.689  0.5561  1.0792  1.0705
19468TIP3   OH279894   0.698   5.842  14.909 -0.2889  0.1620  0.3053
19468TIP3    H179895   0.669   5.921  14.864  0.7494 -0.3138 -1.3022
19468TIP3    H279896   0.792   5.837  14.891  0.0539 -0.4261  2.0155
19469TIP3   OH279897   0.467   0.394  15.290  0.3977  0.2032 -0.2239
19469TIP3    H179898   0.516   0.328  15.338 -0.6319 -2.4012 -2.5019
19469TIP3    H279899   0.438   0.456  15.357  3.2700 -0.3655  1.7177
19470TIP3   OH279900   6.602   4.646  11.032 -0.6967  0.1910 -0.0226
19470TIP3    H179901   6.526   4.588  11.039 -1.1313  0.5516 -1.4315
19470TIP3    H279902   6.654   4.609  10.961  2.0816 -1.7924  2.7626
19471TIP3   OH279903   3.836   5.480   2.182 -0.4380  0.2882  0.2515
19471TIP3    H179904   3.790   5.405   2.219  0.6428 -0.7768 -0.4941
19471TIP3    H279905   3.766   5.537   2.149 -1.2706 -0.4839  0.6412
19472TIP3   OH279906   5.349   6.100  13.324 -0.3209 -0.2591  0.2257
19472TIP3    H179907   5.423   6.046  13.353 -1.0739 -0.8204  1.1631
19472TIP3    H279908   5.384   6.152  13.252  1.2094  0.0407  1.1379
19473TIP3   OH279909   3.136   2.480   4.244 -0.2018  0.0345 -0.8376
19473TIP3    H179910   3.218   2.436   4.267  0.1905  0.9107 -0.5093
19473TIP3    H279911   3.163   2.550   4.184 -0.5872  0.8903 -0.0327
19474TIP3   OH279912   5.853   5.213  15.989 -0.3953 -0.5895  0.0791
19474TIP3    H179913   5.796   5.199  15.913  0.5670  1.3247 -1.0744
19474TIP3    H279914   5.868   5.125  16.024 -1.5816 -1.4396 -1.4026
19475TIP3   OH279915   3.364   0.055   1.933  0.1450  0.1121 -0.2290
19475TIP3    H179916   3.387   0.075   2.024 -0.3333 -0.2719 -0.0242
19475TIP3    H279917   3.292   0.115   1.913 -0.7679 -0.8444  0.1360
19476TIP3   OH279918   3.961   4.979   2.340 -0.0478 -0.0037 -0.4252
19476TIP3    H179919   4.007   5.051   2.383  1.8184 -1.6764  0.5933
19476TIP3    H279920   3.977   4.991   2.247 -0.5804  1.3884 -0.3550
19477TIP3   OH279921   3.706   6.686  14.456  0.5342 -0.4251  0.9363
19477TIP3    H179922   3.661   6.603  14.443  0.7784 -0.6262  1.3466
19477TIP3    H279923   3.786   6.663  14.503 -0.3320  0.2429  2.8669
19478TIP3   OH279924   1.370   5.714   4.740 -0.1131  0.0230 -0.3328
19478TIP3    H179925   1.291   5.701   4.793 -0.3778  0.4750 -0.6142
19478TIP3    H279926   1.377   5.809   4.731 -0.6730 -0.0508 -1.9954
19479TIP3   OH279927   3.194   0.241   4.426 -0.1144 -0.3483  0.5911
19479TIP3    H179928   3.205   0.150   4.397  2.1091 -0.1330  0.5949
19479TIP3    H279929   3.273   0.285   4.396 -1.6520  1.9056 -0.4533
19480TIP3   OH279930   2.801   2.200   0.592 -0.1920  0.0970  0.8436
19480TIP3    H179931   2.797   2.207   0.687  0.2886  1.2270  0.7943
19480TIP3    H279932   2.730   2.255   0.561  0.3491  0.6367  0.5340
19481TIP3   OH279933   5.215   3.048   0.395 -0.1854 -0.6460  0.0191
19481TIP3    H179934   5.294   3.101   0.396 -0.4958 -0.1747  0.3188
19481TIP3    H279935   5.243   2.962   0.426  0.1244 -0.3542  0.5679
19482TIP3   OH279936   6.517   3.191  11.541 -0.1348 -0.5004  0.0537
19482TIP3    H179937   6.518   3.274  11.590 -0.8104 -1.4925  1.8435
19482TIP3    H279938   6.608   3.161  11.544  0.3822  0.7340 -1.6983
19483TIP3   OH279939   6.155   5.559   2.452 -0.6361  0.6302  0.2612
19483TIP3    H179940   6.123   5.478   2.490 -0.1173  1.6430  3.1588
19483TIP3    H279941   6.152   5.622   2.524 -1.1589  3.2655 -1.8825
19484TIP3   OH279942   4.952   1.913   5.278 -0.3866 -0.1473  0.2386
19484TIP3    H179943   5.009   1.882   5.207  1.4036  0.5384  1.3229
19484TIP3    H279944   4.878   1.953   5.232 -0.4399 -1.7426 -1.2140
19485TIP3   OH279945   3.170   2.936   5.607  0.0900  0.1357 -0.7130
19485TIP3    H179946   3.250   2.958   5.654  0.8575 -0.9800 -1.4376
19485TIP3    H279947   3.196   2.932   5.515 -0.7142 -0.5579 -0.9283
19486TIP3   OH279948   2.273   5.251  12.543  0.3924  0.5337 -0.2461
19486TIP3    H179949   2.346   5.310  12.559  0.2058  0.3894  1.2025
19486TIP3    H279950   2.242   5.274  12.455  0.4662  2.4340  0.1989
19487TIP3   OH279951   6.703   3.900   5.535  0.1319  0.5336  0.9200
19487TIP3    H179952   6.756   3.980   5.529 -0.1522  0.6536  0.0012
19487TIP3    H279953   6.674   3.898   5.627  0.1652  1.4653  0.9559
19488TIP3   OH279954   1.614   6.528  11.661  0.2762  0.1456 -0.6727
19488TIP3    H179955   1.541   6.539  11.601  0.5300  0.7636 -0.8771
19488TIP3    H279956   1.592   6.582  11.737  1.1392  1.5062 -1.3260
19489TIP3   OH279957   3.291   0.750  16.513 -0.4595  0.2790 -0.0779
19489TIP3    H179958   3.307   0.701  16.593 -1.9925 -2.4481 -1.3105
19489TIP3    H279959   3.373   0.741  16.463 -0.9613 -1.8398 -0.6125
19490TIP3   OH279960   3.235   4.829  11.717 -0.4926  0.4218  0.1864
19490TIP3    H179961   3.230   4.917  11.680 -1.3036  0.5424  0.5602
19490TIP3    H279962   3.209   4.839  11.808  0.1140 -0.0972  0.4234
19491TIP3   OH279963   2.016   0.258  13.759  0.3445 -0.2003 -0.2853
19491TIP3    H179964   2.076   0.230  13.690 -1.6728 -0.4421 -2.0388
19491TIP3    H279965   1.970   0.179  13.786 -0.7295  0.3085 -0.5540
19492TIP3   OH279966   5.548   4.836   4.724  0.3477 -0.6222 -0.1814
19492TIP3    H179967   5.579   4.926   4.732 -0.1236 -0.3072 -1.6229
19492TIP3    H279968   5.628   4.783   4.723  0.7560 -0.0270 -1.3942
19493TIP3   OH279969   6.012   2.989   1.551  0.3499 -0.8444  0.4960
19493TIP3    H179970   6.045   2.902   1.528  1.4093 -0.7780  1.6397
19493TIP3    H279971   5.942   2.973   1.614 -0.9996 -0.9291 -0.9613
19494TIP3   OH279972   5.757   2.637  10.767 -0.1154 -0.4028 -0.3971
19494TIP3    H179973   5.833   2.598  10.722  0.3217  0.2014 -0.2005
19494TIP3    H279974   5.788   2.724  10.794 -1.1767  0.2197 -1.1359
19495TIP3   OH279975   2.954   5.207   2.043  0.5727 -0.2009 -0.4512
19495TIP3    H179976   2.912   5.285   2.077  0.0865  0.0813 -1.6436
19495TIP3    H279977   3.017   5.239   1.978  0.3664 -0.7829 -0.9557
19496TIP3   OH279978   4.725   6.217   1.511 -0.4788 -0.5365  1.0275
19496TIP3    H179979   4.733   6.209   1.416 -0.7035  0.0572  0.9535
19496TIP3    H279980   4.670   6.294   1.524 -0.8365 -0.8889  1.6362
19497TIP3   OH279981   5.347   4.783   5.178  0.2733 -0.3080 -0.9742
19497TIP3    H179982   5.356   4.723   5.252 -0.4174  0.2028 -0.4608
19497TIP3    H279983   5.420   4.761   5.120 -0.1083 -1.8021 -0.9227
19498TIP3   OH279984   5.789   2.603   0.127 -0.1685  0.1386 -0.3898
19498TIP3    H179985   5.878   2.577   0.150  0.3170  3.0757  1.6269
19498TIP3    H279986   5.751   2.632   0.209 -2.5380  0.2182 -1.4472
19499TIP3   OH279987   4.560   3.466   1.841 -0.0167  0.6238  0.0596
19499TIP3    H179988   4.558   3.487   1.747 -1.9697 -0.3822 -0.1639
19499TIP3    H279989   4.573   3.550   1.884  0.2210  1.1929 -1.0733
19500TIP3   OH279990   3.943   3.620   4.131 -0.1593  0.0310 -0.9123
19500TIP3    H179991   3.999   3.558   4.178 -0.0881  0.8474  0.1175
19500TIP3    H279992   3.968   3.611   4.039  0.2332 -1.0638 -0.7131
19501TIP3   OH279993   6.704   6.582   5.868 -0.0637  0.7155  0.0556
19501TIP3    H179994   6.693   6.519   5.940  1.6146 -0.1223 -0.3524
19501TIP3    H279995   6.649   6.656   5.892 -0.2985  0.0427  1.7286
19502TIP3   OH279996   2.740   0.395  13.488  0.2066  0.1839  0.4490
19502TIP3    H179997   2.747   0.418  13.395 -2.1453  1.2695  0.4780
19502TIP3    H279998   2.711   0.303  13.487  1.2260 -0.1540  0.1708
19503TIP3   OH279999   6.735   1.746   6.053  0.5581 -0.5987 -0.1063
19503TIP3    H180000   6.776   1.689   6.118  0.0859  0.0472  0.7738
19503TIP3    H280001   6.802   1.810   6.031  0.4725 -0.3538  0.3293
19504TIP3   OH280002   5.938   4.770   2.080 -0.0056 -0.5067 -0.2768
19504TIP3    H180003   5.883   4.831   2.031  0.3273  0.7035  0.7945
19504TIP3    H280004   5.906   4.776   2.170  1.7117  0.0568  0.3307
19505TIP3   OH280005   2.285   4.961  15.739 -0.1480 -0.0952  0.2532
19505TIP3    H180006   2.259   4.999  15.823 -2.2783  1.5106 -1.0467
19505TIP3    H280007   2.348   5.023  15.703 -1.3976  0.7369 -0.5615
19506TIP3   OH280008   2.534   6.819  15.223  0.4859  0.4885 -0.4812
19506TIP3    H180009   2.443   6.827  15.253 -0.2621 -1.8921 -1.8497
19506TIP3    H280010   2.528   6.833  15.128  1.5645  0.3160 -0.5784
19507TIP3   OH280011   3.896   2.070  14.381  0.1254  0.6245 -0.1348
19507TIP3    H180012   3.834   2.087  14.452  1.1906  1.7447  0.5767
19507TIP3    H280013   3.937   1.987  14.405  0.2868  0.8648  0.4509
19508TIP3   OH280014   0.013   1.511  12.662  0.0074  0.0589  0.3418
19508TIP3    H180015  -0.057   1.514  12.596 -1.6545 -1.0048  1.9723
19508TIP3    H280016  -0.016   1.571  12.730  0.8364 -0.1964  0.9293
19509TIP3   OH280017   3.853   5.962   4.059 -0.1223 -0.0965  0.4510
19509TIP3    H180018   3.934   5.912   4.073 -0.2645 -0.3430  0.3956
19509TIP3    H280019   3.838   6.006   4.142 -0.5570 -0.9599  0.8433
19510TIP3   OH280020   5.923   0.608   3.973  0.5857  0.1713 -0.5335
19510TIP3    H180021   6.014   0.607   3.942  0.5209 -0.5997 -0.7151
19510TIP3    H280022   5.873   0.567   3.903 -0.0644  1.4852 -0.8767
19511TIP3   OH280023   3.526   3.481  12.991  0.2233  0.5875  0.0816
19511TIP3    H180024   3.511   3.572  12.963 -0.3210  0.2396 -0.7994
19511TIP3    H280025   3.558   3.437  12.912 -0.5295 -0.2313  0.2277
19512TIP3   OH280026   3.698   2.709  12.481  0.1429 -0.0183 -0.1615
19512TIP3    H180027   3.729   2.685  12.568  0.1366 -3.8276 -1.0491
19512TIP3    H280028   3.615   2.753  12.496  0.9646  0.9894  1.7565
19513TIP3   OH280029   0.695   1.464  14.505 -0.4569 -0.0706  0.5323
19513TIP3    H180030   0.771   1.517  14.479 -1.0995  0.5721 -0.0956
19513TIP3    H280031   0.649   1.446  14.423 -0.9013 -0.5898  0.8861
19514TIP3   OH280032   0.545   2.309  10.923 -0.1645 -0.4428 -0.7910
19514TIP3    H180033   0.577   2.223  10.897  2.1809  0.2537 -0.4973
19514TIP3    H280034   0.534   2.303  11.018  0.5567 -0.2795 -0.6910
19515TIP3   OH280035   4.055   6.267  16.390  0.2802  0.2438 -0.4201
19515TIP3    H180036   4.130   6.260  16.331  1.1057  0.0787  0.6323
19515TIP3    H280037   4.045   6.180  16.427  0.1866  0.5122  0.1953
19516TIP3   OH280038   5.679   5.490  15.536 -0.7174 -0.3582  0.0790
19516TIP3    H180039   5.617   5.547  15.582 -0.2417 -0.3824  0.7753
19516TIP3    H280040   5.700   5.537  15.456 -0.9532  0.0704  0.2637
19517TIP3   OH280041   0.438   3.555  13.841  0.3891 -0.2974 -0.2795
19517TIP3    H180042   0.411   3.504  13.765 -1.8912  1.2202 -0.5905
19517TIP3    H280043   0.357   3.568  13.891  1.2817  1.2387  0.8558
19518TIP3   OH280044   6.234   5.012   4.214  0.0577 -0.0032 -0.1035
19518TIP3    H180045   6.306   4.964   4.254 -0.9375  0.8905  3.0137
19518TIP3    H280046   6.274   5.091   4.177  1.1865 -1.4682 -2.2433
19519TIP3   OH280047   6.618   5.312   6.244 -0.0610  0.4081  0.5752
19519TIP3    H180048   6.708   5.344   6.235  0.5005 -1.3564 -0.7066
19519TIP3    H280049   6.608   5.249   6.172 -2.8011  1.5616 -0.1883
19520TIP3   OH280050   0.267   5.833   5.345 -0.3068  0.0687 -0.5630
19520TIP3    H180051   0.253   5.813   5.252 -0.1223  1.6562 -0.9645
19520TIP3    H280052   0.283   5.748   5.385 -2.0760 -0.8535 -1.6622
19521TIP3   OH280053   5.494   0.763  10.726 -0.0980 -0.3426  0.1397
19521TIP3    H180054   5.427   0.778  10.659  0.5207 -0.2571 -0.4622
19521TIP3    H280055   5.474   0.676  10.760  2.1321 -2.3536 -3.1952
19522TIP3   OH280056   2.158   1.055   0.506  0.5798 -0.5802  0.1234
19522TIP3    H180057   2.069   1.019   0.509  0.0399  0.7349  0.6248
19522TIP3    H280058   2.163   1.101   0.423  0.7554 -0.5705  0.1391
19523TIP3   OH280059   2.461   1.433   0.724 -0.5436 -0.2221  0.6148
19523TIP3    H180060   2.382   1.380   0.713 -0.8020  0.4173 -0.8713
19523TIP3    H280061   2.516   1.411   0.650  0.2431  0.0939  1.0880
19524TIP3   OH280062   1.486   3.201  16.947  0.1146 -0.0783  0.3083
19524TIP3    H180063   1.548   3.141  16.989  1.5424  0.0089 -1.5534
19524TIP3    H280064   1.541   3.268  16.906 -1.0722 -0.5927 -2.3616
19525TIP3   OH280065   0.407   4.898  13.746  0.3191 -0.3859  0.4441
19525TIP3    H180066   0.322   4.858  13.762 -0.3596  0.6549 -0.4541
19525TIP3    H280067   0.388   4.989  13.726  1.4612 -0.5455 -1.6955
19526TIP3   OH280068   3.457   0.869   0.077 -0.1791 -0.5293 -0.3085
19526TIP3    H180069   3.455   0.916  -0.006  0.0230  0.2528  0.1245
19526TIP3    H280070   3.404   0.923   0.136  0.2155 -0.7477  0.2466
19527TIP3   OH280071   6.490   6.605   2.801 -0.6031  0.4716 -0.3129
19527TIP3    H180072   6.426   6.628   2.869 -1.0627 -0.4001 -0.4377
19527TIP3    H280073   6.546   6.539   2.842 -0.8124  0.0239 -0.7346
19528TIP3   OH280074   1.964   3.004  13.542  0.8131  0.6931  0.1830
19528TIP3    H180075   1.936   2.913  13.540  1.3103  0.4940 -2.9772
19528TIP3    H280076   1.884   3.055  13.526  0.3732  0.9616  2.8165
19529TIP3   OH280077   1.649   3.831  12.823  0.2006  0.0490 -0.0304
19529TIP3    H180078   1.684   3.745  12.800  0.8539  0.7131 -1.6651
19529TIP3    H280079   1.673   3.888  12.749 -2.3434  1.0871 -0.1746
19530TIP3   OH280080   5.780   6.114   6.056  0.0757  0.3372 -0.4648
19530TIP3    H180081   5.856   6.135   6.111  0.3850  0.7957 -1.0499
19530TIP3    H280082   5.792   6.169   5.978 -1.4230  1.2519 -0.0891
19531TIP3   OH280083   1.623   1.555   0.649  0.0157 -0.0999 -0.8502
19531TIP3    H180084   1.575   1.619   0.702  0.9250  0.9751 -1.3097
19531TIP3    H280085   1.682   1.512   0.711 -0.6307 -0.5566 -0.5320
19532TIP3   OH280086   0.069   3.534  16.605  0.7409  0.3757 -0.2444
19532TIP3    H180087   0.043   3.451  16.564  3.7233 -0.2719 -1.0664
19532TIP3    H280088   0.006   3.546  16.677 -1.5566 -1.0483 -1.8941
19533TIP3   OH280089   2.309   5.778   4.424  0.2779  0.1280 -0.1721
19533TIP3    H180090   2.286   5.865   4.456 -1.8500  0.0721 -1.3506
19533TIP3    H280091   2.236   5.723   4.452  1.3397 -1.1769  0.0976
19534TIP3   OH280092   6.444   4.627  16.502 -0.6103  0.1437  0.1569
19534TIP3    H180093   6.533   4.590  16.495 -0.7236  0.0165 -0.7155
19534TIP3    H280094   6.433   4.679  16.423 -0.6025  1.7795  1.1858
19535TIP3   OH280095   3.479   1.526   0.756 -0.3291 -0.4195  0.3350
19535TIP3    H180096   3.557   1.559   0.801 -0.1332 -1.5120  0.8072
19535TIP3    H280097   3.500   1.436   0.733 -0.3408  0.1386 -2.1636
19536TIP3   OH280098   5.109   5.543   4.663  0.3016 -0.2911  0.3841
19536TIP3    H180099   5.135   5.455   4.690  1.1479  0.3258  1.7184
19536TIP3    H280100   5.145   5.554   4.575  0.4354 -1.1732  0.3280
19537TIP3   OH280101   6.307   5.283   0.581 -0.3026 -0.2318 -0.0324
19537TIP3    H180102   6.297   5.377   0.596 -1.7466 -0.2974 -0.3710
19537TIP3    H280103   6.380   5.257   0.637  0.1602  1.0999  0.0100
19538TIP3   OH280104   2.693   6.607  11.463 -0.0456 -0.0939 -0.0154
19538TIP3    H180105   2.704   6.597  11.369  1.0441  1.4871 -0.1005
19538TIP3    H280106   2.601   6.590  11.479  0.2767 -3.4118 -0.9014
19539TIP3   OH280107   4.393   0.546   5.377 -0.4947  0.3110  0.2146
19539TIP3    H180108   4.414   0.472   5.432 -2.2685  0.3858  1.0635
19539TIP3    H280109   4.303   0.530   5.348 -0.0606  0.9219 -1.6022
19540TIP3   OH280110   6.312   4.770  15.016 -0.2236 -0.1728 -0.4699
19540TIP3    H180111   6.252   4.835  14.979 -2.6663 -1.0994  1.5758
19540TIP3    H280112   6.323   4.706  14.946 -0.9522  0.4669 -1.1930
19541TIP3   OH280113   4.699   1.966   4.490  0.3317  0.6687 -0.2738
19541TIP3    H180114   4.754   1.888   4.476 -0.1117  0.1638  0.7186
19541TIP3    H280115   4.689   1.972   4.585 -2.3211  0.0334 -0.4360
19542TIP3   OH280116   3.060   2.495  17.192  0.1627 -0.0759 -0.1222
19542TIP3    H180117   3.118   2.550  17.244  0.3358 -0.7085  0.3611
19542TIP3    H280118   2.978   2.545  17.189  0.5614  0.5810 -0.3785
19543TIP3   OH280119   0.751   3.827   4.518  0.1446  0.1274  0.5554
19543TIP3    H180120   0.740   3.860   4.607  0.2174  2.1914 -0.1429
19543TIP3    H280121   0.846   3.832   4.503  0.1367 -0.2597  0.3733
19544TIP3   OH280122   4.295   1.485  13.881  0.5824  0.1783  0.3741
19544TIP3    H180123   4.266   1.489  13.791 -1.7699 -1.4168  0.9984
19544TIP3    H280124   4.366   1.421  13.881  0.4756  0.0572 -0.3010
19545TIP3   OH280125   1.548   6.468  14.333  0.0935 -0.3336 -0.1020
19545TIP3    H180126   1.555   6.400  14.400 -0.8086 -0.9373 -0.5945
19545TIP3    H280127   1.484   6.434  14.270 -0.5744  1.0740 -0.2377
19546TIP3   OH280128   2.593   4.642   5.003 -0.3169  0.2555 -0.3686
19546TIP3    H180129   2.585   4.597   5.086  0.7564 -0.3925 -0.6017
19546TIP3    H280130   2.656   4.712   5.019  1.8150 -1.3660 -1.1897
19547TIP3   OH280131   5.090   5.967  11.205  0.7658 -0.1964 -0.5184
19547TIP3    H180132   5.070   5.876  11.185 -1.8150  0.5574 -1.8403
19547TIP3    H280133   5.067   5.977  11.297  1.1549 -0.8867 -0.3397
19548TIP3   OH280134   2.952   2.264  14.554  0.2398 -0.1919  0.3080
19548TIP3    H180135   2.981   2.272  14.644  0.5823  0.8337  0.1224
19548TIP3    H280136   2.867   2.219  14.560 -0.5544  1.3518  1.2951
19549TIP3   OH280137   6.088   5.856  14.052  0.3643  0.2252  0.1512
19549TIP3    H180138   6.083   5.849  14.147 -0.3785  2.3173  0.3111
19549TIP3    H280139   6.078   5.766  14.021  2.1877 -0.7220  2.0578
19550TIP3   OH280140   6.535   0.128  15.735  0.0096  0.1158 -0.5509
19550TIP3    H180141   6.453   0.142  15.783 -0.3023  0.6076 -1.2148
19550TIP3    H280142   6.508   0.094  15.650  0.5646 -0.8365 -0.3556
19551TIP3   OH280143   3.279   1.984   3.935 -0.0871 -0.7465  0.6412
19551TIP3    H180144   3.348   1.977   4.001  0.7378 -1.3258 -0.2585
19551TIP3    H280145   3.264   1.895   3.905  0.4067 -0.3865 -0.7879
19552TIP3   OH280146   0.364   0.511  11.982  0.0109  0.3133 -0.8110
19552TIP3    H180147   0.343   0.448  11.913 -3.5323  0.5362 -0.1609
19552TIP3    H280148   0.310   0.484  12.057  3.3725  0.3242  1.8605
19553TIP3   OH280149   2.743   5.761  12.132 -1.0301 -0.4391 -0.4291
19553TIP3    H180150   2.676   5.786  12.195  1.3124  1.2102  1.5966
19553TIP3    H280151   2.770   5.673  12.158  0.6508  0.6183  1.6921
19554TIP3   OH280152   0.410   5.730  11.078 -0.3000 -0.2259 -0.0916
19554TIP3    H180153   0.392   5.639  11.059  0.7911 -0.3944 -0.3623
19554TIP3    H280154   0.458   5.763  11.002 -0.1626  0.4113  0.2567
19555TIP3   OH280155   2.479   6.673   4.933  0.4197 -0.3166  0.0372
19555TIP3    H180156   2.457   6.583   4.956  1.2529 -0.6813 -0.5350
19555TIP3    H280157   2.416   6.726   4.981 -0.7931 -1.2494 -0.4957
19556TIP3   OH280158   5.381   1.873   2.076  0.3131  0.1821  0.3758
19556TIP3    H180159   5.407   1.801   2.133 -2.9251 -0.4359  1.2440
19556TIP3    H280160   5.342   1.937   2.135  0.6526  1.4491 -0.7248
19557TIP3   OH280161   1.791   3.619  16.341 -0.6209 -0.1757  0.4950
19557TIP3    H180162   1.733   3.602  16.415  0.9343 -2.3208  1.2983
19557TIP3    H280163   1.854   3.683  16.374 -0.4560 -0.4718  0.7591
19558TIP3   OH280164   2.660   5.973   6.002 -0.2679 -0.2832  0.0866
19558TIP3    H180165   2.664   5.884   6.037  1.4675  0.0276  0.7483
19558TIP3    H280166   2.577   6.007   6.035  0.2153 -0.8111  1.9532
19559TIP3   OH280167   3.389   3.801   3.401  0.5939  0.0459 -0.5925
19559TIP3    H180168   3.460   3.828   3.344  0.0154 -0.1985 -1.4541
19559TIP3    H280169   3.365   3.879   3.449 -1.1808  1.2230 -3.1635
19560TIP3   OH280170   0.397   4.629   4.607  0.0795 -0.1791  0.1135
19560TIP3    H180171   0.306   4.606   4.590 -0.2721  1.4935 -0.5462
19560TIP3    H280172   0.441   4.546   4.627 -1.2776 -1.1848 -0.9518
19561TIP3   OH280173   3.190   3.612  11.550  0.2949 -0.1150  0.2102
19561TIP3    H180174   3.190   3.683  11.486 -0.5131  0.1814  0.5299
19561TIP3    H280175   3.210   3.533  11.499  2.1015  0.4485 -0.0072
19562TIP3   OH280176   1.936   5.474  16.251  0.6121 -0.0939  0.2304
19562TIP3    H180177   1.849   5.457  16.216  1.1962  1.6881 -2.4395
19562TIP3    H280178   1.927   5.553  16.303  0.7184  0.4949 -0.6250
19563TIP3   OH280179   6.764   5.743   0.001  0.1939 -0.0549  0.2177
19563TIP3    H180180   6.675   5.773   0.021  0.2314  0.2250 -0.0245
19563TIP3    H280181   6.765   5.651   0.029  0.1791  0.2592  1.2978
19564TIP3   OH280182   2.307   0.589  16.321  0.3034 -0.2772 -0.1763
19564TIP3    H180183   2.219   0.555  16.308  0.0746  0.2466 -0.0192
19564TIP3    H280184   2.350   0.524  16.377  0.6788 -1.5584 -1.8806
19565TIP3   OH280185   0.726   2.168   1.575 -0.6227 -0.1629  0.0801
19565TIP3    H180186   0.769   2.221   1.641 -0.1424  1.2267 -1.3028
19565TIP3    H280187   0.750   2.078   1.597  0.1237  0.3230  1.3369
19566TIP3   OH280188   0.598   5.743   6.399  0.0613  0.1649 -0.4329
19566TIP3    H180189   0.656   5.741   6.323  0.1176  0.8726 -0.4166
19566TIP3    H280190   0.613   5.829   6.438 -0.1552 -0.0952  0.2342
19567TIP3   OH280191   2.602   1.137  16.710 -0.1503 -0.0932 -0.4306
19567TIP3    H180192   2.534   1.099  16.766  0.7871 -3.5292 -1.3873
19567TIP3    H280193   2.604   1.081  16.633  2.9360  0.6100 -0.9843
19568TIP3   OH280194   6.439   2.667   5.211 -0.9706 -0.5213  0.5217
19568TIP3    H180195   6.498   2.623   5.150  0.2233  0.0539  1.2344
19568TIP3    H280196   6.440   2.613   5.290 -1.1907 -0.3648  0.6353
19569TIP3   OH280197   5.780   0.472   5.800  0.2797  0.1713 -0.1048
19569TIP3    H180198   5.789   0.414   5.875  0.2733 -0.4675 -0.5864
19569TIP3    H280199   5.731   0.547   5.833  0.3827 -0.0479  0.5568
19570TIP3   OH280200   4.617   1.587  14.566 -1.0538 -0.0160  0.2722
19570TIP3    H180201   4.644   1.571  14.656 -2.6339 -0.1928  0.7454
19570TIP3    H280202   4.593   1.501  14.532 -0.7849  0.0957 -0.2149
19571TIP3   OH280203   3.862   6.041  15.290  0.6947  0.3726  0.4311
19571TIP3    H180204   3.831   6.083  15.371  0.4128  0.3439  0.3403
19571TIP3    H280205   3.856   6.109  15.224  1.7753  0.6639  0.6103
19572TIP3   OH280206   6.178   0.775   4.237  0.3886  0.0321  0.6502
19572TIP3    H180207   6.132   0.795   4.155  1.1744  0.5557  0.3219
19572TIP3    H280208   6.126   0.706   4.278 -0.3356  0.1712 -0.0101
19573TIP3   OH280209   6.553   4.196  13.668  0.2442  0.3492 -0.1051
19573TIP3    H180210   6.642   4.177  13.698  0.1598  0.6927  0.3723
19573TIP3    H280211   6.565   4.251  13.591  0.4760 -1.0475 -1.1009
19574TIP3   OH280212   2.188   0.151   2.254 -0.4151  0.0923  0.5129
19574TIP3    H180213   2.133   0.126   2.328 -0.3103 -0.2744  0.4717
19574TIP3    H280214   2.128   0.188   2.190 -0.1271  3.8792  2.1886
19575TIP3   OH280215   3.691   4.157  14.335  1.0608 -0.6588  0.1979
19575TIP3    H180216   3.638   4.121  14.264  1.0236 -0.1622 -0.0319
19575TIP3    H280217   3.764   4.199  14.290  0.5495  0.4746  0.4027
19576TIP3   OH280218   0.740   3.830   2.966  0.3465 -0.3481 -0.2849
19576TIP3    H180219   0.741   3.907   3.024 -0.3584 -0.8098  0.3496
19576TIP3    H280220   0.785   3.860   2.887  0.1558  0.6967 -0.0176
19577TIP3   OH280221   6.185   1.293   4.152 -0.2516  0.0298 -0.3022
19577TIP3    H180222   6.170   1.284   4.246  0.6753 -3.2608 -0.3103
19577TIP3    H280223   6.122   1.233   4.112  1.3257 -0.9430 -1.4840
19578TIP3   OH280224   1.668   5.959   5.524 -0.2322 -0.8291  0.0544
19578TIP3    H180225   1.753   5.916   5.533  0.6066  0.6312 -0.5197
19578TIP3    H280226   1.672   6.004   5.439 -1.5249 -0.6267  0.0739
19579TIP3   OH280227   4.111   1.441   1.625 -0.1564 -0.2855 -0.2788
19579TIP3    H180228   4.016   1.428   1.617 -0.5079  1.8610 -0.1121
19579TIP3    H280229   4.128   1.438   1.719  0.2040 -2.1120 -0.3763
19580TIP3   OH280230   3.216   5.545  12.449  0.1205  0.4547  0.7721
19580TIP3    H180231   3.121   5.538  12.458 -0.0469  1.5710  0.0553
19580TIP3    H280232   3.250   5.466  12.492 -1.1283 -0.0426  0.8941
19581TIP3   OH280233   5.180   4.665   1.723 -0.3005  0.6646  0.0159
19581TIP3    H180234   5.130   4.585   1.741  0.0873  0.4085 -0.0301
19581TIP3    H280235   5.119   4.736   1.744  0.1350  0.4104  2.5750
19582TIP3   OH280236   2.982   5.349  12.041 -0.5268  0.2220 -0.0135
19582TIP3    H180237   3.059   5.407  12.040  1.4781 -2.2936 -0.5283
19582TIP3    H280238   2.922   5.391  12.102  1.5240  1.9590  0.9468
19583TIP3   OH280239   6.195   4.996  11.783  0.3720 -0.6230 -0.2304
19583TIP3    H180240   6.166   4.965  11.697  0.7015 -0.2761 -0.4728
19583TIP3    H280241   6.137   5.069  11.803  0.3597 -0.6393 -0.2083
19584TIP3   OH280242   0.170   6.775  15.760  0.4949  0.0500 -0.4629
19584TIP3    H180243   0.145   6.756  15.850  0.2114  0.9428 -0.3359
19584TIP3    H280244   0.216   6.859  15.765  1.5684 -0.4861 -1.0004
19585TIP3   OH280245   6.675   5.305  16.702  0.0094 -0.2547  0.1855
19585TIP3    H180246   6.597   5.273  16.748 -0.2209  0.6019  0.4120
19585TIP3    H280247   6.684   5.396  16.730 -0.7773  0.6669 -2.2594
19586TIP3   OH280248   5.942   0.148  14.668 -0.2464 -0.4851  0.1797
19586TIP3    H180249   5.898   0.089  14.606 -0.8937  0.3504 -0.1742
19586TIP3    H280250   5.943   0.099  14.751 -1.4049 -0.7256  0.0668
19587TIP3   OH280251   5.417   6.264  13.105  0.2441 -0.7228 -0.0715
19587TIP3    H180252   5.369   6.339  13.142  0.0132 -1.0191  0.2351
19587TIP3    H280253   5.388   6.259  13.014 -1.6937 -1.9866  0.5456
19588TIP3   OH280254   1.076   4.789  17.086 -0.0048  0.3718 -0.0938
19588TIP3    H180255   0.991   4.802  17.129 -0.7154 -0.7815 -1.0896
19588TIP3    H280256   1.132   4.753  17.155 -0.5093  0.5110  0.3998
19589TIP3   OH280257   4.870   2.646  15.279  0.1064  0.1503  0.5350
19589TIP3    H180258   4.776   2.655  15.267  0.0653  2.2419  1.9738
19589TIP3    H280259   4.896   2.580  15.215 -2.3478 -0.6463  0.2674
19590TIP3   OH280260   6.071   6.254   0.635 -0.6357  0.0827 -0.6686
19590TIP3    H180261   6.001   6.314   0.661 -0.0217  0.7694 -0.5643
19590TIP3    H280262   6.136   6.261   0.706 -0.7716 -1.0844 -0.3998
19591TIP3   OH280263   1.177   6.611  12.344  0.1481  0.2067  0.3011
19591TIP3    H180264   1.135   6.665  12.412 -0.9110 -0.3532  0.1190
19591TIP3    H280265   1.157   6.656  12.262 -1.4370 -0.8519  0.0721
19592TIP3   OH280266   5.094   4.245  15.816  0.0949 -0.4032 -0.0008
19592TIP3    H180267   5.042   4.236  15.895 -2.0294  2.9269 -0.8055
19592TIP3    H280268   5.174   4.291  15.844  0.4217 -1.2542  0.4979
19593TIP3   OH280269   5.808   2.102   0.535 -0.4756 -0.3163  0.5543
19593TIP3    H180270   5.830   2.171   0.472 -0.2132  0.5830  1.5864
19593TIP3    H280271   5.712   2.095   0.530 -0.3191 -1.6676 -1.3377
19594TIP3   OH280272   6.505   3.057  14.992  0.8023  0.0018 -0.6058
19594TIP3    H180273   6.434   3.001  15.024  0.2174 -0.7251 -2.9858
19594TIP3    H280274   6.512   3.127  15.058 -0.3286 -1.3232  1.0135
19595TIP3   OH280275   1.390   1.811   4.034  0.1597 -0.1399 -0.4865
19595TIP3    H180276   1.420   1.877   3.971 -0.6159  1.0779  0.3544
19595TIP3    H280277   1.306   1.782   4.000 -0.4294  0.7819  0.1339
19596TIP3   OH280278   6.818   6.584  12.007 -0.0876 -0.1971  0.2491
19596TIP3    H180279   6.741   6.576  11.952 -1.2915  3.3236  1.1707
19596TIP3    H280280   6.788   6.557  12.094  1.0474 -3.0032 -0.1033
19597TIP3   OH280281   3.140   4.182   1.162 -0.3855 -0.3558 -0.3220
19597TIP3    H180282   3.123   4.141   1.077 -1.0140  0.0133 -0.3856
19597TIP3    H280283   3.053   4.209   1.192 -0.1863 -0.6309  0.5137
19598TIP3   OH280284   0.652   2.844  11.679  0.1402 -0.0776 -0.4744
19598TIP3    H180285   0.665   2.815  11.769  3.0995  0.2975 -0.6771
19598TIP3    H280286   0.635   2.763  11.630  0.0855 -0.4681  0.1764
19599TIP3   OH280287   0.999   3.949  12.121 -0.1911  0.3088  0.0964
19599TIP3    H180288   1.016   4.042  12.139  1.1803  0.1351 -0.1789
19599TIP3    H280289   1.079   3.918  12.079 -0.9732 -0.7985 -0.6293
19600TIP3   OH280290   5.963   2.782   2.952 -0.4361  0.4033  0.3442
19600TIP3    H180291   5.871   2.799   2.971 -0.0474  0.1949  2.7476
19600TIP3    H280292   6.011   2.830   3.019  1.3871  2.2751 -2.1022
19601TIP3   OH280293   4.447   0.349  15.892  0.1290 -0.2708  0.5988
19601TIP3    H180294   4.402   0.429  15.865 -0.2895 -1.2103 -1.7195
19601TIP3    H280295   4.490   0.318  15.813  0.9454 -1.9349  1.6397
19602TIP3   OH280296   3.768   3.092  12.779 -0.1979 -0.4045 -0.3721
19602TIP3    H180297   3.791   3.183  12.797  0.2924 -0.5653 -0.1853
19602TIP3    H280298   3.775   3.048  12.864 -0.5136 -0.6010 -0.4454
19603TIP3   OH280299   5.952   6.290   5.430 -0.1653  0.2977 -0.0249
19603TIP3    H180300   5.877   6.242   5.466 -0.9781  1.9990  0.6886
19603TIP3    H280301   6.002   6.225   5.382 -1.4109 -1.1622  0.5820
19604TIP3   OH280302   5.550   3.556  15.740  0.0458  0.2022  0.1669
19604TIP3    H180303   5.460   3.560  15.710  0.4419  0.3979 -1.0436
19604TIP3    H280304   5.566   3.463  15.757 -0.6609  0.2775  1.3174
19605TIP3   OH280305   4.474   3.378   1.297 -0.3456 -0.5010  0.0288
19605TIP3    H180306   4.469   3.283   1.304  0.9392 -0.6881 -1.2383
19605TIP3    H280307   4.385   3.408   1.314 -0.4330 -1.7838  2.1449
19606TIP3   OH280308   2.207   3.397   0.792  0.1553  0.1933 -0.1809
19606TIP3    H180309   2.112   3.387   0.781  0.0509 -0.0027  0.7802
19606TIP3    H280310   2.220   3.491   0.807  0.3106  0.4783 -1.9231
19607TIP3   OH280311   0.320   3.652  14.205  0.3553  0.2936  0.2343
19607TIP3    H180312   0.354   3.739  14.223 -0.7501  0.3659  2.1667
19607TIP3    H280313   0.323   3.645  14.109  1.0828  2.1706  0.0758
19608TIP3   OH280314   3.418   0.307  15.535  0.1325  0.6912  0.5035
19608TIP3    H180315   3.328   0.328  15.511  0.0821 -1.1744 -1.2281
19608TIP3    H280316   3.410   0.266  15.622 -0.8295 -0.2354  0.0074
19609TIP3   OH280317   2.536   5.605  16.795 -0.7086 -0.3013  0.0356
19609TIP3    H180318   2.516   5.554  16.874  0.2804  0.6609  0.9343
19609TIP3    H280319   2.572   5.687  16.828  0.9650 -0.3870 -1.4283
19610TIP3   OH280320   5.273   3.028   1.041 -0.4368 -0.4310  0.2482
19610TIP3    H180321   5.184   2.997   1.025  0.1076 -1.3270 -1.2302
19610TIP3    H280322   5.325   2.949   1.047  0.1785  0.0619  1.8184
19611TIP3   OH280323   4.416   1.375   2.072  0.3877 -0.1160  0.6849
19611TIP3    H180324   4.432   1.282   2.089  2.3811  0.0483  0.0383
19611TIP3    H280325   4.503   1.414   2.074 -0.3494  1.6216  0.2275
19612TIP3   OH280326   0.718   0.720  12.579 -0.1622 -0.1644  0.3702
19612TIP3    H180327   0.628   0.753  12.570  0.2714  0.9628 -0.0708
19612TIP3    H280328   0.741   0.689  12.492  0.1691  0.3731  0.2585
19613TIP3   OH280329   4.667   5.351  12.237  0.0805 -0.1904  0.2641
19613TIP3    H180330   4.675   5.350  12.333  2.1807 -0.6503  0.1337
19613TIP3    H280331   4.633   5.264  12.215 -0.0088 -0.2314  0.5577
19614TIP3   OH280332   4.847   3.505  10.535 -0.0457 -0.3571  0.7667
19614TIP3    H180333   4.906   3.454  10.590 -0.2747 -0.7755  0.6282
19614TIP3    H280334   4.760   3.482  10.566 -0.1514 -0.0916  0.6645
19615TIP3   OH280335   5.174   6.043  15.493  0.4473  0.3666  0.5357
19615TIP3    H180336   5.210   6.039  15.404 -2.7939 -1.0194 -0.8662
19615TIP3    H280337   5.127   6.125  15.496 -2.9255 -1.3306 -0.6911
19616TIP3   OH280338   0.787   1.754  14.434  0.3898  0.7571  0.0967
19616TIP3    H180339   0.700   1.762  14.395  0.1648 -1.6858 -0.0852
19616TIP3    H280340   0.775   1.780  14.526 -0.5031  0.5818  0.0380
19617TIP3   OH280341   1.277   1.022  15.157  0.5018 -0.0199  0.5543
19617TIP3    H180342   1.298   0.954  15.093  0.2807 -0.4863  0.9677
19617TIP3    H280343   1.228   1.087  15.108  0.0227 -0.5458  0.3178
19618TIP3   OH280344   1.637   1.340   3.376  0.0468 -0.6645 -0.0757
19618TIP3    H180345   1.556   1.325   3.424 -0.2862  0.0770 -0.3869
19618TIP3    H280346   1.706   1.309   3.434 -0.4793 -1.7325  0.0020
19619TIP3   OH280347   0.108   0.826   1.196 -0.0396  0.5717 -0.4452
19619TIP3    H180348   0.068   0.860   1.276  0.2225  2.3408 -1.0158
19619TIP3    H280349   0.063   0.871   1.125 -0.1557 -0.8488 -1.3167
19620TIP3   OH280350   1.611   6.487   5.859 -0.4337  0.2575  0.1454
19620TIP3    H180351   1.676   6.501   5.791 -1.0905 -0.8710 -0.7500
19620TIP3    H280352   1.658   6.500   5.941  0.8516 -0.2547 -0.4847
19621TIP3   OH280353   2.589   2.163   6.003  0.2058  0.4829  0.3120
19621TIP3    H180354   2.634   2.084   6.033 -1.6816 -0.7794 -0.0294
19621TIP3    H280355   2.537   2.134   5.928 -1.0443  1.8852  0.5901
19622TIP3   OH280356   5.630   6.455  14.680  0.1317 -0.1539 -0.0929
19622TIP3    H180357   5.543   6.480  14.712  0.2558 -0.9722  0.9381
19622TIP3    H280358   5.615   6.420  14.593 -0.5155  0.1362 -0.0991
19623TIP3   OH280359   1.386   0.662  11.742 -0.3249  0.1125 -0.7292
19623TIP3    H180360   1.470   0.629  11.775 -1.3803 -1.1238  0.8606
19623TIP3    H280361   1.394   0.757  11.746  1.7660  0.1230 -2.7090
19624TIP3   OH280362   0.952   0.083  13.554  0.0146 -0.3601  0.3578
19624TIP3    H180363   0.962  -0.004  13.517 -2.0269  0.3839 -2.2540
19624TIP3    H280364   0.923   0.067  13.644  0.0021 -2.3645  0.0462
19625TIP3   OH280365   3.627   1.047  14.728  0.2022 -0.0018 -0.5427
19625TIP3    H180366   3.721   1.051  14.710  0.3301  1.5310  0.3371
19625TIP3    H280367   3.613   1.112  14.797 -1.5767  0.0858 -0.9517
19626TIP3   OH280368   6.183   4.894  13.208  0.0155  1.1767  0.4433
19626TIP3    H180369   6.104   4.841  13.219  0.1517  0.9151  0.1779
19626TIP3    H280370   6.151   4.983  13.196 -0.1833  1.2938  1.7324
19627TIP3   OH280371   3.470   3.204   3.549 -0.0439  0.2681  0.2777
19627TIP3    H180372   3.430   3.117   3.547 -1.6887  0.9766 -1.6749
19627TIP3    H280373   3.402   3.261   3.584  0.4863  0.9851  0.1750
19628TIP3   OH280374   5.561   4.712   4.042 -0.2117  0.2999  0.0261
19628TIP3    H180375   5.552   4.618   4.057 -1.0128  0.4568  0.6137
19628TIP3    H280376   5.472   4.741   4.022  0.1269  0.8370 -0.7567
19629TIP3   OH280377   6.238   3.571  12.723  0.0850  0.2637 -0.1179
19629TIP3    H180378   6.253   3.559  12.817 -0.8660  1.3154  0.1898
19629TIP3    H280379   6.323   3.555  12.683 -0.0754 -3.1276  0.5931
19630TIP3   OH280380   3.283   4.222   3.417  0.1821  0.5138  0.3623
19630TIP3    H180381   3.302   4.316   3.416  1.9723  0.2167  1.5387
19630TIP3    H280382   3.236   4.209   3.500 -1.2677  0.5515 -0.4321
19631TIP3   OH280383   3.951   2.422  15.853 -0.1776 -0.3477 -0.1107
19631TIP3    H180384   3.960   2.498  15.795 -2.0600 -1.1419 -1.5573
19631TIP3    H280385   4.040   2.391  15.866  0.3988  0.4828 -1.7512
19632TIP3   OH280386   5.694   4.850  13.444 -0.3654  0.1680 -0.4235
19632TIP3    H180387   5.602   4.863  13.466 -0.1247  0.6926  0.3187
19632TIP3    H280388   5.737   4.932  13.469  0.8590 -1.2060  2.4031
19633TIP3   OH280389   4.475   4.231   0.548 -0.0008 -0.0725  0.3280
19633TIP3    H180390   4.454   4.265   0.635  1.4856  0.1894  0.6001
19633TIP3    H280391   4.496   4.139   0.563 -0.2764 -0.1643  0.1573
19634TIP3   OH280392   2.197   3.009   1.793  0.3139  0.2718  0.2119
19634TIP3    H180393   2.102   3.016   1.805  0.3612 -0.0184  0.7930
19634TIP3    H280394   2.229   3.098   1.800 -0.1284  0.6719 -2.0387
19635TIP3   OH280395   4.657   3.818  14.680 -0.9433 -0.3457 -0.0559
19635TIP3    H180396   4.730   3.760  14.704 -0.5751 -0.4361 -1.3190
19635TIP3    H280397   4.691   3.870  14.607 -2.0180 -0.1098 -0.4051
19636TIP3   OH280398   5.324   6.304  15.013 -0.2689  0.2071  0.1934
19636TIP3    H180399   5.396   6.311  14.950 -1.4875 -0.2274 -1.3087
19636TIP3    H280400   5.283   6.220  14.994 -0.5883  0.0009  1.6912
19637TIP3   OH280401   0.781   1.710   1.957  0.7791 -0.1523 -0.0690
19637TIP3    H180402   0.869   1.705   1.995  0.1920 -1.0370  1.2511
19637TIP3    H280403   0.778   1.636   1.896  0.7052 -0.5478  0.4160
19638TIP3   OH280404   6.144   3.197  14.419 -0.4749  0.1280  0.2353
19638TIP3    H180405   6.077   3.254  14.383  1.1335  1.5378 -0.6766
19638TIP3    H280406   6.156   3.229  14.509 -0.6563  0.2021  0.2336
19639TIP3   OH280407   5.255   5.554  15.262  0.1636  0.7930 -0.2762
19639TIP3    H180408   5.184   5.594  15.211  1.0083 -0.3433 -2.4940
19639TIP3    H280409   5.214   5.479  15.305 -0.1715  0.6270 -0.8671
19640TIP3   OH280410   5.045   2.158   1.608  0.5975  0.1559 -0.1417
19640TIP3    H180411   5.116   2.155   1.672 -0.7846 -0.2237  1.4774
19640TIP3    H280412   4.979   2.098   1.643 -0.3336  0.1367 -1.8169
19641TIP3   OH280413   1.461   4.354  14.481 -0.4455  0.1520  0.3440
19641TIP3    H180414   1.506   4.432  14.513  1.2744 -0.6695  0.0448
19641TIP3    H280415   1.424   4.381  14.397 -1.7264  1.2180  1.1946
19642TIP3   OH280416   1.628   1.095  10.975 -0.2012  0.0336  0.3402
19642TIP3    H180417   1.707   1.079  11.027 -0.2212 -0.1686  0.3114
19642TIP3    H280418   1.600   1.008  10.947  0.3016  0.1982 -0.7271
19643TIP3   OH280419   4.579   6.264   3.308 -0.1019 -0.1408  0.3368
19643TIP3    H180420   4.587   6.296   3.397  0.7692 -0.5023  0.3997
19643TIP3    H280421   4.486   6.242   3.298  0.1783 -2.4505  1.9797
19644TIP3   OH280422   1.271   3.144  11.762  0.4428 -0.5972 -0.5595
19644TIP3    H180423   1.257   3.057  11.725 -1.5750  0.2255 -1.8879
19644TIP3    H280424   1.363   3.164  11.743  0.6309 -1.9762 -1.2212
19645TIP3   OH280425   2.185   2.499   5.771 -0.3036 -0.1374  0.0886
19645TIP3    H180426   2.092   2.485   5.754  0.0447 -0.6678 -1.5042
19645TIP3    H280427   2.222   2.411   5.771  0.5369  0.1803 -1.4824
19646TIP3   OH280428   3.694   6.244  12.632  0.3965  0.6083 -0.2697
19646TIP3    H180429   3.756   6.312  12.606  0.3892  0.4446 -0.7345
19646TIP3    H280430   3.673   6.198  12.550  1.4986 -0.8855  0.2401
19647TIP3   OH280431   4.679   0.746  16.153 -0.5006 -0.6297  0.1747
19647TIP3    H180432   4.731   0.711  16.081 -1.6424 -0.7671 -0.6073
19647TIP3    H280433   4.687   0.680  16.222 -1.1134 -1.5491 -0.6023
19648TIP3   OH280434   1.254   3.013  15.084  0.4347  0.4070  0.0783
19648TIP3    H180435   1.243   2.949  15.154  1.2608 -0.1978 -0.3288
19648TIP3    H280436   1.243   2.963  15.004  0.8718  0.8107 -0.2426
19649TIP3   OH280437   3.394   6.314  16.013 -0.2510  0.4972  0.9353
19649TIP3    H180438   3.345   6.253  16.068  1.0688 -0.2057  1.3888
19649TIP3    H280439   3.446   6.366  16.075  3.0911 -1.8798  0.4445
19650TIP3   OH280440   3.417   3.972  14.902  0.1105  0.0212 -0.8714
19650TIP3    H180441   3.365   4.025  14.842 -1.7056 -0.0261  0.5404
19650TIP3    H280442   3.449   4.034  14.968  1.6865  0.0048 -1.5914
19651TIP3   OH280443   6.016   4.749   3.312  0.1230 -0.4873  0.0510
19651TIP3    H180444   5.989   4.711   3.395  1.2089 -0.0600  0.6186
19651TIP3    H280445   6.045   4.675   3.260 -3.1241 -1.1675 -1.0691
19652TIP3   OH280446   2.416   2.865   2.785  0.2661  0.1375 -0.1230
19652TIP3    H180447   2.361   2.944   2.792 -0.6663 -0.5250  0.1966
19652TIP3    H280448   2.402   2.819   2.868 -0.2700 -1.0505 -0.8477
19653TIP3   OH280449   4.688   1.875   3.494 -0.6865  0.5604 -0.0560
19653TIP3    H180450   4.712   1.885   3.402 -0.7582 -2.2497 -0.4510
19653TIP3    H280451   4.749   1.933   3.541 -1.3937  2.9513 -1.8681
19654TIP3   OH280452   5.989   6.264  15.300 -0.1199 -0.0439 -0.1579
19654TIP3    H180453   5.996   6.172  15.275 -0.5560  0.1006 -0.8342
19654TIP3    H280454   6.024   6.267  15.389  1.4275 -0.5742 -0.7165
19655TIP3   OH280455   4.498   4.526  16.861 -0.6910 -0.2495  0.6669
19655TIP3    H180456   4.425   4.560  16.809  0.9803  2.2137 -0.2072
19655TIP3    H280457   4.489   4.570  16.946  0.5007  1.1399  0.1040
19656TIP3   OH280458   1.231   3.642  14.417 -0.6457 -0.0977 -0.1545
19656TIP3    H180459   1.156   3.666  14.362 -0.7561  2.5883  1.0052
19656TIP3    H280460   1.192   3.607  14.497 -0.5975 -0.5459 -0.3259
19657TIP3   OH280461   1.509   3.764  13.712  0.1128  0.2297 -0.4145
19657TIP3    H180462   1.571   3.771  13.784 -0.2527 -1.4063  0.1049
19657TIP3    H280463   1.424   3.781  13.752 -0.0177  0.0240 -0.5985
19658TIP3   OH280464   2.306   2.037  11.219 -0.6007  0.1145 -0.3846
19658TIP3    H180465   2.306   2.130  11.197 -2.7541  0.1126 -0.6775
19658TIP3    H280466   2.398   2.013  11.224 -0.0016  1.9982 -1.4010
19659TIP3   OH280467   3.746   5.114  16.071  0.0155 -0.1737 -0.4721
19659TIP3    H180468   3.685   5.049  16.037  0.3724 -0.0942 -1.2884
19659TIP3    H280469   3.789   5.150  15.994  0.8575  0.0164  0.0626
19660TIP3   OH280470   1.639   2.116   6.472  0.3293  0.2161  0.0214
19660TIP3    H180471   1.600   2.170   6.403 -0.1911  0.5935  0.6067
19660TIP3    H280472   1.565   2.072   6.513  0.6033  0.2381  0.5482
19661TIP3   OH280473   1.170   0.755  16.054  0.2570 -0.4520  0.3938
19661TIP3    H180474   1.157   0.848  16.038  2.0495 -0.5309 -2.1403
19661TIP3    H280475   1.111   0.712  15.992  0.8583 -0.9546  0.1577
19662TIP3   OH280476   3.411   5.102  16.732  0.6041 -0.2646 -0.1649
19662TIP3    H180477   3.455   5.019  16.749  0.4707 -0.2566  0.2340
19662TIP3    H280478   3.332   5.078  16.684 -0.4705 -0.5958  1.6462
19663TIP3   OH280479   1.249   3.553   3.714  0.7486 -0.4588 -0.1239
19663TIP3    H180480   1.312   3.510   3.772  1.2547 -0.4148 -0.6370
19663TIP3    H280481   1.242   3.495   3.638  0.9746  0.0567 -0.5465
19664TIP3   OH280482   0.493   0.249  13.715  0.2189  0.5609  0.2987
19664TIP3    H180483   0.487   0.288  13.802 -1.0567  0.4556  0.2697
19664TIP3    H280484   0.437   0.304  13.660  0.2534  0.0539 -0.2526
19665TIP3   OH280485   4.877   0.886  15.009  0.6320  0.0442  0.1791
19665TIP3    H180486   4.896   0.946  14.937  1.6090 -0.3991  0.0531
19665TIP3    H280487   4.883   0.940  15.088  2.2577 -0.0205  0.1250
19666TIP3   OH280488   2.444   1.289  11.435  0.8185 -0.4599  0.0920
19666TIP3    H180489   2.469   1.238  11.512  0.3450  0.9707  1.2332
19666TIP3    H280490   2.527   1.321  11.400  0.9752 -0.4173  0.5011
19667TIP3   OH280491   0.061   4.798   6.654 -0.1099 -0.3896  0.1677
19667TIP3    H180492   0.002   4.730   6.685  1.2516 -1.3996  0.6335
19667TIP3    H280493   0.145   4.754   6.644  0.3796  0.7958 -1.3384
19668TIP3   OH280494   0.931   5.393  10.611 -0.5028 -0.3158 -0.6000
19668TIP3    H180495   1.019   5.430  10.616 -0.3150 -0.9507  1.9901
19668TIP3    H280496   0.875   5.459  10.654 -0.8588 -1.0232  0.0513
19669TIP3   OH280497   0.116   4.220   4.505 -0.5603  0.1745 -0.2503
19669TIP3    H180498   0.126   4.301   4.455  0.2832 -0.9496 -2.0297
19669TIP3    H280499   0.118   4.151   4.438  1.0788 -1.4566  1.3787
19670TIP3   OH280500   3.906   5.360   0.682 -0.8313  0.4494  0.2363
19670TIP3    H180501   3.857   5.328   0.759 -2.2189  1.2564 -0.2680
19670TIP3    H280502   3.839   5.368   0.614  0.3592 -0.1232 -1.0274
19671TIP3   OH280503   4.664   3.290   2.910  0.1989  0.0116  0.2037
19671TIP3    H180504   4.621   3.373   2.888  1.0856  0.4528  0.0963
19671TIP3    H280505   4.600   3.223   2.887 -0.1882  0.6223 -0.5421
19672TIP3   OH280506   6.117   5.629   0.309 -0.5598  0.0805  0.0151
19672TIP3    H180507   6.078   5.685   0.242 -2.4157  1.5002  2.1267
19672TIP3    H280508   6.179   5.685   0.356 -1.0214 -0.1729  0.9593
19673TIP3   OH280509   2.947   5.001   5.012 -0.4698  0.0387 -0.0183
19673TIP3    H180510   2.911   5.075   4.962 -0.1253 -0.6449 -1.3249
19673TIP3    H280511   3.022   5.038   5.058 -1.1409  0.8233  0.4974
19674TIP3   OH280512   3.050   4.360   6.019  0.6718  0.4326  0.0924
19674TIP3    H180513   3.046   4.455   6.030 -0.0246  0.2748  1.4239
19674TIP3    H280514   3.004   4.343   5.937  0.6074  1.2274 -0.0412
19675TIP3   OH280515   5.011   3.258   1.222 -0.3072  0.1756 -0.0922
19675TIP3    H180516   5.011   3.233   1.130  1.6857  0.8865 -0.3329
19675TIP3    H280517   4.952   3.333   1.227 -0.4055  0.1447 -0.8003
19676TIP3   OH280518   6.046   0.511   5.804 -0.0210 -0.2469 -0.1312
19676TIP3    H180519   5.971   0.480   5.753  0.5689 -0.9032 -0.6125
19676TIP3    H280520   6.116   0.448   5.785  0.7201  0.4775  0.1441
19677TIP3   OH280521   3.881   0.663  16.513 -0.0924  0.1440  0.0941
19677TIP3    H180522   3.789   0.642  16.499 -0.3316  1.3316 -0.2534
19677TIP3    H280523   3.879   0.745  16.563  0.7767 -0.8177  1.8008
19678TIP3   OH280524   3.714   4.425   5.034  0.2590 -0.5789  0.3906
19678TIP3    H180525   3.720   4.411   4.940 -0.9867  0.1917  0.1840
19678TIP3    H280526   3.803   4.451   5.060  1.0120 -2.3369 -0.2743
19679TIP3   OH280527   3.374   2.781   0.029  0.2133  0.2983 -0.0851
19679TIP3    H180528   3.297   2.804   0.081  0.8684 -0.1999  1.1513
19679TIP3    H280529   3.425   2.724   0.087  1.6689  0.8955 -0.7554
19680TIP3   OH280530   1.872   2.804  14.625 -0.7598  0.2211  0.4215
19680TIP3    H180531   1.869   2.875  14.688  1.6056  0.7331  0.0542
19680TIP3    H280532   1.909   2.730  14.675 -0.0876  0.2572 -0.0081
19681TIP3   OH280533   5.019   0.793   5.845  0.6898 -0.1416  0.4480
19681TIP3    H180534   4.968   0.744   5.908 -0.3468  0.7288  0.3114
19681TIP3    H280535   5.020   0.739   5.767 -2.4978  0.9880 -0.5364
19682TIP3   OH280536   2.618   5.588  15.481  0.2688 -0.2858  0.1821
19682TIP3    H180537   2.663   5.529  15.420  2.5296  1.2600  0.2233
19682TIP3    H280538   2.637   5.676  15.447 -2.2495  0.4900  0.6154
19683TIP3   OH280539   0.480   6.600   2.889 -0.0299 -0.1465 -0.1919
19683TIP3    H180540   0.452   6.686   2.922  0.2030 -0.4716  0.8981
19683TIP3    H280541   0.527   6.560   2.963 -0.6361 -1.4431 -0.4716
19684TIP3   OH280542   4.283   4.669   5.086 -0.5791 -0.1933 -0.7172
19684TIP3    H180543   4.228   4.720   5.145  0.3696  1.1955 -0.9944
19684TIP3    H280544   4.372   4.687   5.114 -0.1184  0.2133 -2.3344
19685TIP3   OH280545   3.090   1.330  16.285  0.5310 -0.2636  0.7153
19685TIP3    H180546   3.028   1.265  16.318  0.0843  0.5807  1.5926
19685TIP3    H280547   3.108   1.303  16.195 -0.3598 -1.0727  0.7725
19686TIP3   OH280548   0.005   6.716  13.232  0.0575  0.2918  0.2192
19686TIP3    H180549   0.005   6.659  13.156 -1.3928 -1.6849  1.5847
19686TIP3    H280550   0.010   6.805  13.196 -2.4948 -0.4438 -2.3200
19687TIP3   OH280551   4.393   6.247  11.441 -0.6899 -0.3460 -0.2956
19687TIP3    H180552   4.323   6.284  11.387  1.1608  1.7858 -1.4355
19687TIP3    H280553   4.442   6.191  11.380 -0.7249 -0.8852  0.1715
19688TIP3   OH280554   0.998   5.655   3.821 -0.3706 -0.1140 -0.1350
19688TIP3    H180555   0.953   5.597   3.759  0.9334 -1.0783 -0.2115
19688TIP3    H280556   1.079   5.679   3.776 -0.9323  1.8847 -0.1429
19689TIP3   OH280557   0.711   6.084  14.603 -0.3269 -0.7690  0.2299
19689TIP3    H180558   0.690   6.005  14.554 -1.2841 -0.1051 -0.4583
19689TIP3    H280559   0.653   6.082  14.679 -1.3060 -0.0894 -0.4742
19690TIP3   OH280560   5.650   4.831   6.414  0.3670 -0.2123 -0.5300
19690TIP3    H180561   5.720   4.815   6.351  1.8391  1.0863  0.7086
19690TIP3    H280562   5.667   4.919   6.448 -2.1049  0.3155 -0.4600
19691TIP3   OH280563   6.817   2.823   0.134 -0.2700 -0.3180 -0.2940
19691TIP3    H180564   6.818   2.896   0.071 -0.9820  1.7971  1.9788
19691TIP3    H280565   6.741   2.840   0.189  1.2676 -1.0027  2.2434
19692TIP3   OH280566   5.646   4.377  14.316 -0.1412  0.1606 -0.0475
19692TIP3    H180567   5.664   4.397  14.408 -0.0852  0.4792 -0.1279
19692TIP3    H280568   5.601   4.292  14.319  1.9945 -1.0180  0.1066
19693TIP3   OH280569   3.152   1.441   0.527  0.0695  0.0242 -0.2268
19693TIP3    H180570   3.184   1.364   0.573  1.3004  1.3533  1.2834
19693TIP3    H280571   3.057   1.427   0.517 -0.2629 -0.3584  2.7570
19694TIP3   OH280572   1.360   5.505  11.242  0.3303  0.3061  0.2985
19694TIP3    H180573   1.450   5.478  11.227  0.8305  1.1112  1.6828
19694TIP3    H280574   1.333   5.546  11.159  0.2280 -2.4029 -1.1358
19695TIP3   OH280575   0.204   3.459   6.075  0.7623  0.3834  0.1608
19695TIP3    H180576   0.145   3.508   6.017  0.4918 -0.6270 -0.4381
19695TIP3    H280577   0.222   3.519   6.147  0.3944  1.3396 -0.5285
19696TIP3   OH280578   6.002   6.433   1.802  0.5854 -0.5122  0.2237
19696TIP3    H180579   5.922   6.468   1.764  0.7874 -0.1448  0.1359
19696TIP3    H280580   6.059   6.509   1.813  1.5365 -0.9813 -1.1894
19697TIP3   OH280581   3.827   3.063  17.050 -0.5804  0.1592  0.2813
19697TIP3    H180582   3.911   3.106  17.069  1.0141 -3.0426  1.1250
19697TIP3    H280583   3.841   3.020  16.966 -2.1592  1.2645 -0.5894
19698TIP3   OH280584   3.794   4.040  15.992  0.2152  0.2122  0.8151
19698TIP3    H180585   3.782   4.009  16.082  0.3168  1.8331  1.4154
19698TIP3    H280586   3.804   4.135  16.000  0.7621  0.3313 -0.8651
19699TIP3   OH280587   1.626   0.630  12.640 -0.3478  0.2443 -0.3732
19699TIP3    H180588   1.600   0.716  12.671  1.6941  0.2242  1.6961
19699TIP3    H280589   1.544   0.581  12.632 -1.5117  2.2009 -1.2411
19700TIP3   OH280590   5.062   1.057  12.907  0.3925 -0.3380 -0.1897
19700TIP3    H180591   5.003   1.071  12.980  0.8392 -0.2786  0.1623
19700TIP3    H280592   5.124   1.130  12.912  0.4529 -0.3570 -0.5997
19701TIP3   OH280593   6.284   4.991   1.426 -0.4536  0.6827 -0.1722
19701TIP3    H180594   6.252   4.934   1.357 -1.2603  1.8929 -0.8394
19701TIP3    H280595   6.365   4.950   1.456 -0.4667 -0.2365 -1.3491
19702TIP3   OH280596   1.570   2.643   5.040 -0.1304  0.0978 -0.4881
19702TIP3    H180597   1.629   2.701   5.088  0.1286 -0.1717 -0.4823
19702TIP3    H280598   1.620   2.563   5.026 -0.5083 -0.1499 -0.4446
19703TIP3   OH280599   1.591   4.413  11.427 -0.4147 -0.2994 -0.2162
19703TIP3    H180600   1.636   4.330  11.444 -0.3517 -0.3665 -0.6915
19703TIP3    H280601   1.573   4.411  11.333 -0.5253  0.1709 -0.2054
19704TIP3   OH280602   6.635   6.428  13.929 -0.5523 -0.2036  0.1519
19704TIP3    H180603   6.590   6.500  13.972  0.2010  0.7330 -0.5976
19704TIP3    H280604   6.728   6.448  13.938 -0.3121  1.3964 -3.9936
19705TIP3   OH280605   0.451   4.153   2.374  0.2307 -0.3986  0.4893
19705TIP3    H180606   0.510   4.209   2.424  1.6639 -2.1395  0.8517
19705TIP3    H280607   0.363   4.176   2.405  0.8019  1.2054  1.0135
19706TIP3   OH280608   1.293   3.786  15.803 -0.4828 -0.2619  0.0364
19706TIP3    H180609   1.229   3.727  15.843  0.0490 -0.9301 -0.0890
19706TIP3    H280610   1.265   3.794  15.712 -1.3274  0.7586  0.3639
19707TIP3   OH280611   2.671   1.449  15.242 -0.0015  0.1293 -0.1701
19707TIP3    H180612   2.618   1.475  15.317  1.3154  0.5783  0.6372
19707TIP3    H280613   2.750   1.503  15.249 -0.0494  0.5115 -2.1483
19708TIP3   OH280614   1.534   4.674   4.069 -0.1309  0.5381  0.1506
19708TIP3    H180615   1.619   4.705   4.038  0.2539  0.2089  0.8519
19708TIP3    H280616   1.492   4.638   3.991  1.5715 -1.9627  0.2743
19709TIP3   OH280617   0.608   6.563  13.961 -0.2445 -0.1201 -0.1549
19709TIP3    H180618   0.550   6.626  14.005 -0.8950 -0.6922 -0.1763
19709TIP3    H280619   0.690   6.568  14.010 -0.3352  0.6483 -0.0736
19710TIP3   OH280620   6.356   1.399   0.095 -0.5862 -0.0554 -0.1030
19710TIP3    H180621   6.358   1.359   0.008  0.3950  0.2142 -0.2075
19710TIP3    H280622   6.316   1.485   0.082 -0.4651 -0.0267 -0.2831
19711TIP3   OH280623   0.059   5.709   1.885  0.1797 -0.3424  0.2304
19711TIP3    H180624   0.147   5.737   1.858  1.0707 -0.7900  2.4686
19711TIP3    H280625   0.059   5.615   1.870  0.4638 -0.4967  1.1185
19712TIP3   OH280626   3.384   2.025   0.273  0.5317  1.0489 -0.2119
19712TIP3    H180627   3.471   2.055   0.301  0.6660 -0.6879  1.4607
19712TIP3    H280628   3.331   2.026   0.353  0.5468 -2.8205  0.0435
19713TIP3   OH280629   4.998   3.052   5.436 -0.1007  0.0056 -0.0820
19713TIP3    H180630   4.921   3.022   5.483 -0.4016  1.0438  0.1271
19713TIP3    H280631   4.999   3.147   5.450  0.7525  0.1138 -0.7650
19714TIP3   OH280632   2.577   4.894  12.733  0.0671 -0.0163  0.5835
19714TIP3    H180633   2.622   4.949  12.797 -0.9925 -0.5682  1.8617
19714TIP3    H280634   2.501   4.859  12.781 -1.1024  0.0052 -1.1492
19715TIP3   OH280635   6.505   6.222  16.196  0.2866 -0.0268 -0.6093
19715TIP3    H180636   6.442   6.228  16.268  0.2303  2.0718 -0.7784
19715TIP3    H280637   6.457   6.254  16.120  0.9590 -0.3418 -1.1745
19716TIP3   OH280638   6.694   0.005   2.805 -0.2840 -0.0442 -0.2834
19716TIP3    H180639   6.625  -0.044   2.762 -1.3052 -1.9893  3.1741
19716TIP3    H280640   6.702   0.086   2.754 -3.8500 -0.5269 -1.8951
19717TIP3   OH280641   2.372   5.254  11.336 -0.6960 -0.0687  0.6011
19717TIP3    H180642   2.329   5.313  11.274  0.1308  0.4708  0.5248
19717TIP3    H280643   2.446   5.304  11.369 -0.3737 -0.8277  1.0555
19718TIP3   OH280644   1.637   2.772   3.199 -0.2817 -0.0559  0.2541
19718TIP3    H180645   1.706   2.837   3.211 -0.8759  0.7223 -0.4318
19718TIP3    H280646   1.558   2.824   3.185 -0.3957 -0.8695 -2.5511
19719TIP3   OH280647   1.298   5.749  14.653  0.2778  0.2826  0.6677
19719TIP3    H180648   1.345   5.721  14.574  0.5647  1.3546  0.4410
19719TIP3    H280649   1.274   5.667  14.697 -4.0894 -0.6628 -2.8283
19720TIP3   OH280650   5.004   4.991  14.858  0.2796 -0.1164  0.0290
19720TIP3    H180651   5.081   4.943  14.828 -0.4577 -1.3641  0.0602
19720TIP3    H280652   4.993   4.965  14.950  0.0989  0.4161  0.1601
19721TIP3   OH280653   3.567   5.357  11.831 -0.0628 -0.5463  0.1366
19721TIP3    H180654   3.478   5.332  11.854  0.3764 -1.7510  0.6308
19721TIP3    H280655   3.570   5.452  11.843 -0.8456 -0.6862  1.6605
19722TIP3   OH280656   1.907   5.650   3.021  0.1423 -0.3004  0.4760
19722TIP3    H180657   1.833   5.673   2.966  0.2461 -1.3599 -0.1404
19722TIP3    H280658   1.979   5.634   2.959  0.1551 -1.9123  0.8671
19723TIP3   OH280659   2.305   5.752  16.723 -0.4568  0.4817  0.5122
19723TIP3    H180660   2.261   5.733  16.806 -0.3387 -2.1603  0.0543
19723TIP3    H280661   2.385   5.699  16.725  0.9654  2.4858 -0.1688
19724TIP3   OH280662   3.428   6.112   0.154 -0.3728 -0.2336  0.4916
19724TIP3    H180663   3.343   6.125   0.195 -0.6002 -0.8660  0.2305
19724TIP3    H280664   3.478   6.062   0.219 -0.0286  0.5584  0.8480
19725TIP3   OH280665   4.187   2.932  14.939 -0.2770  0.0413 -0.1152
19725TIP3    H180666   4.228   2.919  14.853 -0.5943  0.4815 -0.3357
19725TIP3    H280667   4.199   3.025  14.958 -0.5009  0.0142  0.1693
19726TIP3   OH280668   2.773   0.456  13.192 -0.6166 -0.1740  0.8613
19726TIP3    H180669   2.756   0.463  13.098 -0.4337  2.1244  0.9383
19726TIP3    H280670   2.784   0.362  13.208 -0.1185 -0.5680 -1.4934
19727TIP3   OH280671   4.308   2.850   1.453 -0.6409  0.6735 -0.1986
19727TIP3    H180672   4.351   2.854   1.368 -2.6289  1.0952 -1.2364
19727TIP3    H280673   4.283   2.940   1.473 -0.8498  0.4757  0.4739
19728TIP3   OH280674   2.468   4.537  13.659 -0.2197 -0.4993  0.1483
19728TIP3    H180675   2.382   4.506  13.687 -0.0387 -1.2096 -0.0547
19728TIP3    H280676   2.465   4.532  13.564  0.3879 -1.4950  0.1734
19729TIP3   OH280677   3.887   2.839  13.273  0.0948  0.6403  0.2566
19729TIP3    H180678   3.841   2.755  13.266  1.9714 -0.4120 -0.0931
19729TIP3    H280679   3.876   2.864  13.365 -0.3814 -0.0486  0.3994
19730TIP3   OH280680   2.389   3.287  14.623  0.6332  0.2828 -0.2835
19730TIP3    H180681   2.343   3.299  14.706 -0.1243  0.7705 -0.7642
19730TIP3    H280682   2.336   3.225  14.574  0.3109  1.0645 -0.9551
19731TIP3   OH280683   0.553   5.077  14.181 -0.9859 -0.3970  0.2812
19731TIP3    H180684   0.587   5.086  14.092 -0.3837 -0.0421  0.5397
19731TIP3    H280685   0.514   5.162  14.201  1.8355  0.7226  1.5446
19732TIP3   OH280686   0.038   4.545  16.740 -0.2684  0.1276  0.5116
19732TIP3    H180687   0.053   4.624  16.791  0.6124  0.0542  0.3820
19732TIP3    H280688  -0.055   4.526  16.751 -0.9885  2.3521 -1.1729
19733TIP3   OH280689   5.200   5.843  10.826  0.0105 -0.2870 -0.0583
19733TIP3    H180690   5.252   5.819  10.750 -0.2358 -0.5964 -0.1306
19733TIP3    H280691   5.123   5.786  10.821  0.3282 -0.8072  0.8096
19734TIP3   OH280692   1.709   6.280  14.018  0.4261 -0.4767 -0.4868
19734TIP3    H180693   1.776   6.215  13.996 -0.9394 -1.4762 -1.9315
19734TIP3    H280694   1.655   6.287  13.939 -0.8957  0.6559  0.4555
19735TIP3   OH280695   3.269   1.987  15.393 -0.0627  0.6877 -0.3230
19735TIP3    H180696   3.354   1.994  15.350  0.0995  0.7238 -0.0028
19735TIP3    H280697   3.260   2.069  15.441  0.5987 -0.0772  1.2036
19736TIP3   OH280698   3.481   5.725  12.402 -0.1027 -0.1877 -0.3587
19736TIP3    H180699   3.453   5.801  12.352 -0.4863 -0.8775 -1.2187
19736TIP3    H280700   3.400   5.688  12.438 -0.0440 -0.8359 -0.8878
19737TIP3   OH280701   6.568   2.479   2.740  0.0132 -0.2516 -0.2109
19737TIP3    H180702   6.663   2.464   2.745 -0.1684 -1.6215 -0.5661
19737TIP3    H280703   6.538   2.469   2.830  0.7045  4.4087  0.7995
19738TIP3   OH280704   4.553   0.575   6.110 -0.1422  0.0921  0.4486
19738TIP3    H180705   4.522   0.630   6.182 -1.4032  0.7645 -0.5765
19738TIP3    H280706   4.649   0.581   6.115 -0.2057  0.0027  2.1458
19739TIP3   OH280707   5.997   4.472  11.591  0.4160  0.3555  0.2806
19739TIP3    H180708   5.948   4.548  11.560  0.7583  0.2248 -0.6278
19739TIP3    H280709   6.054   4.449  11.517  0.2800 -0.8041  0.5168
19740TIP3   OH280710   4.994   3.042   0.256 -0.0585  0.6125 -0.2043
19740TIP3    H180711   4.960   3.131   0.245 -0.0649  0.6877  0.4221
19740TIP3    H280712   5.071   3.052   0.312 -0.5007  0.1400  0.5042
19741TIP3   OH280713   0.460   0.885  10.516 -0.0191  0.0165  0.8784
19741TIP3    H180714   0.451   0.962  10.573 -1.8964 -2.3558  4.1470
19741TIP3    H280715   0.374   0.875  10.475  0.5293  0.1975 -0.3544
19742TIP3   OH280716   2.463   2.079   5.780  0.2602  0.1173  0.2844
19742TIP3    H180717   2.407   2.088   5.703  1.1715 -0.0826 -0.4050
19742TIP3    H280718   2.531   2.018   5.754 -0.7560 -1.8887  2.0288
19743TIP3   OH280719   5.298   2.904   2.923  0.1409  0.7274  0.1309
19743TIP3    H180720   5.341   2.903   3.008 -1.1719  0.5201  0.8233
19743TIP3    H280721   5.239   2.980   2.928 -2.7067 -1.3443  0.9042
19744TIP3   OH280722   4.537   5.016  13.908  0.1115  0.0167 -0.2900
19744TIP3    H180723   4.500   5.031  13.995 -1.7915 -0.3640 -0.9682
19744TIP3    H280724   4.556   5.103  13.874 -2.0252  0.4086 -0.6166
19745TIP3   OH280725   4.350   6.821   2.295 -0.4734  0.6628 -0.1173
19745TIP3    H180726   4.359   6.727   2.280 -0.0518  0.9523 -1.8700
19745TIP3    H280727   4.406   6.839   2.371 -0.0274 -0.3800 -0.1851
19746TIP3   OH280728   3.415   0.352   4.303  0.1969 -0.1830  0.2873
19746TIP3    H180729   3.508   0.372   4.302  0.5981 -1.8015 -1.3156
19746TIP3    H280730   3.396   0.323   4.213 -1.5029 -1.2999  0.9580
19747TIP3   OH280731   5.738   2.949   2.000 -0.2110 -0.5761  0.3150
19747TIP3    H180732   5.779   3.030   2.031 -1.3414  0.5789 -1.0233
19747TIP3    H280733   5.739   2.891   2.075  0.5100  0.7314  1.3669
19748TIP3   OH280734   5.394   3.066  14.589 -0.4521  0.6360  0.0307
19748TIP3    H180735   5.449   3.134  14.550 -1.1621  0.2821 -1.6942
19748TIP3    H280736   5.450   2.988  14.590 -1.0503  0.0735 -2.4418
19749TIP3   OH280737   1.844   6.276  14.920  0.2779  0.2358  0.9173
19749TIP3    H180738   1.760   6.270  14.875  0.2451  1.2632  0.8172
19749TIP3    H280739   1.868   6.369  14.914  1.1188  0.0671  1.4857
19750TIP3   OH280740   3.173   6.452  15.877 -0.0872  0.0323  0.7181
19750TIP3    H180741   3.212   6.370  15.906 -0.0248 -0.1247  0.2042
19750TIP3    H280742   3.227   6.520  15.917  0.4492 -0.1809  0.3711
19751TIP3   OH280743   6.319   1.925   3.602  0.8533  0.0941 -0.1410
19751TIP3    H180744   6.294   2.011   3.568  0.8338  0.3839  0.5952
19751TIP3    H280745   6.247   1.901   3.661  0.1668 -1.0526 -1.3799
19752TIP3   OH280746   0.465   3.548  11.129 -0.4294  0.0299 -0.3975
19752TIP3    H180747   0.374   3.548  11.100 -0.4297 -1.1633 -0.4572
19752TIP3    H280748   0.515   3.576  11.052 -0.7841  1.5663 -0.1106
19753TIP3   OH280749   3.570   1.503   1.513  0.0324  0.7194 -0.1704
19753TIP3    H180750   3.475   1.486   1.512  0.1489 -0.0893  1.1116
19753TIP3    H280751   3.582   1.565   1.585  0.7400 -0.9338  1.1781
19754TIP3   OH280752   6.757   3.430   0.919  0.5277 -0.5358 -0.1445
19754TIP3    H180753   6.764   3.369   0.993  0.5686 -0.2765  0.0665
19754TIP3    H280754   6.666   3.459   0.921  0.4312 -0.8188 -0.4276
19755TIP3   OH280755   1.014   6.038  14.478 -0.2638 -0.1971 -0.2979
19755TIP3    H180756   1.109   6.048  14.476 -0.4101  1.5647  0.1188
19755TIP3    H280757   0.994   6.020  14.570 -0.4430  0.8888 -0.1154
19756TIP3   OH280758   5.693   5.824  14.640 -0.4227  0.0185 -0.2308
19756TIP3    H180759   5.763   5.838  14.703  0.8365  1.7642 -1.8955
19756TIP3    H280760   5.642   5.905  14.641 -0.3376  0.1140 -1.4397
19757TIP3   OH280761   1.740   5.921  12.903  0.1772 -0.3604 -0.0120
19757TIP3    H180762   1.646   5.939  12.912  0.2430 -0.1008  0.1837
19757TIP3    H280763   1.745   5.827  12.883 -0.1348 -0.3280 -0.2503
19758TIP3   OH280764   1.710   0.162  12.259  0.1783  0.6122 -0.1103
19758TIP3    H180765   1.674   0.199  12.179 -2.6413 -0.4651  0.5357
19758TIP3    H280766   1.700   0.231  12.324  0.2829  0.6927 -0.1808
19759TIP3   OH280767   4.906   3.484  15.411  0.3870 -0.0645 -0.0483
19759TIP3    H180768   4.921   3.522  15.325 -1.9449  0.3375 -0.3301
19759TIP3    H280769   4.840   3.416  15.397 -2.4916  2.1191  1.7885
19760TIP3   OH280770   3.672   6.636   0.810 -0.2805 -0.1186 -0.6684
19760TIP3    H180771   3.735   6.622   0.739  2.1663  2.6738  0.7149
19760TIP3    H280772   3.725   6.670   0.882 -3.1663  0.6298  1.2638
19761TIP3   OH280773   1.341   3.752  10.518 -0.2278  0.1093 -0.6042
19761TIP3    H180774   1.336   3.664  10.556  0.6453 -0.0081 -0.7309
19761TIP3    H280775   1.345   3.737  10.423  0.0788  0.2732 -0.6187
19762TIP3   OH280776   1.555   6.115  15.151  0.7337  0.1206 -0.0805
19762TIP3    H180777   1.505   6.052  15.099  0.4274 -0.1044  0.4795
19762TIP3    H280778   1.510   6.198  15.137 -0.2451 -0.2050  0.9753
19763TIP3   OH280779   3.039   5.840  10.591  0.0819 -0.3769 -0.1253
19763TIP3    H180780   3.098   5.865  10.662  0.7769 -0.3133 -0.7108
19763TIP3    H280781   2.987   5.918  10.574  1.3105  0.2792 -1.0344
19764TIP3   OH280782   2.322   1.563   3.480 -0.2366  0.0050  0.0190
19764TIP3    H180783   2.310   1.598   3.568  0.1641 -1.4500  0.6910
19764TIP3    H280784   2.345   1.639   3.427 -4.1905  1.6364  0.2870
19765TIP3   OH280785   0.215   6.560   0.307 -0.6502  0.4491  0.1514
19765TIP3    H180786   0.205   6.595   0.218 -1.8013 -1.3748 -0.4883
19765TIP3    H280787   0.127   6.565   0.345 -0.4584 -0.0847  0.6774
19766TIP3   OH280788   6.523   1.751   6.734 -0.0009 -0.3443  0.0770
19766TIP3    H180789   6.435   1.785   6.720  0.1922  0.8418  1.4889
19766TIP3    H280790   6.513   1.686   6.804  0.0577 -1.2077 -0.7000
19767TIP3   OH280791   2.427   0.210   2.398  0.2174  0.6697  0.0916
19767TIP3    H180792   2.392   0.163   2.322 -0.2330  1.0543  0.0575
19767TIP3    H280793   2.361   0.277   2.417  0.0632  0.2421  1.1500
19768TIP3   OH280794   2.865   1.327  14.310  0.3629 -0.1358  0.4070
19768TIP3    H180795   2.837   1.417  14.294  1.3780  0.3387  1.2241
19768TIP3    H280796   2.785   1.282  14.337 -0.2351  0.4013 -0.4077
19769TIP3   OH280797   4.300   0.391  14.015 -0.3169 -0.2651 -0.2479
19769TIP3    H180798   4.333   0.399  14.105 -0.3491  1.5219 -0.3701
19769TIP3    H280799   4.300   0.297  13.999  0.1961 -0.5973  1.4370
19770TIP3   OH280800   0.061   3.982   5.247  0.8048 -0.5630  0.1840
19770TIP3    H180801   0.077   4.001   5.154 -1.1933 -1.5378 -0.4129
19770TIP3    H280802  -0.025   3.941   5.249 -0.8161  2.4616  2.8352
19771TIP3   OH280803   0.029   2.697   3.123  0.5575 -0.1707  0.0666
19771TIP3    H180804   0.000   2.606   3.117 -2.3727  0.7384 -2.0108
19771TIP3    H280805   0.066   2.716   3.037 -0.9325  1.1512 -0.3306
19772TIP3   OH280806   4.648   5.048  16.057 -0.3019  0.6605 -0.2335
19772TIP3    H180807   4.662   5.012  16.144 -1.8456 -1.5376 -0.7861
19772TIP3    H280808   4.703   4.994  16.000 -1.6149  0.0019 -0.9331
19773TIP3   OH280809   3.948   2.122  13.663  0.2034  0.0727  0.6864
19773TIP3    H180810   3.989   2.056  13.608  0.4767  0.3011  0.6111
19773TIP3    H280811   4.021   2.168  13.704  0.0205  0.4064  0.6462
19774TIP3   OH280812   1.612   1.165  11.955 -0.2837  0.2069 -0.5635
19774TIP3    H180813   1.613   1.260  11.944 -0.7275  0.5148  1.5386
19774TIP3    H280814   1.523   1.139  11.932 -0.6045  0.5353  0.2539
19775TIP3   OH280815   1.060   2.843   2.973  0.2009  0.2473 -0.4423
19775TIP3    H180816   1.085   2.816   2.884  1.9454  0.7099 -0.1225
19775TIP3    H280817   1.036   2.761   3.017  0.3499 -0.1154 -1.0245
19776TIP3   OH280818   4.687   5.579   0.890 -0.0807  0.0952  0.6165
19776TIP3    H180819   4.736   5.497   0.898 -1.4407 -1.0791 -1.9087
19776TIP3    H280820   4.623   5.576   0.960 -1.5034 -2.1286 -0.6570
19777TIP3   OH280821   6.147   5.294  15.972  0.3136  0.6103 -0.1766
19777TIP3    H180822   6.055   5.271  15.987  1.0204 -4.2124 -1.4876
19777TIP3    H280823   6.184   5.301  16.060 -0.6787 -0.7940  0.3975
19778TIP3   OH280824   6.730   1.026  14.613 -0.5735  0.2515  0.1566
19778TIP3    H180825   6.689   0.966  14.550 -0.3973 -0.2671  0.5231
19778TIP3    H280826   6.753   0.970  14.687 -2.2059  1.1324  1.3871
19779TIP3   OH280827   4.642   3.576   5.017 -0.3292 -0.7256 -0.2081
19779TIP3    H180828   4.603   3.493   5.046  1.3823 -2.0132 -1.3730
19779TIP3    H280829   4.710   3.594   5.082  0.8767 -1.5310 -1.2009
19780TIP3   OH280830   3.599   2.292   1.936 -0.2034 -0.5899 -0.5357
19780TIP3    H180831   3.646   2.309   1.855 -1.5625  1.8451 -0.9119
19780TIP3    H280832   3.626   2.362   1.995  0.4142 -2.0582  1.0166
19781TIP3   OH280833   0.597   4.230  15.858  0.2759  0.4659 -0.0187
19781TIP3    H180834   0.569   4.321  15.867  2.0773  0.9390  1.2271
19781TIP3    H280835   0.551   4.199  15.780 -0.2563  2.4731 -0.5655
19782TIP3   OH280836   5.856   6.215   5.812 -0.1114 -0.3152  0.0924
19782TIP3    H180837   5.919   6.144   5.816  2.0085  1.3206 -1.6505
19782TIP3    H280838   5.797   6.191   5.740 -1.8539 -2.0268  1.9673
19783TIP3   OH280839   5.046   6.306  12.679 -0.9763 -0.1479  0.1073
19783TIP3    H180840   5.134   6.271  12.662 -0.5115 -0.2123  2.4067
19783TIP3    H280841   5.016   6.337  12.593  0.0250 -2.8773 -1.3321
19784TIP3   OH280842   1.525   4.784  15.864 -0.0829  0.3225 -0.1682
19784TIP3    H180843   1.612   4.770  15.901 -1.5298 -1.4376  2.9541
19784TIP3    H280844   1.491   4.860  15.910 -1.2938 -0.8753  1.0112
19785TIP3   OH280845   3.030   5.064  13.048 -0.0689 -0.3827 -0.2098
19785TIP3    H180846   2.980   4.983  13.039  0.0999 -0.6322  0.9485
19785TIP3    H280847   3.076   5.055  13.131  1.0642  0.3110 -0.7383
19786TIP3   OH280848   4.648   2.945  14.327 -0.0735  0.1605  0.6464
19786TIP3    H180849   4.679   3.012  14.266 -0.4980 -1.0967 -1.0108
19786TIP3    H280850   4.559   2.926  14.300 -0.6466  0.2581  2.3128
19787TIP3   OH280851   2.184   6.401   3.359 -0.5824 -0.1633 -0.3788
19787TIP3    H180852   2.225   6.349   3.428 -0.5602  0.6245  0.2121
19787TIP3    H280853   2.092   6.406   3.385 -0.1523  2.3050  1.0518
19788TIP3   OH280854   6.650   5.009   2.004 -0.3127  0.3367 -0.2723
19788TIP3    H180855   6.655   5.038   1.913 -0.9744  2.8050  0.4058
19788TIP3    H280856   6.741   5.004   2.032 -0.1467  2.0761 -0.3814
19789TIP3   OH280857   3.657   5.604  11.695 -0.3111 -0.2729 -0.0907
19789TIP3    H180858   3.733   5.662  11.695 -1.6716  1.5718  0.2681
19789TIP3    H280859   3.598   5.640  11.761 -3.0308  0.4999 -2.7121
19790TIP3   OH280860   6.436   3.114   1.209 -0.2872 -0.0711 -0.1615
19790TIP3    H180861   6.363   3.052   1.207  0.3863 -0.9172  0.3516
19790TIP3    H280862   6.494   3.085   1.138 -0.0535  0.0869 -0.0376
19791TIP3   OH280863   6.231   4.712  16.113  0.5709  0.0170  0.8015
19791TIP3    H180864   6.196   4.715  16.024  0.6732  1.2064  0.7800
19791TIP3    H280865   6.319   4.674  16.104  0.5725  0.1169  0.3959
19792TIP3   OH280866   5.525   0.086   4.922  0.1361 -0.2507  0.3254
19792TIP3    H180867   5.612   0.046   4.920  1.0356  1.5918  0.5634
19792TIP3    H280868   5.499   0.093   4.830  0.9595  0.6152  0.1412
19793TIP3   OH280869   6.786   4.533   3.177  0.9381 -0.4126  0.5173
19793TIP3    H180870   6.764   4.441   3.166 -2.1031  0.1973  0.7577
19793TIP3    H280871   6.793   4.567   3.088 -0.5254 -0.3500  0.4143
19794TIP3   OH280872   3.653   1.651  13.367 -0.2830  0.0179  0.2056
19794TIP3    H180873   3.578   1.699  13.402 -0.8437 -1.2108  0.7232
19794TIP3    H280874   3.721   1.718  13.356 -1.5290  1.2240 -0.5691
19795TIP3   OH280875   4.329   3.986   3.645 -0.5683  0.0098  0.2945
19795TIP3    H180876   4.373   4.068   3.626 -0.5189 -0.2632 -0.8118
19795TIP3    H280877   4.394   3.933   3.692 -0.3565  0.3165  0.3445
19796TIP3   OH280878   3.212   3.452  13.991  0.5341 -0.1239 -0.1533
19796TIP3    H180879   3.176   3.540  13.999  3.8527  1.7988 -3.1701
19796TIP3    H280880   3.216   3.436  13.896  1.9483 -2.6145  0.2389
19797TIP3   OH280881   4.443   5.879  11.487  0.2409 -0.0750  0.2695
19797TIP3    H180882   4.386   5.938  11.536  0.4353  0.2723  0.0873
19797TIP3    H280883   4.505   5.938  11.443  0.0406 -0.3690 -0.4222
19798TIP3   OH280884   1.581   5.934   3.493 -0.0317 -0.0737 -0.4024
19798TIP3    H180885   1.502   5.917   3.441 -0.9785 -1.6790  1.4072
19798TIP3    H280886   1.560   6.014   3.541 -0.9520 -0.9351  0.6893
19799TIP3   OH280887   5.112   2.652   5.844  0.1552 -0.5941 -0.7295
19799TIP3    H180888   5.132   2.744   5.863 -1.5833 -0.1625 -0.7574
19799TIP3    H280889   5.097   2.650   5.750  0.9729 -1.0923 -0.8561
19800TIP3   OH280890   5.991   2.128   0.319 -0.0230 -0.4030  0.7298
19800TIP3    H180891   6.014   2.072   0.244  1.3520 -0.7709  1.3936
19800TIP3    H280892   6.075   2.159   0.352 -0.7315  2.0421  0.4354
19801TIP3   OH280893   3.558   4.978  12.305  0.5295  0.4744  0.0855
19801TIP3    H180894   3.652   4.969  12.324  0.7705  0.5050 -1.0465
19801TIP3    H280895   3.530   5.052  12.359  0.5642 -1.0806  2.4094
19802TIP3   OH280896   2.569   3.301  12.766 -0.3419  0.3112 -0.3307
19802TIP3    H180897   2.585   3.293  12.672 -1.7334  2.5182 -0.8370
19802TIP3    H280898   2.657   3.309  12.805  0.2851 -1.4916 -1.2993
19803TIP3   OH280899   6.681   1.942  14.838 -0.3057  0.0085 -0.5168
19803TIP3    H180900   6.699   1.849  14.844 -1.6617 -0.2007  0.8970
19803TIP3    H280901   6.670   1.959  14.744  0.7015 -1.0793 -0.8464
19804TIP3   OH280902   3.464   4.117  12.003  0.1574  0.1793  0.1500
19804TIP3    H180903   3.416   4.078  12.076  0.2970  0.9393  0.6595
19804TIP3    H280904   3.550   4.137  12.038  0.7106 -0.7359 -0.6318
19805TIP3   OH280905   6.577   4.853   5.330 -0.2344  0.0193  0.0174
19805TIP3    H180906   6.504   4.810   5.285 -2.1166  3.0203 -0.0452
19805TIP3    H280907   6.612   4.915   5.266  0.8878  0.2568  0.8232
19806TIP3   OH280908   5.031   1.301  16.830 -0.4862 -0.3681 -0.1689
19806TIP3    H180909   5.068   1.226  16.783  1.5046  0.4582 -0.0142
19806TIP3    H280910   5.045   1.281  16.923 -0.6611 -0.1475 -0.0930
19807TIP3   OH280911   4.809   0.228   3.305 -0.2746  0.4520  0.0188
19807TIP3    H180912   4.737   0.232   3.368 -0.4109 -0.4997 -0.0497
19807TIP3    H280913   4.813   0.135   3.279  2.0300  0.1181  1.2684
19808TIP3   OH280914   1.922   6.333  13.711  0.5443  0.5858  0.0477
19808TIP3    H180915   1.884   6.333  13.623 -1.1600 -2.1213  0.6567
19808TIP3    H280916   1.909   6.244  13.742  3.3028  0.8030  2.1693
19809TIP3   OH280917   1.022   3.508  17.031  0.1860 -0.9622  0.1617
19809TIP3    H180918   1.105   3.466  17.007  0.0164 -0.6509 -1.0582
19809TIP3    H280919   0.960   3.435  17.039  0.1789 -1.0614 -0.7013
19810TIP3   OH280920   5.466   3.997   0.772 -0.2325  0.1815 -0.5206
19810TIP3    H180921   5.447   4.090   0.778 -0.1919  0.1583 -0.0472
19810TIP3    H280922   5.552   3.992   0.729  0.6851  0.4325  1.2268
19811TIP3   OH280923   1.159   4.181   1.635  0.0668 -0.2779 -0.3716
19811TIP3    H180924   1.096   4.114   1.608 -0.7498  0.1641  0.3638
19811TIP3    H280925   1.234   4.131   1.669 -1.5517 -0.9405  2.5843
19812TIP3   OH280926   3.459   3.687  14.891 -0.1229  0.1608  0.1558
19812TIP3    H180927   3.478   3.763  14.836 -0.8190  0.4000  0.2288
19812TIP3    H280928   3.424   3.622  14.830 -0.5653  0.3004  0.2567
19813TIP3   OH280929   3.509   3.263   0.008 -0.2593 -0.3593  0.0470
19813TIP3    H180930   3.599   3.285  -0.017 -0.2910  0.0818  0.3047
19813TIP3    H280931   3.511   3.261   0.103 -0.9593  1.6802  0.1618
19814TIP3   OH280932   1.019   1.727  16.240  0.1206 -0.4725 -0.3567
19814TIP3    H180933   1.057   1.739  16.327 -1.2790  0.2975  0.1819
19814TIP3    H280934   1.041   1.808  16.193 -3.3554  1.4913  0.9913
19815TIP3   OH280935   1.108   5.627  16.814 -0.8119  0.1802  0.0473
19815TIP3    H180936   1.155   5.607  16.733 -0.7770  0.6422 -0.0461
19815TIP3    H280937   1.070   5.713  16.800 -1.6527 -0.1673  0.1471
19816TIP3   OH280938   5.357   6.477  12.897 -0.3479 -0.0380  0.3236
19816TIP3    H180939   5.283   6.538  12.896 -0.4136 -0.1179  0.3002
19816TIP3    H280940   5.391   6.478  12.807 -0.0878  0.2810  0.4239
19817TIP3   OH280941   2.584   5.111   4.988 -0.4209 -0.3371 -0.1716
19817TIP3    H180942   2.504   5.156   5.016  0.1234 -0.2186  1.2550
19817TIP3    H280943   2.626   5.083   5.069  0.7096 -0.8928 -0.9210
19818TIP3   OH280944   5.181   2.647   2.331 -0.5332 -0.3316  0.2508
19818TIP3    H180945   5.177   2.671   2.423  0.7074  3.0151 -0.4242
19818TIP3    H280946   5.275   2.640   2.312 -0.7877 -1.6876 -0.6147
19819TIP3   OH280947   5.088   0.678  11.344 -0.2645 -0.4846 -0.1243
19819TIP3    H180948   5.070   0.759  11.391 -0.1759 -0.7940  0.4533
19819TIP3    H280949   5.005   0.654  11.304 -1.1311 -1.7242  2.2345
19820TIP3   OH280950   0.290   3.499   3.265 -0.2570 -0.5278  0.2667
19820TIP3    H180951   0.305   3.531   3.354  0.3268  0.3650 -0.1411
19820TIP3    H280952   0.200   3.526   3.244 -1.0147 -2.1889  1.1657
19821TIP3   OH280953   6.330   4.060   3.995  0.1825  0.1447  0.4258
19821TIP3    H180954   6.256   4.006   4.025 -2.2068  2.5337 -0.6926
19821TIP3    H280955   6.376   4.004   3.933  0.8120 -2.2455  2.8569
19822TIP3   OH280956   0.388   4.144  16.040 -0.1280 -0.0489  0.0410
19822TIP3    H180957   0.449   4.160  15.968 -1.1293  0.9933 -0.6133
19822TIP3    H280958   0.418   4.062  16.080  0.8826 -0.2568 -1.1001
19823TIP3   OH280959   0.417   5.392   1.850 -0.4277  0.7047 -0.4964
19823TIP3    H180960   0.508   5.410   1.826 -0.2807  2.4603  1.1460
19823TIP3    H280961   0.414   5.298   1.865  1.4031  0.7406  0.3755
19824TIP3   OH280962   3.406   6.547  12.240  0.5815  0.0754  0.1917
19824TIP3    H180963   3.361   6.572  12.321  1.7420  0.1845  0.8161
19824TIP3    H280964   3.356   6.591  12.171 -1.5530 -1.5008  0.6217
19825TIP3   OH280965   1.514   0.472  13.375  0.6837 -0.0364  0.3705
19825TIP3    H180966   1.428   0.467  13.418 -0.3176 -1.9123 -1.6252
19825TIP3    H280967   1.577   0.461  13.445 -0.7486 -0.1423  1.7031
19826TIP3   OH280968   4.737   2.206  14.844  0.6008  0.2741 -0.0345
19826TIP3    H180969   4.806   2.273  14.846  0.2163  0.6566  1.5505
19826TIP3    H280970   4.670   2.239  14.904 -0.0808 -1.0417 -0.0411
19827TIP3   OH280971   6.714   6.000   3.871 -0.2608  0.0855 -0.2598
19827TIP3    H180972   6.634   5.952   3.854 -0.2608 -0.8216  1.9836
19827TIP3    H280973   6.685   6.088   3.894 -0.5852 -0.0875 -0.0068
19828TIP3   OH280974   2.208   2.679  13.132  0.0956  0.1044  0.1640
19828TIP3    H180975   2.289   2.729  13.121  1.4178 -1.8536  0.6243
19828TIP3    H280976   2.207   2.618  13.058  1.8993 -3.5415  2.8308
19829TIP3   OH280977   5.503   4.320  17.095  0.0713 -0.7509  0.5299
19829TIP3    H180978   5.519   4.396  17.151 -0.3631 -1.2126  1.3024
19829TIP3    H280979   5.408   4.322  17.080  0.1754 -0.6738 -0.1381
19830TIP3   OH280980   4.053   6.374   1.787 -0.0474  0.1790 -0.5390
19830TIP3    H180981   4.100   6.387   1.705  1.5126  1.8409  0.5211
19830TIP3    H280982   3.986   6.442   1.788  0.5201  0.7433 -0.0693
19831TIP3   OH280983   4.070   4.081  11.318  0.2098  0.0594 -0.1374
19831TIP3    H180984   4.045   4.038  11.400 -0.4419 -2.2120 -1.4032
19831TIP3    H280985   4.151   4.127  11.337  0.0216 -0.3467  1.7939
19832TIP3   OH280986   5.817   0.090   4.478 -0.4562 -0.2797  0.3560
19832TIP3    H180987   5.902   0.099   4.522  0.8169  0.6042 -2.1244
19832TIP3    H280988   5.779   0.178   4.481  0.3193  0.1514 -1.5323
19833TIP3   OH280989   5.514   1.636  15.011  0.7658  0.1082  0.2844
19833TIP3    H180990   5.487   1.574  14.943  0.6656 -1.6885  1.8649
19833TIP3    H280991   5.458   1.712  14.998 -1.5607 -1.5083  0.3568
19834TIP3   OH280992   2.310   5.729   3.106  0.0351 -0.2194 -0.1857
19834TIP3    H180993   2.362   5.780   3.044  0.9873 -2.1008 -1.0038
19834TIP3    H280994   2.221   5.764   3.098  0.7968  1.8547 -0.0690
19835TIP3   OH280995   5.715   6.720   0.469 -0.1842 -0.1750  1.0186
19835TIP3    H180996   5.641   6.708   0.410  0.2284 -1.6884  0.7582
19835TIP3    H280997   5.688   6.792   0.527 -2.1863 -1.1696  1.4193
19836TIP3   OH280998   6.504   3.894  13.117  0.2510  0.1907  0.1541
19836TIP3    H180999   6.599   3.899  13.104  1.1147 -5.8396  1.1707
19836TIP3    H281000   6.490   3.933  13.204  2.3152 -1.0397  1.1086
19837TIP3   OH281001   3.598   1.339  15.869  0.8318  0.3467 -0.1863
19837TIP3    H181002   3.692   1.321  15.868  0.7593 -0.2295  1.2040
19837TIP3    H281003   3.591   1.422  15.916  0.5008 -0.8896  2.0736
19838TIP3   OH281004   3.936   5.615  16.103 -0.1205 -0.1410 -0.1599
19838TIP3    H181005   3.859   5.652  16.061 -0.6034  0.1842  0.9849
19838TIP3    H281006   4.005   5.680  16.087 -0.8639  1.1192  1.4833
19839TIP3   OH281007   3.868   2.336   5.161  0.3812 -0.4589  0.0955
19839TIP3    H181008   3.873   2.334   5.256  2.6057 -0.8037  0.0270
19839TIP3    H281009   3.959   2.347   5.132 -0.4068  1.2962 -1.9660
19840TIP3   OH281010   4.235   0.904  12.899  0.4639 -1.0484 -0.5431
19840TIP3    H181011   4.221   0.884  12.806 -4.3714  1.6020 -0.6940
19840TIP3    H281012   4.210   0.823  12.944 -0.8096 -1.2443 -1.5293
19841TIP3   OH281013   3.196   0.418  15.107 -0.1502  0.7828 -0.7856
19841TIP3    H181014   3.287   0.412  15.077  0.7167 -0.9484  1.8733
19841TIP3    H281015   3.167   0.328  15.112 -0.7190  1.0499  1.9408
19842TIP3   OH281016   5.163   2.090   3.536 -0.4851  0.1207 -1.1333
19842TIP3    H181017   5.092   2.154   3.544  0.3432  0.8411  1.5203
19842TIP3    H281018   5.119   2.009   3.511 -2.3416  0.5106  0.5782
19843TIP3   OH281019   6.143   1.096  14.549 -0.2830  0.7040 -0.6326
19843TIP3    H181020   6.156   1.113  14.456  0.0812  1.0477 -0.5215
19843TIP3    H281021   6.166   1.178  14.592  1.8380 -0.1198 -0.0530
19844TIP3   OH281022   3.905   1.066  15.969  0.3435  0.1389 -0.5076
19844TIP3    H181023   3.860   1.128  16.026 -0.9250  0.4412 -1.7738
19844TIP3    H281024   3.939   1.120  15.897 -0.2735 -0.5305 -1.3220
19845TIP3   OH281025   6.531   1.708   1.389 -0.4730 -0.4528 -0.0695
19845TIP3    H181026   6.550   1.699   1.296 -0.0619  0.4594 -0.0889
19845TIP3    H281027   6.612   1.745   1.426 -0.4583 -1.2760  0.7337
19846TIP3   OH281028   3.227   1.047  16.234 -0.1085 -0.0622 -0.1668
19846TIP3    H181029   3.185   0.968  16.201 -2.9986  1.4005 -0.3392
19846TIP3    H281030   3.241   1.101  16.157 -0.8234  0.7207  0.2362
19847TIP3   OH281031   5.287   0.827  10.571 -0.2516  0.2818 -0.1343
19847TIP3    H181032   5.269   0.921  10.568 -0.3560  0.2978  0.6033
19847TIP3    H281033   5.345   0.811  10.497  0.1423  1.0174  0.0065
19848TIP3   OH281034   4.819   4.505   1.769  0.0416  0.5177 -0.1869
19848TIP3    H181035   4.823   4.534   1.860 -0.3009 -0.9532  0.3192
19848TIP3    H281036   4.889   4.440   1.762  1.3665  1.9956 -1.5283
19849TIP3   OH281037   1.205   0.199   4.653 -0.4731  0.4507  0.1181
19849TIP3    H181038   1.199   0.145   4.575 -0.1078 -0.0562  0.4302
19849TIP3    H281039   1.299   0.209   4.668 -0.5399  0.7163  0.3720
19850TIP3   OH281040   1.181   3.024   3.125 -0.3526  0.1545 -0.0404
19850TIP3    H181041   1.193   3.102   3.071 -0.3601 -0.1683 -0.5205
19850TIP3    H281042   1.150   2.957   3.063 -0.5355 -0.1712  0.4001
19851TIP3   OH281043   2.650   3.955   0.551 -0.1734  0.2586 -0.3557
19851TIP3    H181044   2.581   4.011   0.514 -0.8271 -1.2847 -1.5943
19851TIP3    H281045   2.724   4.014   0.564 -0.8796  1.4527 -1.4764
19852TIP3   OH281046   5.737   4.335   5.610 -0.2882  0.1704  0.4264
19852TIP3    H181047   5.765   4.420   5.642 -1.7972  0.4507  1.0695
19852TIP3    H281048   5.773   4.272   5.673  0.4636  0.3526  0.1877
19853TIP3   OH281049   5.123   1.581   2.651  0.0317  0.2439  0.0580
19853TIP3    H181050   5.062   1.568   2.724  0.2236  0.4213  0.2540
19853TIP3    H281051   5.082   1.650   2.599  0.4266  0.9040  0.6025
19854TIP3   OH281052   4.898   0.542  13.692 -0.5999 -0.1117  0.5205
19854TIP3    H181053   4.955   0.473  13.726 -0.9565 -0.1104  1.1351
19854TIP3    H281054   4.820   0.497  13.661  0.7881 -0.4755 -2.9852
19855TIP3   OH281055   3.861   4.869   2.579 -0.7834 -0.4801 -0.2050
19855TIP3    H181056   3.884   4.906   2.494 -0.1826 -0.7258 -0.1533
19855TIP3    H281057   3.889   4.936   2.642 -1.1485 -0.3361 -0.1897
19856TIP3   OH281058   0.822   6.251  16.393 -0.0401  0.3071  0.0844
19856TIP3    H181059   0.777   6.171  16.365  0.3000  0.8281 -2.1689
19856TIP3    H281060   0.901   6.221  16.437 -1.1521 -0.5886  1.5530
19857TIP3   OH281061   3.084   3.128   0.286  0.0977  0.4196 -0.3629
19857TIP3    H181062   3.047   3.174   0.211  0.6587  1.1083 -0.2230
19857TIP3    H281063   3.036   3.161   0.362 -0.8156 -0.6384 -0.4425
19858TIP3   OH281064   2.310   0.050   1.982 -0.5799 -0.4780  0.2685
19858TIP3    H181065   2.373   0.059   2.054 -0.9224 -0.6122  0.5900
19858TIP3    H281066   2.234   0.008   2.022 -0.5317 -1.1499 -0.3170
19859TIP3   OH281067   0.852   4.511   0.765 -0.4389 -0.7245 -0.3846
19859TIP3    H181068   0.808   4.509   0.850 -0.2158  0.9905 -0.1973
19859TIP3    H281069   0.797   4.567   0.711 -0.7568 -2.0599 -1.5195
19860TIP3   OH281070   2.767   4.041  12.756 -0.1455  0.4246 -0.6242
19860TIP3    H181071   2.728   3.988  12.825  2.4121 -1.4644 -0.4735
19860TIP3    H281072   2.742   3.996  12.675  0.5287 -0.0225 -0.5998
19861TIP3   OH281073   0.376   3.679   1.955  0.0776 -0.0196 -0.4322
19861TIP3    H181074   0.463   3.672   1.995 -0.0935 -0.5546 -0.1336
19861TIP3    H281075   0.356   3.772   1.958  0.0169 -0.0517  0.8794
19862TIP3   OH281076   1.892   1.000  12.747  0.4208 -0.0647 -0.2722
19862TIP3    H181077   1.822   0.991  12.812  0.1707  0.3027 -0.4910
19862TIP3    H281078   1.887   0.919  12.695  1.0138 -0.6403  0.5392
19863TIP3   OH281079   6.699   5.523   1.734 -0.0701 -0.0711 -0.0539
19863TIP3    H181080   6.768   5.588   1.734  1.0034 -1.0932 -2.2966
19863TIP3    H281081   6.680   5.508   1.641 -1.6598 -1.5166  0.4464
19864TIP3   OH281082   3.757   3.305   5.423  0.3763 -0.3079  0.3077
19864TIP3    H181083   3.808   3.370   5.373  0.2345  0.0009  0.5615
19864TIP3    H281084   3.821   3.266   5.483  0.7165 -1.2109 -0.6160
19865TIP3   OH281085   5.220   4.135   3.201 -0.2072  0.5549 -0.0825
19865TIP3    H181086   5.142   4.114   3.150  0.0294  2.9596 -1.5492
19865TIP3    H281087   5.228   4.230   3.197  2.2408  0.4767  0.8716
19866TIP3   OH281088   6.506   1.253   2.823  0.3980 -0.4698 -0.0040
19866TIP3    H181089   6.533   1.229   2.734 -3.9907 -0.1543 -1.6958
19866TIP3    H281090   6.523   1.347   2.828  0.3544 -0.4221 -0.6560
19867TIP3   OH281091   0.658   3.908   4.266  0.2398  0.3914 -0.2473
19867TIP3    H181092   0.707   3.989   4.249 -0.4178  0.4191 -2.3459
19867TIP3    H281093   0.685   3.882   4.354  0.3597  2.9592  0.5791
19868TIP3   OH281094   1.581   4.594  14.522  0.0936  0.4978  0.0710
19868TIP3    H181095   1.505   4.642  14.554 -1.2039 -0.7131 -1.0851
19868TIP3    H281096   1.641   4.661  14.490 -0.6479  1.4462  0.6408
19869TIP3   OH281097   0.865   5.507   0.017 -0.0805  0.1363 -0.3805
19869TIP3    H181098   0.868   5.553   0.101  0.7107  0.0845 -0.3689
19869TIP3    H281099   0.937   5.444   0.022 -0.7970 -0.7143 -0.6176
19870TIP3   OH281100   6.580   5.934  14.971  0.4829 -0.1762 -0.0640
19870TIP3    H181101   6.506   5.965  14.919  0.4972  1.8447  1.0412
19870TIP3    H281102   6.651   5.924  14.907 -0.6203 -2.0057 -1.1167
19871TIP3   OH281103   0.218   1.433   4.743  0.1921  0.3535 -0.0302
19871TIP3    H181104   0.163   1.358   4.765  0.8107 -0.3389 -0.8018
19871TIP3    H281105   0.298   1.418   4.794 -0.2041  1.2066  0.8670
19872TIP3   OH281106   6.162   5.070   0.464  0.2812  0.3991  0.1188
19872TIP3    H181107   6.220   4.996   0.444  0.7860  1.5382 -3.2447
19872TIP3    H281108   6.222   5.142   0.484 -0.0955  0.8316 -0.3135
19873TIP3   OH281109   0.527   5.146  12.230 -0.2973  0.0552 -0.0147
19873TIP3    H181110   0.615   5.182  12.224 -1.0453  1.9536 -0.2866
19873TIP3    H281111   0.499   5.136  12.139 -0.1882 -1.0295  0.0623
19874TIP3   OH281112   2.989   0.458   2.771  0.7456 -0.2114 -0.6411
19874TIP3    H181113   2.897   0.454   2.797  0.6997  1.4148 -0.4873
19874TIP3    H281114   2.993   0.409   2.688 -0.0510 -1.1196 -0.1610
19875TIP3   OH281115   3.704   0.634   1.690 -0.1647  0.5041 -0.1147
19875TIP3    H181116   3.793   0.619   1.657 -0.3928  1.2137 -1.0926
19875TIP3    H281117   3.715   0.697   1.761 -0.1715  3.2519 -2.4219
19876TIP3   OH281118   2.550   3.348  10.348  0.5555 -0.0404  0.1009
19876TIP3    H181119   2.495   3.342  10.425 -0.1915 -0.2998 -0.4453
19876TIP3    H281120   2.503   3.406  10.289  2.3849  2.3970  0.8716
19877TIP3   OH281121   4.099   3.512  16.463 -0.0933 -0.2075  0.1094
19877TIP3    H181122   4.189   3.482  16.472 -0.7258 -1.8619  1.5964
19877TIP3    H281123   4.105   3.608  16.469  1.6140 -0.2418 -0.6065
19878TIP3   OH281124   3.625   4.443  14.632  0.4321 -0.1468  0.5494
19878TIP3    H181125   3.682   4.470  14.704  0.4701  0.0190  0.4591
19878TIP3    H281126   3.550   4.503  14.638 -0.1677 -0.9352  1.2168
19879TIP3   OH281127   1.246   6.782  10.294  0.1111  0.0529  0.2131
19879TIP3    H181128   1.321   6.828  10.331  0.5233  0.5631 -1.1887
19879TIP3    H281129   1.279   6.694  10.274 -0.2284 -0.3620  1.3934
19880TIP3   OH281130   2.180   0.186   2.885  0.2553 -0.0761 -0.0381
19880TIP3    H181131   2.199   0.109   2.833  0.5879 -0.4045  0.5570
19880TIP3    H281132   2.237   0.178   2.962  0.6902  1.0338 -0.2324
19881TIP3   OH281133   6.776   1.763  16.310 -0.5312 -0.1214  0.1967
19881TIP3    H181134   6.683   1.739  16.310 -0.0226 -2.6220  2.3539
19881TIP3    H281135   6.779   1.848  16.353 -1.9019  0.8342 -1.4521
19882TIP3   OH281136   4.170   6.485   3.101 -0.2799 -0.1990  0.2729
19882TIP3    H181137   4.153   6.556   3.039  4.6659  0.2569 -1.0457
19882TIP3    H281138   4.187   6.529   3.184  1.5891  0.1528 -0.2542
19883TIP3   OH281139   0.936   0.674   2.230 -0.5183 -0.4497  0.0606
19883TIP3    H181140   0.950   0.769   2.233  0.4438 -0.6074  2.4593
19883TIP3    H281141   0.867   0.658   2.293 -2.3741 -1.1625 -2.0470
19884TIP3   OH281142   1.450   2.167   0.381 -0.2861  0.8735  0.2546
19884TIP3    H181143   1.400   2.187   0.302 -0.3672  1.4993  0.4637
19884TIP3    H281144   1.499   2.247   0.399  0.1125  0.5633  0.5558
19885TIP3   OH281145   0.479   6.588  14.928 -0.2958 -0.5100  0.2790
19885TIP3    H181146   0.428   6.635  14.995 -0.2090 -1.1934  0.8474
19885TIP3    H281147   0.570   6.612  14.946 -0.3443  0.0301 -0.1851
19886TIP3   OH281148   2.229   0.440   3.046 -0.2420  0.0678  0.2263
19886TIP3    H181149   2.279   0.517   3.075 -2.3235  1.2284  0.9766
19886TIP3    H281150   2.194   0.465   2.960 -0.9087 -0.0103  0.4633
19887TIP3   OH281151   0.424   5.919   1.166 -1.0114  0.3634  0.3349
19887TIP3    H181152   0.331   5.942   1.171 -1.0141  0.0913  2.3962
19887TIP3    H281153   0.447   5.894   1.255  0.8630 -0.3340 -0.3012
19888TIP3   OH281154   0.716   6.763   4.408  0.1007 -0.3786  0.2660
19888TIP3    H181155   0.770   6.712   4.468  2.5867 -0.4716 -1.8592
19888TIP3    H281156   0.648   6.802   4.463  2.0141 -0.6979  3.0374
19889TIP3   OH281157   3.517   6.258  15.246  0.5272 -0.6683  0.5154
19889TIP3    H181158   3.476   6.338  15.212  1.2534  0.0374  1.2381
19889TIP3    H281159   3.562   6.287  15.326  2.8534 -1.2643 -0.5021
19890TIP3   OH281160   1.339   2.456  14.474  0.4729  0.5054 -0.3334
19890TIP3    H181161   1.318   2.384  14.534  1.9662 -0.6893 -1.1731
19890TIP3    H281162   1.371   2.526  14.531 -2.1812  1.0777  0.6252
19891TIP3   OH281163   3.260   1.291  12.395  1.2090  0.1386  0.6610
19891TIP3    H181164   3.214   1.375  12.393  1.2402  0.1567 -1.3343
19891TIP3    H281165   3.349   1.311  12.366  1.3754 -0.4922  0.7184
19892TIP3   OH281166   0.891   2.837   4.262 -0.2258  0.6395  0.1996
19892TIP3    H181167   0.881   2.748   4.228  0.3893 -0.0373  1.7028
19892TIP3    H281168   0.918   2.825   4.353 -3.4348  2.3653  1.5072
19893TIP3   OH281169   5.055   2.311  13.069  1.0170  0.4228 -0.3168
19893TIP3    H181170   5.042   2.393  13.116 -0.2894 -0.3267  0.6924
19893TIP3    H281171   5.094   2.337  12.985  0.1253  2.1150 -0.2383
19894TIP3   OH281172   1.732   0.188   4.447 -0.0863 -0.7908 -0.7063
19894TIP3    H181173   1.707   0.277   4.422 -1.5958 -0.8254  0.5340
19894TIP3    H281174   1.731   0.139   4.364 -0.9546 -0.0277 -1.1646
19895TIP3   OH281175   0.825   5.562   3.062 -0.2014 -0.2223 -0.0808
19895TIP3    H181176   0.806   5.622   2.990  1.3791 -1.0144 -1.2126
19895TIP3    H281177   0.850   5.480   3.019  2.4659 -0.2225  1.2621
19896TIP3   OH281178   2.888   1.764  13.281 -0.6044 -0.0022 -0.2622
19896TIP3    H181179   2.808   1.736  13.326  0.0401 -2.7292 -0.6504
19896TIP3    H281180   2.937   1.812  13.348 -0.6347 -2.0980  1.3634
19897TIP3   OH281181   6.355   0.898   2.300  0.3157  0.3106  0.1636
19897TIP3    H181182   6.343   0.986   2.267  2.3104  0.9149  0.9231
19897TIP3    H281183   6.272   0.854   2.282 -2.1447  3.3252  2.8851
19898TIP3   OH281184   0.351   6.075  16.308  0.1509  0.5854  0.2125
19898TIP3    H181185   0.440   6.073  16.344  0.4013 -2.2709 -0.3426
19898TIP3    H281186   0.313   5.992  16.334 -1.5242  0.7302 -1.5769
19899TIP3   OH281187   1.121   6.387   2.971  0.2197 -0.9184  0.0924
19899TIP3    H181188   1.130   6.480   2.991  1.4224 -0.9802 -0.1032
19899TIP3    H281189   1.179   6.343   3.034  0.1778 -1.4818 -0.2508
19900TIP3   OH281190   3.978   5.908  13.809 -0.4554  0.1652  0.3673
19900TIP3    H181191   3.932   5.837  13.855  0.0607 -0.2417  0.2680
19900TIP3    H281192   3.947   5.902  13.719 -1.5544  1.0349  0.6706
19901TIP3   OH281193   5.422   4.655   5.407  0.1889  0.4966  0.0358
19901TIP3    H181194   5.381   4.734   5.443 -0.6092 -0.6629  1.8209
19901TIP3    H281195   5.388   4.584   5.461 -0.6135 -1.3480 -2.6949
19902TIP3   OH281196   3.094   2.353   5.476  0.1181  0.0099 -0.1609
19902TIP3    H181197   3.017   2.409   5.469  0.8613  1.0113 -0.5451
19902TIP3    H281198   3.152   2.385   5.407  0.6908 -1.0337 -0.1748
19903TIP3   OH281199   5.727   3.800  13.945 -0.1838  0.5744  0.1900
19903TIP3    H181200   5.796   3.863  13.967 -0.6564  1.9845 -2.0418
19903TIP3    H281201   5.773   3.730  13.898 -0.1977  1.5943 -1.4502
19904TIP3   OH281202   6.688   1.474  11.433 -0.2383  0.2797  0.2995
19904TIP3    H181203   6.616   1.412  11.447  0.4674 -0.3878  1.1328
19904TIP3    H281204   6.712   1.503  11.522  0.6297  0.3658  0.0471
19905TIP3   OH281205   0.657   3.288   3.851  0.6767  0.3089  0.0872
19905TIP3    H181206   0.655   3.198   3.817  0.0519  0.5031 -0.4086
19905TIP3    H281207   0.667   3.278   3.945  1.6743 -0.2606 -0.0700
19906TIP3   OH281208   4.698   4.649   1.107 -0.3350  0.7583  0.1693
19906TIP3    H181209   4.762   4.583   1.132 -1.7401 -0.0333  1.9769
19906TIP3    H281210   4.745   4.732   1.113  0.4421  0.2369  1.8939
19907TIP3   OH281211   6.517   6.558  11.159  0.1939 -0.0437 -0.2306
19907TIP3    H181212   6.523   6.601  11.244  0.9547  2.4334 -1.4388
19907TIP3    H281213   6.423   6.546  11.145 -0.2649  3.1572 -0.6431
19908TIP3   OH281214   6.715   2.776  14.234  0.0239 -0.1824 -0.0132
19908TIP3    H181215   6.794   2.796  14.284 -0.5410  1.7228  0.2091
19908TIP3    H281216   6.644   2.816  14.285 -1.0418 -1.4338 -0.4546
19909TIP3   OH281217   0.165   4.699   1.759  0.3365 -0.2856 -0.3045
19909TIP3    H181218   0.154   4.659   1.673  0.0390 -0.0358 -0.3879
19909TIP3    H281219   0.078   4.697   1.798  0.7137 -1.5143  0.5011
19910TIP3   OH281220   1.448   4.792  14.869 -0.1883  0.0457 -0.2492
19910TIP3    H181221   1.468   4.814  14.778  2.5443 -2.0974 -0.2825
19910TIP3    H281222   1.533   4.774  14.909 -1.2852  1.0508  2.8326
19911TIP3   OH281223   1.973   2.713  11.519  0.2261  0.1017  0.2193
19911TIP3    H181224   2.056   2.753  11.492  1.3843 -2.1597  0.2044
19911TIP3    H281225   1.932   2.685  11.437  0.6372 -0.9547  0.3615
19912TIP3   OH281226   5.791   5.690   3.127  0.0106 -0.0742  0.2275
19912TIP3    H181227   5.833   5.714   3.209 -0.9002 -0.6262  0.8681
19912TIP3    H281228   5.754   5.603   3.142  0.3964 -0.4760 -0.9831
19913TIP3   OH281229   6.107   4.364  13.035  0.1629  0.2981 -0.2120
19913TIP3    H181230   6.070   4.415  13.107 -0.8974 -0.2821 -0.3377
19913TIP3    H281231   6.173   4.308  13.076 -0.0331  0.3783  0.2097
19914TIP3   OH281232   5.718   2.129  14.296  0.9717  0.1095  0.0041
19914TIP3    H181233   5.807   2.096  14.306  1.0616  0.3202 -0.0764
19914TIP3    H281234   5.730   2.221  14.273  0.7102  1.3746  4.1221
19915TIP3   OH281235   0.797   6.460   3.290 -0.1426  0.1981 -0.1453
19915TIP3    H181236   0.871   6.520   3.294  0.6737 -0.7865  0.0513
19915TIP3    H281237   0.784   6.433   3.382  0.3800 -0.9212 -0.3713
19916TIP3   OH281238   5.224   4.962  14.495 -0.2642  0.0890 -0.0110
19916TIP3    H181239   5.144   4.912  14.511 -1.0115  0.8774 -1.1253
19916TIP3    H281240   5.246   5.001  14.580 -1.5245  0.5002  0.1435
19917TIP3   OH281241   1.344   6.187   0.565  0.3640 -0.1116  0.1581
19917TIP3    H181242   1.395   6.205   0.644 -1.9924 -3.5578  2.8243
19917TIP3    H281243   1.393   6.119   0.520  0.5869  0.2171 -0.0991
19918TIP3   OH281244   5.983   2.051   6.363  0.8326  0.9108  0.5179
19918TIP3    H181245   5.997   2.007   6.446 -0.4286 -1.4338 -0.4347
19918TIP3    H281246   5.975   1.981   6.299  0.8501  2.6097 -1.4635
19919TIP3   OH281247   1.935   3.538   3.309 -0.0063  0.7795 -0.0416
19919TIP3    H181248   1.842   3.544   3.332  0.1159  1.0614  0.3996
19919TIP3    H281249   1.981   3.557   3.391  0.4538 -2.5094  0.6214
19920TIP3   OH281250   0.125   1.080  10.855 -0.3289  0.0035 -0.6016
19920TIP3    H181251   0.036   1.110  10.837  0.3207  0.7781 -2.8332
19920TIP3    H281252   0.165   1.152  10.904 -1.7158 -1.5656  3.1810
19921TIP3   OH281253   2.711   4.650  12.670 -0.5485  0.1258 -0.1577
19921TIP3    H181254   2.674   4.736  12.688 -1.3527 -0.4152  0.8361
19921TIP3    H281255   2.643   4.605  12.620 -0.3340 -0.1204 -0.2294
19922TIP3   OH281256   5.443   4.461  14.850 -0.3249 -0.4659  0.0480
19922TIP3    H181257   5.501   4.390  14.822  0.1124 -0.3994  0.7504
19922TIP3    H281258   5.393   4.484  14.772 -0.0359 -1.1338 -0.3395
19923TIP3   OH281259   2.257   5.890  15.373 -0.5361  0.1670 -0.1724
19923TIP3    H181260   2.223   5.899  15.285  1.0495  0.7733 -0.7663
19923TIP3    H281261   2.309   5.969  15.387 -0.7541  0.0857  1.3164
19924TIP3   OH281262   2.144   3.422   5.290 -1.2895  0.6934 -0.6676
19924TIP3    H181263   2.212   3.487   5.274 -1.4673  1.1548  0.3490
19924TIP3    H281264   2.124   3.386   5.203 -0.3489  1.1435 -1.0826
19925TIP3   OH281265   1.492   2.570  11.491  0.3166  0.0872 -0.2519
19925TIP3    H181266   1.406   2.589  11.455 -0.2504  0.9316  1.4469
19925TIP3    H281267   1.483   2.483  11.531  0.1670  0.2839  0.1484
19926TIP3   OH281268   5.274   6.502  12.104 -0.0549  0.1492 -0.4255
19926TIP3    H181269   5.282   6.596  12.120  0.6994  0.1451 -0.7463
19926TIP3    H281270   5.233   6.496  12.017  1.0883  0.1955 -0.9821
19927TIP3   OH281271   1.744   2.483   1.756  0.0190  0.7834  0.5638
19927TIP3    H181272   1.756   2.415   1.690  0.0668 -1.5056  2.8064
19927TIP3    H281273   1.658   2.522   1.735 -0.3131 -0.4081 -0.3922
19928TIP3   OH281274   2.398   4.612  13.018 -1.1369 -0.4385  0.2550
19928TIP3    H181275   2.462   4.543  13.038 -0.8198 -0.0498  0.5942
19928TIP3    H281276   2.376   4.598  12.926 -0.6432 -0.6452  0.1643
19929TIP3   OH281277   0.254   6.735  12.602  0.4000 -0.0661  0.6950
19929TIP3    H181278   0.277   6.820  12.566 -0.7440 -0.1755 -0.3264
19929TIP3    H281279   0.320   6.720  12.670  0.3456  1.8220  1.2242
19930TIP3   OH281280   3.315   4.188   0.865  0.7270  0.0201  0.5582
19930TIP3    H181281   3.386   4.202   0.803  0.1544  0.9809  0.1111
19930TIP3    H281282   3.295   4.275   0.900 -0.8358 -0.0877  0.0040
19931TIP3   OH281283   0.649   6.465   1.035 -0.2089 -0.0015  0.1805
19931TIP3    H181284   0.743   6.464   1.054 -0.3509  1.9062  1.2691
19931TIP3    H281285   0.622   6.374   1.046  1.4780 -0.5591  0.0136
19932TIP3   OH281286   2.775   5.485   0.305 -0.5266  0.1074  0.1755
19932TIP3    H181287   2.823   5.442   0.234 -2.3630 -1.0041 -0.4681
19932TIP3    H281288   2.796   5.432   0.382  2.0382  1.7360  0.6856
19933TIP3   OH281289   4.948   3.319   5.409  1.0005  0.2836 -0.1346
19933TIP3    H181290   4.951   3.335   5.315  3.7906 -0.3570 -0.2349
19933TIP3    H281291   4.934   3.405   5.448 -0.1836  0.5508 -1.0980
19934TIP3   OH281292   3.031   2.687   4.474 -0.1673 -0.2762  0.0715
19934TIP3    H181293   3.095   2.749   4.439  2.1579 -2.2801  0.5562
19934TIP3    H281294   2.992   2.647   4.396 -0.7676  0.8444 -0.2252
19935TIP3   OH281295   3.551   2.049  13.105  0.0381 -0.2895 -0.1741
19935TIP3    H181296   3.591   1.966  13.079 -3.0343 -1.5872 -1.2616
19935TIP3    H281297   3.566   2.054  13.199  1.0625 -1.5954 -0.2348
19936TIP3   OH281298   0.699   4.529  11.909 -0.1164  0.1237  0.2993
19936TIP3    H181299   0.701   4.453  11.967  1.3178 -1.8128 -2.0958
19936TIP3    H281300   0.753   4.594  11.953 -0.4731 -0.5999  1.8927
19937TIP3   OH281301   1.515   1.095  15.695 -0.0656  0.1175 -0.2459
19937TIP3    H181302   1.424   1.071  15.710 -0.0948  1.0501  1.2214
19937TIP3    H281303   1.548   1.120  15.781  1.6490 -0.4073 -0.7147
19938TIP3   OH281304   3.788   5.455  11.958  0.2439  0.1907  0.1681
19938TIP3    H181305   3.722   5.389  11.977 -0.2890  0.5334 -0.4722
19938TIP3    H281306   3.782   5.469  11.864  1.9378 -0.5174 -0.0776
19939TIP3   OH281307   5.915   4.056   5.045 -0.2203 -0.0641 -0.1620
19939TIP3    H181308   5.887   4.045   5.136  0.5586 -1.9610 -0.1226
19939TIP3    H281309   5.835   4.042   4.994 -0.8918  2.0267  0.2147
19940TIP3   OH281310   2.825   5.265  13.078 -0.6548  0.1739 -0.0182
19940TIP3    H181311   2.855   5.354  13.060 -0.4490  0.2219  0.5356
19940TIP3    H281312   2.901   5.210  13.061  0.0182  0.3695  2.1059
19941TIP3   OH281313   2.229   4.467   3.645 -0.5206 -0.0315  0.1183
19941TIP3    H181314   2.254   4.487   3.555 -2.5924  0.9343 -0.2844
19941TIP3    H281315   2.213   4.373   3.645  0.5725 -0.2348 -0.2168
19942TIP3   OH281316   4.557   3.611   1.142  0.8447  1.1219  0.0829
19942TIP3    H181317   4.477   3.650   1.178  1.1110  1.1570  0.6432
19942TIP3    H281318   4.561   3.524   1.182  0.4833  0.6794 -0.8288
19943TIP3   OH281319   6.451   0.236   6.556 -0.2956  0.6505  0.7111
19943TIP3    H181320   6.377   0.183   6.586  0.3776 -0.0241  1.2077
19943TIP3    H281321   6.411   0.317   6.524 -1.4858 -0.8070 -1.7066
19944TIP3   OH281322   5.940   0.169  16.444 -0.1784  0.1002 -0.0784
19944TIP3    H181323   5.940   0.264  16.440 -0.6801  0.1139  0.1423
19944TIP3    H281324   6.030   0.144  16.426  0.1002  0.6456  0.4989
19945TIP3   OH281325   0.742   1.180  17.130 -0.1087 -0.6922  0.2386
19945TIP3    H181326   0.710   1.182  17.040 -0.6652 -0.7527  0.4352
19945TIP3    H281327   0.697   1.252  17.173 -0.1201 -0.8910  0.5615
19946TIP3   OH281328   3.860   1.003  15.501  0.4186 -0.5876  0.0994
19946TIP3    H181329   3.853   0.970  15.412  1.9832 -1.7531  0.3742
19946TIP3    H281330   3.771   1.034  15.522  0.2767  0.8387 -2.2474
19947TIP3   OH281331   0.888   2.621  11.345  0.2127 -0.3160  0.4467
19947TIP3    H181332   0.953   2.665  11.290  0.3679 -0.9118  0.1417
19947TIP3    H281333   0.848   2.556  11.287  0.5603 -1.1298  1.1013
19948TIP3   OH281334   6.176   2.790   1.843  0.0537 -0.1359  0.2514
19948TIP3    H181335   6.160   2.844   1.920  0.3966 -3.1637  2.6173
19948TIP3    H281336   6.267   2.806   1.820 -0.1997  1.1843  0.0974
19949TIP3   OH281337   0.914   4.027   0.166  0.0409  0.1632 -0.1845
19949TIP3    H181338   0.941   4.095   0.104  3.2603 -0.9468 -0.1931
19949TIP3    H281339   0.888   3.953   0.111 -1.7091  0.7154 -0.1586
19950TIP3   OH281340   3.854   0.258  14.487  0.3796 -0.1339  0.0066
19950TIP3    H181341   3.764   0.290  14.481  0.8419  1.0739 -1.1126
19950TIP3    H281342   3.863   0.225  14.577 -0.7547  1.0254  0.5677
19951TIP3   OH281343   3.215   2.664   4.039 -0.0298  0.0435 -0.1477
19951TIP3    H181344   3.139   2.616   4.006  0.0594 -0.1019 -0.1473
19951TIP3    H281345   3.210   2.750   3.997  0.5918 -0.4553 -1.3007
19952TIP3   OH281346   5.371   0.285   4.493  0.7757 -0.1352 -0.3302
19952TIP3    H181347   5.440   0.302   4.429  1.7067  1.4593  1.0150
19952TIP3    H281348   5.418   0.261   4.573 -0.1637  1.1729  0.6689
19953TIP3   OH281349   5.909   4.704  10.990  0.4915 -0.6176 -1.1438
19953TIP3    H181350   5.864   4.773  10.941 -2.4291 -2.2799 -0.9930
19953TIP3    H281351   5.964   4.661  10.924  1.8763  1.3816 -1.3693
19954TIP3   OH281352   1.456   6.746   1.166 -0.5386 -0.0052 -0.6565
19954TIP3    H181353   1.394   6.678   1.191  0.7048 -1.1458 -0.5278
19954TIP3    H281354   1.413   6.792   1.094 -1.5395 -0.7287 -0.5474
19955TIP3   OH281355   5.249   6.242  14.614 -0.1201  0.6879 -0.1804
19955TIP3    H181356   5.294   6.157  14.619  1.6427  1.5723  0.0480
19955TIP3    H281357   5.187   6.240  14.686 -0.0493 -0.3784 -0.1201
19956TIP3   OH281358   6.588   3.134  15.694 -0.1622 -0.2663  0.1141
19956TIP3    H181359   6.517   3.162  15.752 -1.2971 -2.6619 -0.0021
19956TIP3    H281360   6.632   3.063  15.742  0.1319 -0.9488 -1.1210
19957TIP3   OH281361   5.073   0.198   3.417  0.0231  0.2451  0.8206
19957TIP3    H181362   4.991   0.198   3.368  0.3452 -0.6419  0.2649
19957TIP3    H281363   5.094   0.291   3.428 -1.5588  0.5250  1.8667
19958TIP3   OH281364   6.668   4.472   5.713  0.1015  0.8577  0.3457
19958TIP3    H181365   6.699   4.396   5.763  0.9123  1.6775  1.1063
19958TIP3    H281366   6.733   4.540   5.728  0.3139  1.1919 -1.7214
19959TIP3   OH281367   2.362   1.692   3.769 -0.2745  0.0886 -0.0319
19959TIP3    H181368   2.284   1.746   3.754 -0.4110  0.1568  0.8431
19959TIP3    H281369   2.433   1.755   3.777 -0.5146  0.2099  1.5080
19960TIP3   OH281370   1.171   3.940   5.276 -0.3572 -0.6180  0.8886
19960TIP3    H181371   1.092   3.904   5.316 -1.2091  1.2080  0.9097
19960TIP3    H281372   1.140   4.008   5.216  1.1470 -0.5171  0.1722
19961TIP3   OH281373   2.887   2.347  12.447  0.1507 -0.1631 -0.3980
19961TIP3    H181374   2.968   2.304  12.420  0.6933  0.8782 -0.5076
19961TIP3    H281375   2.820   2.279  12.444  1.2640 -1.3633  0.9679
19962TIP3   OH281376   3.932   0.178   2.936  0.0402  0.5791  0.0335
19962TIP3    H181377   3.856   0.134   2.974  0.9401 -1.9194 -0.8093
19962TIP3    H281378   3.943   0.136   2.850  1.8457  1.4840 -0.2258
19963TIP3   OH281379   6.007   5.566  10.999 -0.0780  0.0169  0.6959
19963TIP3    H181380   6.077   5.536  10.941 -0.5534  0.6120 -0.2066
19963TIP3    H281381   5.982   5.652  10.964 -1.6146 -0.4116  0.6810
19964TIP3   OH281382   2.566   1.346  17.168 -0.6631  0.3175 -0.4364
19964TIP3    H181383   2.590   1.371  17.079  0.2341 -0.9141 -0.5557
19964TIP3    H281384   2.581   1.252  17.172 -0.8648  0.3228  0.9667
19965TIP3   OH281385   6.708   3.998  14.831 -0.1008  0.7563  0.1673
19965TIP3    H181386   6.614   3.980  14.835  0.1229 -1.3465 -1.7140
19965TIP3    H281387   6.749   3.924  14.875  0.7203  1.9626  1.5344
19966TIP3   OH281388   1.628   0.199   2.902 -0.0587  0.2195  0.4082
19966TIP3    H181389   1.560   0.192   2.970  0.1126 -0.5263  0.5179
19966TIP3    H281390   1.710   0.207   2.951  0.0177  0.1995  0.2845
19967TIP3   OH281391   1.780   5.665   2.085 -0.7218  0.0111 -0.0573
19967TIP3    H181392   1.855   5.700   2.036 -0.9741  1.4554  0.5168
19967TIP3    H281393   1.813   5.586   2.126  0.1985  0.0889 -0.6135
19968TIP3   OH281394   4.867   6.003  15.413 -0.6803  0.1579 -0.3301
19968TIP3    H181395   4.948   5.983  15.460 -0.3911 -1.5297 -1.4176
19968TIP3    H281396   4.799   5.957  15.462 -2.0325  5.3400  3.4373
19969TIP3   OH281397   0.172   0.844  14.934  0.2089  0.4393  0.7732
19969TIP3    H181398   0.222   0.918  14.900  0.2822 -0.5361 -1.4032
19969TIP3    H281399   0.206   0.768  14.887 -1.4010 -0.6525  1.2789
19970TIP3   OH281400   5.321   5.328  11.494  0.1400 -0.0048  0.2573
19970TIP3    H181401   5.404   5.280  11.490  0.0061 -0.3373  1.1965
19970TIP3    H281402   5.265   5.282  11.431  1.0814  1.1248 -1.5125
19971TIP3   OH281403   0.381   3.541  12.286  0.1785 -0.0861  0.1540
19971TIP3    H181404   0.363   3.449  12.272 -0.8771  0.3746 -1.8181
19971TIP3    H281405   0.375   3.581  12.199  1.8461  1.6512  0.7452
19972TIP3   OH281406   6.300   4.627   1.023  0.0998 -0.2118 -0.9226
19972TIP3    H181407   6.208   4.602   1.021 -0.3801  1.4556 -0.4464
19972TIP3    H281408   6.300   4.722   1.026  1.8556 -0.1630 -1.2478
19973TIP3   OH281409   3.904   4.793  12.157 -0.1326  0.3762 -0.4558
19973TIP3    H181410   3.853   4.838  12.224 -0.4235 -2.4795  1.3940
19973TIP3    H281411   3.898   4.850  12.080 -2.8651  2.0091  0.8243
19974TIP3   OH281412   4.506   3.734   3.534 -0.8566 -0.3389 -0.1023
19974TIP3    H181413   4.519   3.670   3.604 -0.3717  0.1996  0.3098
19974TIP3    H281414   4.422   3.775   3.555 -0.5392  0.0843  0.3923
19975TIP3   OH281415   2.353   1.453  12.656 -0.2304  0.0468  0.6676
19975TIP3    H181416   2.276   1.443  12.712 -1.0117  1.1821 -0.1621
19975TIP3    H281417   2.399   1.530  12.690 -0.6918  0.7246 -0.1856
19976TIP3   OH281418   3.255   2.072   1.723 -0.3390 -0.0492 -0.2964
19976TIP3    H181419   3.285   2.125   1.650  1.6421  1.0157  1.2144
19976TIP3    H281420   3.187   2.124   1.765  1.5234  1.3539  1.1170
19977TIP3   OH281421   0.864   5.000   1.650  0.2131 -0.2036  0.2141
19977TIP3    H181422   0.867   5.051   1.731  0.3626  0.2109 -0.0464
19977TIP3    H281423   0.935   4.937   1.659 -0.6108 -1.0525  0.9762
19978TIP3   OH281424   5.829   6.633  14.363  0.3901  0.3177 -0.1381
19978TIP3    H181425   5.751   6.596  14.322  0.5721 -0.6952  0.4179
19978TIP3    H281426   5.886   6.558  14.380  1.2510  0.9783 -0.0224
19979TIP3   OH281427   5.728   4.286  13.418  0.3412  0.3160  0.2112
19979TIP3    H181428   5.708   4.344  13.491 -1.5437  0.6436 -0.4877
19979TIP3    H281429   5.773   4.341  13.354 -0.6602  0.8139 -0.0820
19980TIP3   OH281430   1.727   1.592   3.437 -0.6222  0.2679 -0.3528
19980TIP3    H181431   1.715   1.497   3.432 -0.1160 -0.0701  2.7985
19980TIP3    H281432   1.639   1.628   3.432 -1.1155 -0.6196  1.1356
19981TIP3   OH281433   6.343   2.155  14.079 -0.1946 -0.0976 -0.5816
19981TIP3    H181434   6.402   2.200  14.019 -0.5212 -0.3372 -1.0898
19981TIP3    H281435   6.278   2.114  14.023 -0.5723 -0.2355 -0.0567
19982TIP3   OH281436   6.158   1.195   3.281 -0.4956  0.0854 -0.0438
19982TIP3    H181437   6.225   1.127   3.285 -1.2341 -0.5844  2.1358
19982TIP3    H281438   6.080   1.150   3.248 -1.0880 -0.2612  1.7501
19983TIP3   OH281439   6.479   2.126  14.303  0.3698 -0.2960 -0.6488
19983TIP3    H181440   6.494   2.215  14.333 -0.8614 -0.0588 -0.6539
19983TIP3    H281441   6.439   2.136  14.217 -0.4988 -0.8000 -0.3283
19984TIP3   OH281442   4.787   2.195  15.481 -0.1993  0.3990 -0.4685
19984TIP3    H181443   4.778   2.268  15.542  0.2883  0.6072 -0.6338
19984TIP3    H281444   4.873   2.157  15.502 -0.5047 -0.2064 -0.2992
19985TIP3   OH281445   1.234   0.093   0.409 -0.1944  0.4844 -0.6847
19985TIP3    H181446   1.262   0.007   0.440  0.6460  0.6689 -0.9032
19985TIP3    H281447   1.139   0.093   0.419 -0.2204 -0.5455 -0.8755
19986TIP3   OH281448   3.039   0.957   4.461  0.2179  0.0184 -0.0106
19986TIP3    H181449   3.017   1.018   4.531  1.4269  2.2142 -1.4417
19986TIP3    H281450   3.097   1.006   4.403  1.2994 -2.5249 -1.2435
19987TIP3   OH281451   1.394   5.945   2.053 -0.3474 -0.0495 -0.6022
19987TIP3    H181452   1.350   6.029   2.041  1.8127  1.1490 -0.6097
19987TIP3    H281453   1.371   5.919   2.142 -1.6708  0.1263 -0.8677
19988TIP3   OH281454   3.286   4.649  15.448  0.0316 -0.2146 -0.1724
19988TIP3    H181455   3.262   4.676  15.537 -1.3930  0.2684 -0.6619
19988TIP3    H281456   3.338   4.721  15.414 -0.9334  0.4429 -0.3148
19989TIP3   OH281457   5.924   2.078  14.757  0.1644  0.2172 -0.4971
19989TIP3    H181458   5.939   2.158  14.806  2.9662  0.9921 -2.3640
19989TIP3    H281459   5.979   2.012  14.799  0.4055  0.1482 -0.9139
19990TIP3   OH281460   2.450   6.597  12.568 -0.1920  0.5027  0.8495
19990TIP3    H181461   2.469   6.682  12.528  1.0209  0.5389  1.4515
19990TIP3    H281462   2.408   6.619  12.651  1.6811  0.6217  1.8268
19991TIP3   OH281463   3.554   5.992  11.378  0.0540  0.4542 -0.4182
19991TIP3    H181464   3.511   6.007  11.294  0.8453 -1.1410 -1.1532
19991TIP3    H281465   3.490   5.943  11.430  0.2718 -0.2835 -0.8310
19992TIP3   OH281466   5.433   3.052  11.553  0.5088 -0.3494  0.1973
19992TIP3    H181467   5.480   2.998  11.490 -0.9145 -1.0352 -0.3153
19992TIP3    H281468   5.480   3.038  11.636  0.7057 -1.6904 -0.1156
19993TIP3   OH281469   5.912   5.546  15.787  0.0252  0.2023  0.3340
19993TIP3    H181470   5.827   5.568  15.825 -0.9236 -1.2087 -0.8650
19993TIP3    H281471   5.921   5.452  15.801  0.7958  0.1092 -0.6994
19994TIP3   OH281472   3.609   0.379  14.808 -0.3187 -0.1779  0.0944
19994TIP3    H181473   3.624   0.434  14.731 -1.5966 -0.1522 -0.1531
19994TIP3    H281474   3.689   0.327  14.816 -0.5868 -0.9741 -1.9088
19995TIP3   OH281475   2.680   2.613  13.638  0.0407 -0.2661  0.5945
19995TIP3    H181476   2.766   2.639  13.606  0.4991  0.6964  2.4826
19995TIP3    H281477   2.628   2.694  13.634 -1.0784 -1.0060 -1.2916
19996TIP3   OH281478   1.455   5.147   2.930  0.2566  0.1378 -0.7451
19996TIP3    H181479   1.378   5.203   2.924 -0.0260 -0.2465 -0.7580
19996TIP3    H281480   1.423   5.060   2.907  0.3544 -0.3395  0.8232
19997TIP3   OH281481   1.878   0.703  15.012 -0.0670  0.5967 -0.5109
19997TIP3    H181482   1.958   0.703  14.959  0.4075  1.3557  0.1848
19997TIP3    H281483   1.901   0.753  15.090 -1.4536  1.4643 -0.6387
19998TIP3   OH281484   4.145   5.956  12.833  0.1295 -0.0409 -0.2856
19998TIP3    H181485   4.136   5.891  12.903 -0.9696  0.1250 -0.2634
19998TIP3    H281486   4.192   6.028  12.875 -0.1703 -0.1069  0.1808
19999TIP3   OH281487   4.421   2.415   0.629 -0.4363  0.5687 -0.2569
19999TIP3    H181488   4.501   2.373   0.597 -0.1385  0.7152  0.2861
19999TIP3    H281489   4.351   2.355   0.603  0.0234 -0.5255  0.9209
20000TIP3   OH281490   5.058   3.424  11.281 -0.1775 -0.0575  0.0232
20000TIP3    H181491   5.135   3.480  11.276  1.1748 -1.9565 -2.8910
20000TIP3    H281492   5.086   3.349  11.334 -1.0816  0.5825  1.5031
20001TIP3   OH281493   4.103   5.497  16.374 -0.2548 -0.0949  0.1573
20001TIP3    H181494   4.152   5.570  16.337 -1.1162  1.0167  1.1155
20001TIP3    H281495   4.050   5.464  16.301  0.1429  0.2353 -0.2848
20002TIP3   OH281496   1.525   5.498   2.710  0.1320 -0.2609  0.3337
20002TIP3    H181497   1.473   5.470   2.635 -2.1702  1.6246  1.1026
20002TIP3    H281498   1.468   5.558   2.758  2.6756  1.1374  1.8540
20003TIP3   OH281499   2.907   4.163  17.105  0.0407 -0.4805  0.1554
20003TIP3    H181500   2.896   4.068  17.108 -0.5970 -0.4048  0.7760
20003TIP3    H281501   2.985   4.177  17.052  0.5634 -1.3830  0.6573
20004TIP3   OH281502   2.231   4.881   0.778  0.1878  0.0045  0.2297
20004TIP3    H181503   2.322   4.884   0.806  0.0338 -1.0613  0.9360
20004TIP3    H281504   2.233   4.903   0.685  1.0841  0.5864  0.3710
20005TIP3   OH281505   3.330   5.803   0.246 -0.7050  0.5712 -0.6645
20005TIP3    H181506   3.313   5.870   0.312  1.8110  0.3823  0.2992
20005TIP3    H281507   3.424   5.786   0.253 -1.1600 -2.8505 -1.0596
20006TIP3   OH281508   3.592   4.179  12.348  0.0524  0.0764  0.3252
20006TIP3    H181509   3.507   4.199  12.386  1.0228  2.7597  1.2983
20006TIP3    H281510   3.654   4.186  12.420  1.3939  0.6889 -0.8268
20007TIP3   OH281511   4.831   3.166   5.042  0.5712 -0.1743  0.2073
20007TIP3    H181512   4.909   3.172   5.097  1.3115  0.1089 -0.8398
20007TIP3    H281513   4.865   3.156   4.953 -0.4474  3.4218 -0.7864
20008TIP3   OH281514   0.372   3.225   1.878  0.0140 -0.1459  0.8291
20008TIP3    H181515   0.440   3.239   1.944 -0.6895  0.4920  1.4351
20008TIP3    H281516   0.410   3.259   1.797  0.6012 -0.2473  1.0579
20009TIP3   OH281517   5.075   3.939   5.993 -0.4024  0.1948  0.4203
20009TIP3    H181518   5.138   3.972   6.057  0.7446  0.5361 -0.8317
20009TIP3    H281519   5.076   4.004   5.922 -0.3095 -1.0220 -0.7382
20010TIP3   OH281520   0.607   0.411  14.730 -0.2047 -0.7775 -0.3389
20010TIP3    H181521   0.516   0.394  14.753  0.0974 -1.6063  0.2840
20010TIP3    H281522   0.643   0.325  14.706  0.4110 -0.4615 -0.5806
20011TIP3   OH281523   0.813   0.439  13.045 -0.0236 -0.2438 -0.4005
20011TIP3    H181524   0.743   0.504  13.059 -0.4037 -0.2573 -2.0619
20011TIP3    H281525   0.850   0.425  13.133  0.5007  2.6810 -0.0402
20012TIP3   OH281526   3.768   4.321   1.452 -0.1534  0.5919  0.1739
20012TIP3    H181527   3.726   4.276   1.379  0.3679  0.8937 -0.3238
20012TIP3    H281528   3.800   4.251   1.509  0.8018  0.3062 -0.6760
20013TIP3   OH281529   0.524   1.382  14.856  0.2984 -0.1029 -0.1836
20013TIP3    H181530   0.591   1.337  14.805 -0.5488 -0.4474 -1.0082
20013TIP3    H281531   0.548   1.365  14.947  1.7260  0.3667 -0.4520
20014TIP3   OH281532   4.345   3.262  11.033  0.1239 -0.7001 -0.4286
20014TIP3    H181533   4.259   3.298  11.010  0.2064 -0.4781 -0.3814
20014TIP3    H281534   4.406   3.334  11.022  0.0553 -0.3519  1.2483
20015TIP3   OH281535   3.591   2.590   6.103 -0.1967  0.2970  0.0243
20015TIP3    H181536   3.509   2.639   6.104  1.0429  2.5272 -1.2588
20015TIP3    H281537   3.660   2.656   6.104  1.5892 -1.4158 -1.2099
20016TIP3   OH281538   2.562   4.595   0.643  0.2449 -0.0293 -0.0316
20016TIP3    H181539   2.574   4.534   0.572 -0.3232  0.0685 -0.2192
20016TIP3    H281540   2.642   4.588   0.696  0.9692  0.3868 -1.0351
20017TIP3   OH281541   2.834   0.064   1.263  0.3993 -0.0368 -0.5964
20017TIP3    H181542   2.898   0.059   1.191 -0.3440 -2.0479 -1.1752
20017TIP3    H281543   2.754   0.026   1.226 -0.3726  0.0614  0.9226
20018TIP3   OH281544   6.049   0.544  11.469 -0.2333 -0.4262 -0.1404
20018TIP3    H181545   5.960   0.577  11.486 -0.4756 -0.2399 -1.5838
20018TIP3    H281546   6.041   0.497  11.386  1.2862  0.7842 -1.0268
20019TIP3   OH281547   4.738   6.235   1.794 -0.6354 -0.4140 -0.2055
20019TIP3    H181548   4.768   6.241   1.703 -0.5566 -1.2335 -0.2438
20019TIP3    H281549   4.813   6.197   1.840 -1.0266 -0.9229  0.0129
20020TIP3   OH281550   0.026   2.869  10.789 -0.3721  0.0709 -0.2994
20020TIP3    H181551  -0.054   2.911  10.820  0.5837 -0.0705  2.6923
20020TIP3    H281552   0.019   2.778  10.817  0.8273  0.0702  0.0775
20021TIP3   OH281553   3.371   6.714  12.665  0.0299  0.0165  0.4820
20021TIP3    H181554   3.320   6.795  12.661  0.2061  0.2316  2.2284
20021TIP3    H281555   3.350   6.669  12.582 -1.9679  0.7005  0.5682
20022TIP3   OH281556   4.783   6.684   3.755  0.0990 -0.1135 -0.2045
20022TIP3    H181557   4.796   6.706   3.847  2.7812  1.0314 -0.7736
20022TIP3    H281558   4.725   6.753   3.723 -1.3150 -0.8331  0.6898
20023TIP3   OH281559   5.634   0.162  17.005  0.3196 -0.5442 -0.2505
20023TIP3    H181560   5.671   0.119  17.082 -0.2799 -0.7906 -0.0993
20023TIP3    H281561   5.710   0.197  16.958  0.6894 -0.3883  0.4544
20024TIP3   OH281562   0.369   3.054   1.404  0.3375 -0.4959  0.5434
20024TIP3    H181563   0.449   3.028   1.448  2.2182  0.2678 -2.1678
20024TIP3    H281564   0.370   3.007   1.320 -2.6202 -1.2568  0.7931
20025TIP3   OH281565   2.947   0.804   0.043 -0.2738 -0.2077 -0.1638
20025TIP3    H181566   2.907   0.738  -0.014 -0.3921 -0.3684  0.1051
20025TIP3    H281567   2.966   0.758   0.124 -1.1353  0.2875  0.3353
20026TIP3   OH281568   5.860   6.368   3.636 -0.7613  0.3239  0.4317
20026TIP3    H181569   5.818   6.354   3.551  0.7474  0.8191 -0.4268
20026TIP3    H281570   5.835   6.291   3.687 -0.3439 -0.8326 -1.0298
20027TIP3   OH281571   0.397   2.258  17.224  0.0968 -0.5559  0.7265
20027TIP3    H181572   0.364   2.346  17.209 -1.3087 -1.1071  0.3384
20027TIP3    H281573   0.428   2.258  17.314  0.3945  0.4149  0.6286
20028TIP3   OH281574   3.985   3.016   3.450 -0.2789  0.2136 -0.2725
20028TIP3    H181575   3.925   2.950   3.416  1.1817 -2.1632  1.4004
20028TIP3    H281576   3.935   3.061   3.518 -0.3005 -1.6992  1.0699
20029TIP3   OH281577   0.614   4.919  11.452 -0.1264  0.0248  0.1434
20029TIP3    H181578   0.633   4.857  11.522 -0.4689  1.3109  1.4174
20029TIP3    H281579   0.634   4.871  11.371 -2.5065 -2.5473  0.9213
20030TIP3   OH281580   3.599   1.661   4.043  0.3525 -0.6323  0.0834
20030TIP3    H181581   3.547   1.695   4.116  0.8976  0.0539  0.1677
20030TIP3    H281582   3.679   1.715   4.044  0.3256 -0.5613 -1.0733
20031TIP3   OH281583   4.471   0.312  11.897  0.3897 -0.0231  0.0184
20031TIP3    H181584   4.481   0.240  11.960 -0.6709  0.4317  0.7372
20031TIP3    H281585   4.497   0.274  11.813 -2.0152 -1.8713  0.0035
20032TIP3   OH281586   5.153   6.232   0.196  0.0116 -0.3756 -0.5640
20032TIP3    H181587   5.059   6.215   0.207 -0.0434  0.5424  0.5285
20032TIP3    H281588   5.157   6.322   0.165  0.5273 -0.5604 -1.0419
20033TIP3   OH281589   3.580   6.519  14.097  0.5815  0.7100 -0.4514
20033TIP3    H181590   3.616   6.462  14.029 -2.1604 -0.9993 -0.6222
20033TIP3    H281591   3.625   6.602  14.085  3.1740 -0.7288 -1.6186
20034TIP3   OH281592   1.859   4.725  12.101  0.6804  0.0865  0.1826
20034TIP3    H181593   1.765   4.720  12.119  0.4395 -0.8290 -1.1940
20034TIP3    H281594   1.885   4.812  12.132 -0.5520  0.2386  0.8518
20035TIP3   OH281595   0.221   1.562   5.113 -0.1125  0.1557  0.3878
20035TIP3    H181596   0.162   1.504   5.067  0.1791 -0.4704  0.7938
20035TIP3    H281597   0.168   1.639   5.134 -0.2239  0.5121 -1.0684
20036TIP3   OH281598   5.882   6.621   3.117  0.0771  0.6192 -0.2879
20036TIP3    H181599   5.970   6.650   3.142  0.0899  0.2405  0.1277
20036TIP3    H281600   5.880   6.528   3.142 -0.5598  0.7096  0.0307
20037TIP3   OH281601   3.577   0.603   4.113 -0.4758 -0.4574  0.0376
20037TIP3    H181602   3.666   0.616   4.147  0.0614  0.6793 -1.6670
20037TIP3    H281603   3.522   0.657   4.170  0.3115  0.9125 -0.4505
20038TIP3   OH281604   6.470   1.878  12.047 -0.4784 -0.3163 -0.8019
20038TIP3    H181605   6.445   1.848  12.135 -0.5524  1.9199 -0.0009
20038TIP3    H281606   6.555   1.921  12.060 -0.7769  0.5691 -1.6807
20039TIP3   OH281607   2.569   3.430   2.779 -0.1159 -0.2884 -0.0976
20039TIP3    H181608   2.482   3.469   2.771  0.3641  0.8477 -0.0398
20039TIP3    H281609   2.556   3.353   2.834 -1.0265  0.0650  0.2052
20040TIP3   OH281610   1.635   4.864  15.533  0.4653 -0.5040 -0.0474
20040TIP3    H181611   1.666   4.805  15.602  0.6503 -1.2932 -0.7918
20040TIP3    H281612   1.648   4.952  15.569 -0.1667 -0.9137  1.2256
20041TIP3   OH281613   3.582   4.629   3.109 -0.1301 -0.7854 -0.0404
20041TIP3    H181614   3.489   4.640   3.129  0.2672  0.9722  1.0312
20041TIP3    H281615   3.612   4.562   3.170 -0.7082 -1.5638 -0.5713
20042TIP3   OH281616   5.157   2.805   3.494 -0.3529  0.2079  0.2124
20042TIP3    H181617   5.221   2.737   3.473 -0.3438 -0.4408  2.1957
20042TIP3    H281618   5.182   2.879   3.437  0.8174 -0.7579 -0.5919
20043TIP3   OH281619   3.088   4.067  14.282  0.2982  0.5134 -0.1409
20043TIP3    H181620   3.030   4.080  14.207  0.2012  0.0305 -0.1488
20043TIP3    H281621   3.035   4.021  14.346  1.1756 -1.6468 -0.8496
20044TIP3   OH281622   4.688   3.477  11.977 -0.0778  0.1940  0.3551
20044TIP3    H181623   4.720   3.525  12.054 -0.3730  1.6043 -0.3765
20044TIP3    H281624   4.756   3.411  11.961  0.8285  0.9868  0.8105
20045TIP3   OH281625   1.541   3.900   4.766 -0.8033  0.0390 -0.6897
20045TIP3    H181626   1.602   3.827   4.772 -0.9842 -0.1245 -0.8148
20045TIP3    H281627   1.542   3.940   4.852  0.4648  0.8405 -1.0572
20046TIP3   OH281628   5.211   3.991  16.132  0.1583  0.2524  0.4526
20046TIP3    H181629   5.184   3.915  16.183  0.0542  1.4549  2.2736
20046TIP3    H281630   5.296   3.967  16.095  0.3870 -0.5353  1.4580
20047TIP3   OH281631   3.449   0.708  11.377  0.4534 -0.0234 -0.4248
20047TIP3    H181632   3.515   0.769  11.412 -1.2251  0.2875  2.5336
20047TIP3    H281633   3.366   0.755  11.385 -0.8375 -2.3786  1.4526
20048TIP3   OH281634   0.273   1.604   5.393 -0.1137 -0.3755 -0.2866
20048TIP3    H181635   0.271   1.630   5.301 -1.4982 -0.8497 -0.4185
20048TIP3    H281636   0.210   1.532   5.399  0.8473 -1.1554  0.8104
20049TIP3   OH281637   5.592   6.521   3.216  0.0434 -0.6171 -0.4839
20049TIP3    H181638   5.519   6.474   3.176 -0.9671  1.3701 -1.0615
20049TIP3    H281639   5.620   6.584   3.150  2.3122 -1.3053 -0.2719
20050TIP3   OH281640   4.596   0.337   3.484  0.3865 -0.1439 -0.5849
20050TIP3    H181641   4.557   0.424   3.472 -0.5384  0.3136  3.9308
20050TIP3    H281642   4.524   0.276   3.473  0.8567 -0.3472 -2.9091
20051TIP3   OH281643   6.569   6.059   5.742 -0.1360  0.2964  0.1974
20051TIP3    H181644   6.600   6.017   5.662 -2.6679 -1.4527  0.0474
20051TIP3    H281645   6.622   6.020   5.812  0.9755  0.6454 -0.4257
20052TIP3   OH281646   4.001   0.029   3.224  0.1472 -0.6080 -0.2141
20052TIP3    H181647   3.935  -0.039   3.212 -0.5993  0.1929 -0.7170
20052TIP3    H281648   4.050   0.001   3.302  0.6286 -2.3243 -1.0773
20053TIP3   OH281649   3.734   1.483   0.285 -0.0604 -0.4782 -0.6409
20053TIP3    H181650   3.715   1.555   0.344 -0.5590 -1.2303  0.1338
20053TIP3    H281651   3.668   1.491   0.215 -0.2270 -0.2906 -0.4627
20054TIP3   OH281652   2.679   1.073  15.686  0.0822 -0.3380  0.5691
20054TIP3    H181653   2.658   1.155  15.730  0.6712  0.4396 -0.5392
20054TIP3    H281654   2.678   1.095  15.593  0.2518 -1.5951  0.2450
20055TIP3   OH281655   1.899   5.067  12.357 -0.3313  0.0833 -0.2152
20055TIP3    H181656   1.818   5.037  12.318  0.3342 -0.9612 -0.8316
20055TIP3    H281657   1.914   5.153  12.317  0.6651 -1.2135 -2.8540
20056TIP3   OH281658   5.737   5.074  16.277  0.4381  0.3589 -1.0726
20056TIP3    H181659   5.816   5.021  16.286 -1.1287 -1.9438  0.3827
20056TIP3    H281660   5.717   5.103  16.366 -2.2430 -2.2233 -0.6799
20057TIP3   OH281661   0.394   5.677  14.011  0.0714  0.1824 -0.4491
20057TIP3    H181662   0.437   5.655  13.928 -0.4613  0.4914 -0.8113
20057TIP3    H281663   0.457   5.734  14.056 -0.0495  0.8325 -1.0823
20058TIP3   OH281664   3.621   0.542  14.585 -0.2210 -0.0026  0.1351
20058TIP3    H181665   3.693   0.595  14.551  0.7967 -2.6852 -2.2384
20058TIP3    H281666   3.545   0.601  14.585  1.3482  2.1194  0.1122
20059TIP3   OH281667   4.271   1.009  16.459  0.2704 -0.6702 -0.1647
20059TIP3    H181668   4.329   0.984  16.387 -0.3125  0.6615 -1.1322
20059TIP3    H281669   4.327   1.059  16.519  0.6182 -1.2711  0.0222
20060TIP3   OH281670   3.996   2.440  16.960  0.2064  0.2397  0.2529
20060TIP3    H181671   3.919   2.406  17.005  0.9155 -0.3971  1.0148
20060TIP3    H281672   3.962   2.475  16.878 -0.7628 -0.9011  0.1388
20061TIP3   OH281673   3.714   3.094   2.644  0.0923 -0.5065 -0.0873
20061TIP3    H181674   3.755   3.158   2.701 -0.0496 -0.6129  0.1336
20061TIP3    H281675   3.684   3.145   2.569 -1.2132 -0.0939  0.6944
20062TIP3   OH281676   4.297   5.587  15.476  0.1771 -0.5253 -0.8978
20062TIP3    H181677   4.224   5.557  15.530 -0.4240 -1.2034 -2.0495
20062TIP3    H281678   4.256   5.635  15.405  0.8595 -0.7445 -1.4483
20063TIP3   OH281679   4.704   6.515  12.610 -0.0293 -0.2092 -0.2165
20063TIP3    H181680   4.633   6.492  12.669  0.3529 -0.2782  0.2240
20063TIP3    H281681   4.717   6.609  12.624 -0.2368 -0.1342 -0.5221
20064TIP3   OH281682   3.238   5.241   1.541 -0.4508  0.3329  0.2226
20064TIP3    H181683   3.163   5.186   1.562 -0.1077 -0.6606 -1.0589
20064TIP3    H281684   3.206   5.299   1.471 -0.6801  1.5109  1.2605
20065TIP3   OH281685   2.040   1.906  11.607  0.4550 -0.4123  0.4524
20065TIP3    H181686   2.118   1.850  11.611  1.2073  0.5858  0.2780
20065TIP3    H281687   2.056   1.964  11.532 -0.8643 -0.7606 -0.1260
20066TIP3   OH281688   3.670   4.142  12.969  0.3289  0.2608  0.7861
20066TIP3    H181689   3.639   4.068  13.021 -0.1744  0.0690  0.2234
20066TIP3    H281690   3.762   4.153  12.995  0.4854 -0.7200  0.6969
20067TIP3   OH281691   0.198   1.941  15.420 -0.0636 -0.1707  0.0605
20067TIP3    H181692   0.147   1.862  15.438  2.8696 -2.4610 -1.0050
20067TIP3    H281693   0.180   1.961  15.328 -0.3070  0.0551  0.1543
20068TIP3   OH281694   4.146   6.199   3.549 -0.5669 -0.2695  0.0354
20068TIP3    H181695   4.219   6.210   3.488 -0.3916 -1.7866 -0.0666
20068TIP3    H281696   4.081   6.148   3.500 -0.1148 -2.1783  1.3053
20069TIP3   OH281697   5.256   2.014   2.280  0.7659  0.3861 -0.1211
20069TIP3    H181698   5.275   1.953   2.351  1.1730  1.6832  0.9269
20069TIP3    H281699   5.314   2.089   2.296  0.3694  1.0125 -1.4308
20070TIP3   OH281700   1.415   6.009   1.643  0.3591 -0.3116 -0.9128
20070TIP3    H181701   1.488   6.040   1.697 -0.0745 -2.3299  0.9535
20070TIP3    H281702   1.374   6.089   1.612  0.9431  0.9676  1.3643
20071TIP3   OH281703   1.177   3.930   1.927 -0.1244 -0.3567 -0.5225
20071TIP3    H181704   1.106   3.880   1.886  0.2376  0.4003 -2.1472
20071TIP3    H281705   1.132   3.998   1.977 -0.5663 -0.8727 -0.1958
20072TIP3   OH281706   1.835   0.470  16.173 -0.0341 -0.0190 -0.7861
20072TIP3    H181707   1.774   0.479  16.100  0.2311  0.4216 -0.9581
20072TIP3    H281708   1.812   0.541  16.232 -0.5156 -0.6206 -0.2394
20073TIP3   OH281709   0.044   3.032  16.352 -0.3349  0.0840 -0.1550
20073TIP3    H181710  -0.051   3.029  16.336 -0.8292  2.3510  1.7715
20073TIP3    H281711   0.083   3.005  16.269 -2.6924  1.1820 -1.7350
20074TIP3   OH281712   3.157   0.396   2.498  0.3193  0.3014 -0.2395
20074TIP3    H181713   3.109   0.359   2.424 -0.6490 -1.7443  1.2886
20074TIP3    H281714   3.238   0.345   2.501 -0.3318 -0.7289  0.9651
20075TIP3   OH281715   4.993   4.269  13.197  0.1468 -0.5980 -0.5507
20075TIP3    H181716   4.906   4.230  13.208  0.3160 -0.9980 -0.6085
20075TIP3    H281717   5.053   4.205  13.235  0.4762 -0.6460 -1.1464
20076TIP3   OH281718   0.742   3.402  13.620  0.1095 -0.1444 -0.1516
20076TIP3    H181719   0.770   3.493  13.620  1.4071 -0.4027  2.7645
20076TIP3    H281720   0.654   3.404  13.657 -0.3383 -0.0221 -1.1878
20077TIP3   OH281721   4.562   6.371  15.242 -0.1473 -0.1403 -0.4689
20077TIP3    H181722   4.532   6.331  15.161  0.1055 -0.7732 -0.2548
20077TIP3    H281723   4.581   6.297  15.300 -1.8530  0.3156  0.7355
20078TIP3   OH281724   5.365   1.567   0.796  0.0145  0.2163 -0.3834
20078TIP3    H181725   5.328   1.480   0.781 -1.7337  0.8335  0.1529
20078TIP3    H281726   5.454   1.550   0.828 -0.4126 -1.3868  0.0462
20079TIP3   OH281727   1.556   6.322  11.376 -0.4583  0.0646 -0.5945
20079TIP3    H181728   1.494   6.368  11.433 -0.9434 -0.6889 -0.4953
20079TIP3    H281729   1.573   6.240  11.422  1.6825  0.8077  0.0564
20080TIP3   OH281730   6.054   6.668   0.562  0.0808  0.3138  0.0950
20080TIP3    H181731   6.027   6.736   0.623  1.2269 -0.8069  1.9650
20080TIP3    H281732   6.007   6.590   0.592 -0.2141 -0.0298 -1.2035
20081TIP3   OH281733   3.602   2.333  10.467  0.0201  0.4622  0.5143
20081TIP3    H181734   3.523   2.323  10.520 -1.0576 -0.0157 -1.0966
20081TIP3    H281735   3.667   2.279  10.511 -1.5090 -1.8412  0.1410
20082TIP3   OH281736   3.692   4.836   4.657  0.2980 -0.1515 -0.0024
20082TIP3    H181737   3.727   4.748   4.644 -0.3047 -0.7113  1.8385
20082TIP3    H281738   3.600   4.822   4.681 -0.9344  1.1975 -3.3237
20083TIP3   OH281739   0.959   1.883  12.186  0.1300  0.2333  0.0001
20083TIP3    H181740   0.937   1.810  12.244 -0.7503  1.9407  1.8941
20083TIP3    H281741   0.918   1.959  12.225  0.5492  1.7084 -2.2264
20084TIP3   OH281742   5.816   4.470   3.034 -0.4706 -0.3538  0.4979
20084TIP3    H181743   5.901   4.460   2.992 -0.7844  1.8664 -0.8271
20084TIP3    H281744   5.752   4.449   2.966 -0.9765  0.1897  0.7920
20085TIP3   OH281745   1.302   3.488  13.737 -0.2341  0.2339 -0.0307
20085TIP3    H181746   1.315   3.540  13.817  0.1882  0.0423  0.0321
20085TIP3    H281747   1.226   3.527  13.695  2.9638  4.5410 -2.7925
20086TIP3   OH281748   3.571   0.350  12.426 -0.0396  0.0351 -0.1633
20086TIP3    H181749   3.579   0.315  12.337  2.6126 -1.4838  0.5606
20086TIP3    H281750   3.662   0.363  12.454 -0.8251  0.8083  2.2016
20087TIP3   OH281751   6.304   1.944   4.819 -0.0796 -0.1592 -0.0871
20087TIP3    H181752   6.275   1.997   4.893  1.5641  0.2598  0.3063
20087TIP3    H281753   6.245   1.869   4.818 -1.0216  0.5475  0.7554
20088TIP3   OH281754   2.124   2.730  13.621 -0.4059  0.5656  0.0660
20088TIP3    H181755   2.172   2.677  13.685  0.3530 -0.9437 -1.6636
20088TIP3    H281756   2.175   2.722  13.541 -2.1021  1.2075 -1.1255
20089TIP3   OH281757   5.520   1.850  16.671  0.3065  0.8257  0.7743
20089TIP3    H181758   5.427   1.874  16.676  0.7807  2.7395  0.9312
20089TIP3    H281759   5.534   1.798  16.750 -1.1974 -1.8265 -0.5429
20090TIP3   OH281760   5.579   3.589  13.065 -0.3390  0.3158  0.0809
20090TIP3    H181761   5.498   3.638  13.063 -0.8431 -0.4555  0.9390
20090TIP3    H281762   5.552   3.498  13.075  0.6089 -0.0188 -0.2708
20091TIP3   OH281763   1.902   1.721  10.341 -0.2531 -0.3078  0.5543
20091TIP3    H181764   1.830   1.660  10.358 -0.3713 -0.4082 -0.2553
20091TIP3    H281765   1.922   1.759  10.426 -0.3660 -1.2765  1.0173
20092TIP3   OH281766   2.971   0.211   5.628 -0.3901  0.2303 -0.4165
20092TIP3    H181767   3.029   0.162   5.569  1.5287  0.8006  0.8898
20092TIP3    H281768   2.921   0.268   5.571 -0.1006 -0.7264 -1.6626
20093TIP3   OH281769   2.904   6.085  11.891 -0.3626 -0.1361 -0.2149
20093TIP3    H181770   2.858   6.127  11.818 -1.0429 -1.4007 -0.5427
20093TIP3    H281771   2.838   6.078  11.959 -0.5652 -1.5791 -0.5341
20094TIP3   OH281772   6.061   1.860  17.010 -0.0134 -0.5126 -0.1670
20094TIP3    H181773   6.110   1.931  16.969  0.5364 -0.9698 -0.3287
20094TIP3    H281774   6.118   1.829  17.080  0.6966 -2.1192 -1.3800
20095TIP3   OH281775   0.346   2.966  13.683 -0.1034 -0.5526  0.1109
20095TIP3    H181776   0.378   3.011  13.761  2.0301  2.6499 -2.3624
20095TIP3    H281777   0.250   2.971  13.691  0.0602  1.0239  1.8156
20096TIP3   OH281778   0.844   3.357  14.584 -0.4146  0.1072 -0.3188
20096TIP3    H181779   0.821   3.437  14.631 -0.8218 -1.2581  1.9943
20096TIP3    H281780   0.852   3.383  14.493 -1.2192  2.6254  0.2686
20097TIP3   OH281781   4.106   6.306   5.464 -0.2732 -0.3967 -0.0654
20097TIP3    H181782   4.124   6.377   5.526 -1.4589  1.1212 -1.3627
20097TIP3    H281783   4.187   6.296   5.415 -0.2906  0.5465 -0.3067
20098TIP3   OH281784   1.578   3.797  10.640 -0.1828 -0.0116 -0.2242
20098TIP3    H181785   1.498   3.776  10.592 -0.6338  1.6205 -0.2607
20098TIP3    H281786   1.630   3.849  10.579  1.6104 -2.2136 -0.7147
20099TIP3   OH281787   6.240   5.157  12.756  0.2341  0.1511 -0.1192
20099TIP3    H181788   6.269   5.244  12.727 -0.8688  0.5991  0.1009
20099TIP3    H281789   6.197   5.173  12.839  1.1006 -0.7893  0.5367
20100TIP3   OH281790   2.794   0.173   6.689 -0.0264 -0.1967 -0.6153
20100TIP3    H181791   2.701   0.170   6.668 -0.1730  1.2035 -0.2939
20100TIP3    H281792   2.829   0.243   6.634  1.0526 -1.3222 -1.4240
20101TIP3   OH281793   6.598   6.586  15.857 -0.4483 -0.3929 -0.5236
20101TIP3    H181794   6.530   6.638  15.814 -0.8560 -1.0963 -0.7585
20101TIP3    H281795   6.646   6.545  15.786  1.1808  1.2177 -0.4157
20102TIP3   OH281796   2.933   5.421   5.812 -0.1234 -0.1370  0.4421
20102TIP3    H181797   2.938   5.436   5.906 -2.4259  0.6528  0.4935
20102TIP3    H281798   2.981   5.494   5.774  1.0240 -0.5857  0.9741
20103TIP3   OH281799   5.184   0.473   5.042 -0.2906 -0.4547  0.3674
20103TIP3    H181800   5.260   0.418   5.062 -0.1109 -0.8474 -1.2965
20103TIP3    H281801   5.220   0.550   4.999 -0.8391 -0.7236 -0.5874
20104TIP3   OH281802   2.546   6.681   3.272 -0.0124 -0.1030 -0.7211
20104TIP3    H181803   2.451   6.678   3.279  0.0402 -1.2485 -0.3238
20104TIP3    H281804   2.566   6.635   3.191  0.1062  2.1555 -2.0666
20105TIP3   OH281805   5.735   0.791  11.799 -0.1130  0.2703  0.0470
20105TIP3    H181806   5.703   0.702  11.786 -0.9136  0.3090  1.5820
20105TIP3    H281807   5.786   0.786  11.880 -0.5291  1.2826  0.3817
20106TIP3   OH281808   0.688   3.588   1.167  0.8729 -0.2301 -0.2089
20106TIP3    H181809   0.609   3.539   1.186  0.6462 -0.6905 -2.1035
20106TIP3    H281810   0.719   3.619   1.252 -1.4766  0.2133  0.5386
20107TIP3   OH281811   0.020   6.622  16.991  0.1163  0.8483 -0.2953
20107TIP3    H181812   0.038   6.708  16.954  0.1638  0.8097 -0.3614
20107TIP3    H281813   0.103   6.575  16.984  0.2807  1.0284  0.3759
20108TIP3   OH281814   0.002   1.541  17.199  0.4171 -0.3352 -0.4714
20108TIP3    H181815  -0.035   1.453  17.193 -0.5290 -0.1022  1.2510
20108TIP3    H281816   0.067   1.535  17.269  1.5042 -0.0163 -1.4274
20109TIP3   OH281817   0.415   6.820   1.509  0.6550  0.5977  0.3174
20109TIP3    H181818   0.371   6.866   1.438  1.1603  1.2324  0.4100
20109TIP3    H281819   0.505   6.809   1.479  0.4767 -0.6306  0.1555
20110TIP3   OH281820   3.297   3.849  13.776 -0.2413  0.5646 -0.2579
20110TIP3    H181821   3.383   3.839  13.736 -1.3303  0.2080 -2.7425
20110TIP3    H281822   3.260   3.760  13.775  0.0772  0.3103  2.7183
20111TIP3   OH281823   6.393   1.887   6.220  0.3713 -0.3275  0.0246
20111TIP3    H181824   6.373   1.819   6.285 -1.1948 -0.7471 -0.8446
20111TIP3    H281825   6.310   1.932   6.206  0.9842  0.6038 -0.7494
20112TIP3   OH281826   1.309   4.671  14.387 -0.3424 -0.0297  0.4369
20112TIP3    H181827   1.346   4.675  14.300 -0.1708  1.4911  0.5679
20112TIP3    H281828   1.273   4.582  14.394  0.1322 -0.3389 -0.9605
20113TIP3   OH281829   2.391   3.009   4.573 -0.3119  0.0190 -0.5834
20113TIP3    H181830   2.395   3.102   4.596  1.1508  0.0675 -0.9717
20113TIP3    H281831   2.297   2.992   4.559 -0.5887  1.4580 -0.6172
20114TIP3   OH281832   5.885   1.490  13.612  0.8694 -0.1879  0.1712
20114TIP3    H181833   5.877   1.518  13.521 -0.0917 -1.7161 -0.2524
20114TIP3    H281834   5.970   1.524  13.640  0.6560  1.3097 -0.9182
20115TIP3   OH281835   5.834   4.941   0.128 -0.4839  0.4106  0.3332
20115TIP3    H181836   5.902   5.006   0.141 -0.8660  0.4631  2.4550
20115TIP3    H281837   5.799   4.924   0.216 -2.2461 -0.6450 -0.4971
20116TIP3   OH281838   0.315   0.933   4.802 -0.7517  0.5055 -0.3548
20116TIP3    H181839   0.327   0.920   4.708  0.3499 -0.5074 -0.1084
20116TIP3    H281840   0.347   1.021   4.818  1.7633 -0.2780 -0.5599
20117TIP3   OH281841   5.514   1.199  14.064 -0.4152 -0.1906  0.1718
20117TIP3    H181842   5.481   1.246  13.987  1.9270  3.2266  1.0324
20117TIP3    H281843   5.583   1.142  14.029  0.2508  0.9091 -0.3611
20118TIP3   OH281844   3.221   4.705   5.831  0.1322  0.3962  0.6061
20118TIP3    H181845   3.314   4.713   5.813  0.4987 -0.4464  1.9764
20118TIP3    H281846   3.179   4.761   5.766  1.4434 -0.7660 -1.3695
20119TIP3   OH281847   5.088   6.558   3.889  0.5813  0.6147  0.0149
20119TIP3    H181848   5.068   6.648   3.861 -0.7831  0.2280 -0.3199
20119TIP3    H281849   5.120   6.515   3.810  2.1750  1.0288  0.3856
20120TIP3   OH281850   1.149   2.493  14.799 -0.2450 -0.4230  0.4266
20120TIP3    H181851   1.069   2.478  14.748 -0.3031  1.5988 -0.1644
20120TIP3    H281852   1.145   2.428  14.869 -2.1283 -0.7409  0.0958
20121TIP3   OH281853   3.159   3.358  12.935 -0.5806 -0.5857 -0.1336
20121TIP3    H181854   3.186   3.317  12.853  1.3549  0.1778  0.0608
20121TIP3    H281855   3.106   3.433  12.909 -1.2142 -1.1913 -0.6160
20122TIP3   OH281856   5.375   6.349  12.343  0.1659 -0.5838  0.1358
20122TIP3    H181857   5.464   6.313  12.331 -0.3266 -1.5554 -0.8282
20122TIP3    H281858   5.360   6.402  12.264  0.0923  0.0345  0.5610
20123TIP3   OH281859   5.957   2.073  14.484  0.0452  0.4125  0.2150
20123TIP3    H181860   6.041   2.026  14.479  2.0660  3.6571  0.5537
20123TIP3    H281861   5.948   2.095  14.576 -1.2859  0.0439  0.1930
20124TIP3   OH281862   4.384   6.652   3.570  0.2947  0.3207  0.7731
20124TIP3    H181863   4.372   6.741   3.537 -1.1883 -0.4032 -0.8145
20124TIP3    H281864   4.313   6.640   3.634  1.1295  0.6042  1.7741
20125TIP3   OH281865   1.777   5.878  13.977 -0.4680  0.5789  0.0691
20125TIP3    H181866   1.700   5.876  13.921 -0.5399  0.0145  0.1838
20125TIP3    H281867   1.745   5.856  14.064 -0.0179 -0.7582 -0.0827
20126TIP3   OH281868   5.751   2.256  12.117  0.0609  0.3113  0.5508
20126TIP3    H181869   5.676   2.228  12.170 -1.3773  1.4953 -0.7641
20126TIP3    H281870   5.811   2.294  12.181 -0.9688  0.4026  1.5159
20127TIP3   OH281871   6.574   3.379   5.038  0.0318  0.0791  0.7068
20127TIP3    H181872   6.630   3.361   4.963  0.2319 -0.8148  1.0581
20127TIP3    H281873   6.607   3.461   5.074 -0.6008  0.9952 -0.6641
20128TIP3   OH281874   1.814   2.065   4.246  0.1217  0.3231 -0.0951
20128TIP3    H181875   1.785   2.148   4.209 -0.4586  0.6716  1.1279
20128TIP3    H281876   1.775   1.999   4.189 -1.0480  0.8460  0.0738
20129TIP3   OH281877   3.254   6.274   4.438 -0.1869 -0.9286 -0.1482
20129TIP3    H181878   3.212   6.225   4.367  0.1514  0.3890 -1.3023
20129TIP3    H281879   3.184   6.287   4.503 -0.6990 -1.5037 -0.5676
20130TIP3   OH281880   4.531   2.836   1.672  0.5506 -0.2033  0.3340
20130TIP3    H181881   4.550   2.750   1.711  2.9658  0.4666  0.8025
20130TIP3    H281882   4.456   2.820   1.614  0.5509 -2.4812  0.8606
20131TIP3   OH281883   0.244   3.007   5.833  0.1897 -0.6809  0.3692
20131TIP3    H181884   0.205   3.055   5.906 -0.6604  0.2008 -0.6375
20131TIP3    H281885   0.298   3.071   5.787 -0.2697 -0.8939 -0.4918
20132TIP3   OH281886   2.931   1.030  14.763  0.3865 -0.1067  0.1889
20132TIP3    H181887   2.951   1.081  14.685  0.9603 -0.3729  0.1541
20132TIP3    H281888   2.973   0.945  14.748 -2.7564 -1.6150 -0.9578
20133TIP3   OH281889   1.520   5.896  14.336  0.1000  0.3061 -0.2626
20133TIP3    H181890   1.591   5.858  14.283 -0.8452  0.7638 -1.9235
20133TIP3    H281891   1.489   5.823  14.390  1.4425 -0.0361  0.0852
20134TIP3   OH281892   2.192   2.411   5.345 -0.3377 -0.2463 -0.7296
20134TIP3    H181893   2.241   2.367   5.415  2.2635  1.0141 -1.6216
20134TIP3    H281894   2.115   2.357   5.332  0.1085 -1.6184  1.7268
20135TIP3   OH281895   6.024   4.471  16.378 -0.1344  0.1764 -1.0151
20135TIP3    H181896   6.054   4.562  16.385  0.1648  0.1481 -1.8681
20135TIP3    H281897   6.038   4.448  16.287 -0.2920 -0.7042 -0.8261
20136TIP3   OH281898   2.719   0.610   5.673 -0.6897 -0.2024  0.0993
20136TIP3    H181899   2.627   0.597   5.652 -1.2620  0.0133  2.1953
20136TIP3    H281900   2.720   0.621   5.768  1.6765 -1.8008  0.3583
20137TIP3   OH281901   4.405   3.376  12.520 -0.2331 -0.1587 -0.0024
20137TIP3    H181902   4.421   3.351  12.429 -0.6398  0.7163 -0.3302
20137TIP3    H281903   4.480   3.432  12.543  0.1725 -0.8555  0.4025
20138TIP3   OH281904   2.396   3.904  15.424  0.4481  0.0098 -0.0510
20138TIP3    H181905   2.372   3.848  15.349  1.3755 -0.1256 -0.2586
20138TIP3    H281906   2.411   3.990  15.385 -0.1017  0.1924  0.1385
20139TIP3   OH281907   6.554   3.315  10.867 -0.2235 -0.0681 -0.5163
20139TIP3    H181908   6.598   3.319  10.952 -0.7334 -1.5453 -0.1534
20139TIP3    H281909   6.522   3.225  10.860  1.4113 -0.5677 -3.1123
20140TIP3   OH281910   1.482   2.739   2.387  0.4506  0.5846 -0.3695
20140TIP3    H181911   1.474   2.754   2.293  3.8118 -0.9716 -1.0653
20140TIP3    H281912   1.504   2.825   2.423  0.7066  0.9129 -1.2704
20141TIP3   OH281913   4.271   5.813  12.607 -0.6244 -0.3605  0.1183
20141TIP3    H181914   4.218   5.847  12.680 -0.3796  0.0958  0.0888
20141TIP3    H281915   4.224   5.841  12.529 -0.2397  0.2246  0.0894
20142TIP3   OH281916   4.611   5.879  16.926  0.1764  0.0267  0.0467
20142TIP3    H181917   4.663   5.800  16.914  0.0218 -0.0438 -0.1797
20142TIP3    H281918   4.658   5.929  16.993  0.7871  0.1834 -0.4884
20143TIP3   OH281919   0.827   5.999   2.247  0.4054  0.1640 -0.0452
20143TIP3    H181920   0.919   5.973   2.257 -0.3626 -2.2590  2.0261
20143TIP3    H281921   0.824   6.090   2.275  2.0671  0.0485  0.6288
20144TIP3   OH281922   1.798   4.871   4.096  0.0947 -0.6163 -0.1034
20144TIP3    H181923   1.812   4.918   4.178  0.3538 -0.1931 -0.3880
20144TIP3    H281924   1.724   4.916   4.055  0.6551 -0.1359 -0.6053
20145TIP3   OH281925   6.571   4.388  15.007 -0.3588  0.5176 -0.6297
20145TIP3    H181926   6.602   4.306  15.044 -1.3484 -0.2002 -1.3470
20145TIP3    H281927   6.645   4.422  14.958  0.3837  0.5810  0.4937
20146TIP3   OH281928   3.259   2.648   2.612 -0.2613 -0.1278  0.6768
20146TIP3    H181929   3.308   2.728   2.629 -0.5552  0.4316 -0.9672
20146TIP3    H281930   3.180   2.656   2.666 -0.3818  0.7799  0.3733
20147TIP3   OH281931   2.438   6.180   2.790 -0.0616  0.2891 -0.2936
20147TIP3    H181932   2.386   6.223   2.857 -0.7315  0.7289 -1.0779
20147TIP3    H281933   2.475   6.252   2.739  1.1007 -0.0236  0.0815
20148TIP3   OH281934   3.146   1.236  13.208 -0.4164 -0.2087 -0.3257
20148TIP3    H181935   3.215   1.247  13.272  1.2906  2.3238 -2.4066
20148TIP3    H281936   3.168   1.155  13.162  0.7626  0.1800 -0.4622
20149TIP3   OH281937   5.825   1.518   2.950 -0.0128  0.2534 -0.4827
20149TIP3    H181938   5.916   1.541   2.966  0.4341 -0.4411 -1.8808
20149TIP3    H281939   5.798   1.470   3.029  1.2259 -0.6269 -0.5600
20150TIP3   OH281940   5.693   4.760   3.354 -0.2674 -0.2429  0.2362
20150TIP3    H181941   5.610   4.783   3.396 -0.5020  0.3337 -0.5238
20150TIP3    H281942   5.746   4.724   3.425 -0.5086  1.0684  1.1156
20151TIP3   OH281943   3.417   4.444   5.067 -0.0686 -0.3692 -0.0791
20151TIP3    H181944   3.512   4.451   5.061  0.0875 -1.7872  0.2950
20151TIP3    H281945   3.384   4.509   5.004  1.1548 -0.3676 -0.7497
20152TIP3   OH281946   3.279   3.303   0.406 -0.2434 -0.3415 -0.1092
20152TIP3    H181947   3.349   3.329   0.346 -0.9935 -0.9589 -1.2871
20152TIP3    H281948   3.225   3.243   0.355 -0.7431 -1.1287  1.2964
20153TIP3   OH281949   2.687   4.660   1.114  0.1018 -0.5122 -0.7684
20153TIP3    H181950   2.732   4.580   1.089  1.2929  0.2713 -1.2328
20153TIP3    H281951   2.748   4.704   1.174 -0.9292 -0.3842  0.2222
20154TIP3   OH281952   6.447   6.577   5.442 -0.5421 -0.2889  0.1343
20154TIP3    H181953   6.484   6.550   5.358 -0.1529 -1.8927  0.7930
20154TIP3    H281954   6.523   6.600   5.496 -0.7543  0.2099  0.2249
20155TIP3   OH281955   1.588   0.709   2.568  0.8694 -0.1617 -0.0144
20155TIP3    H181956   1.604   0.767   2.642 -1.3307  0.6054 -0.0404
20155TIP3    H281957   1.527   0.759   2.512 -0.3634 -2.1032 -0.5120
20156TIP3   OH281958   2.143   6.308   5.133  0.0886 -0.3530 -0.4744
20156TIP3    H181959   2.077   6.376   5.146  0.8900  0.5967 -1.3035
20156TIP3    H281960   2.207   6.324   5.202  0.5155  0.0372 -0.9542
20157TIP3   OH281961   1.671   1.730   1.580  0.2802 -0.4461 -0.6380
20157TIP3    H181962   1.661   1.694   1.668  1.4486  0.9488  0.1029
20157TIP3    H281963   1.585   1.720   1.540 -0.1544 -1.4910  0.5030
20158TIP3   OH281964   2.332   6.563  14.818 -0.0905 -0.0770 -0.1666
20158TIP3    H181965   2.242   6.535  14.802  0.3088 -1.0240 -0.8206
20158TIP3    H281966   2.360   6.601  14.734  0.0466  0.4180  0.1018
20159TIP3   OH281967   2.620   2.450   2.437  0.3795 -0.0767  0.4479
20159TIP3    H181968   2.580   2.536   2.429 -1.1852 -0.6052  1.8954
20159TIP3    H281969   2.574   2.409   2.510  2.1653 -1.5544  0.8269
20160TIP3   OH281970   6.663   6.633   4.391  0.1833 -0.3689  0.2024
20160TIP3    H181971   6.631   6.710   4.438  0.5860 -1.3965  2.3278
20160TIP3    H281972   6.751   6.656   4.363  0.0666  0.1593  0.2588
20161TIP3   OH281973   5.959   6.155   1.866 -1.2073 -0.0273  0.2854
20161TIP3    H181974   5.925   6.188   1.949  1.7250 -0.0783  1.6348
20161TIP3    H281975   5.974   6.234   1.814 -3.3418 -0.0119 -0.4218
20162TIP3   OH281976   3.314   3.928   1.929  0.0746 -0.0477  0.1283
20162TIP3    H181977   3.266   3.885   2.000 -0.7614  0.0475 -0.3589
20162TIP3    H281978   3.406   3.923   1.955  0.0486 -2.3510 -0.0453
20163TIP3   OH281979   5.228   2.610  17.056 -0.1819  0.1280  0.7314
20163TIP3    H181980   5.212   2.704  17.069 -0.7240  0.0148  0.9116
20163TIP3    H281981   5.317   2.596  17.088  0.1690  0.7166  0.0349
20164TIP3   OH281982   6.445   3.562  11.193 -0.5403  0.2405  0.2453
20164TIP3    H181983   6.388   3.619  11.141 -0.7756 -1.8040 -1.9051
20164TIP3    H281984   6.527   3.560  11.145 -0.6437 -1.4260  0.0678
20165TIP3   OH281985   2.538   3.447  15.826  0.3017 -0.5218  0.3335
20165TIP3    H181986   2.455   3.404  15.803  0.3019 -0.3525  0.0020
20165TIP3    H281987   2.513   3.514  15.890 -0.0569  0.5158 -0.8445
20166TIP3   OH281988   1.000   1.357  17.214  0.7259  0.6891 -0.0613
20166TIP3    H181989   1.013   1.262  17.219  1.6440  0.7259 -1.3128
20166TIP3    H281990   1.020   1.379  17.123  0.9265  2.1405  0.3163
20167TIP3   OH281991   6.246   0.315  14.968  0.1097 -0.4101  0.3986
20167TIP3    H181992   6.186   0.381  15.004 -0.2987 -1.1437  1.0870
20167TIP3    H281993   6.282   0.356  14.890  0.4026  0.9236  1.1954
20168TIP3   OH281994   2.359   3.707   6.383  0.0625  0.3951  1.1038
20168TIP3    H181995   2.296   3.659   6.330  1.2586 -3.1325  2.5636
20168TIP3    H281996   2.427   3.734   6.322 -0.3595 -0.3730  0.2744
20169TIP3   OH281997   0.653   2.853   0.227  0.0119 -0.3534 -0.2633
20169TIP3    H181998   0.729   2.820   0.179  0.6269  0.4162  0.1491
20169TIP3    H281999   0.647   2.798   0.305 -1.5734 -2.2495 -1.6049
20170TIP3   OH282000   2.208   2.563   4.953 -0.2232 -0.0339  0.3360
20170TIP3    H182001   2.135   2.600   5.003 -0.2538 -2.8572  2.6568
20170TIP3    H282002   2.167   2.518   4.880 -0.6003  0.0912  0.4700
20171TIP3   OH282003   4.574   2.903   0.548  0.0608  0.3283 -0.2510
20171TIP3    H182004   4.644   2.870   0.491 -0.1996  0.0221 -0.3964
20171TIP3    H282005   4.619   2.962   0.608  0.3617  0.5491 -0.6841
20172TIP3   OH282006   6.378   3.822   0.727 -0.3946  0.3528 -0.4618
20172TIP3    H182007   6.352   3.736   0.695  0.6921  0.1347 -0.7868
20172TIP3    H282008   6.383   3.877   0.649 -0.1057  0.4473 -0.3792
20173TIP3   OH282009   0.648   0.207   2.444  0.0692 -0.5559  0.1518
20173TIP3    H182010   0.619   0.295   2.467  1.6446  0.2753 -0.8563
20173TIP3    H282011   0.571   0.164   2.408 -0.7479  0.3765  0.7595
20174TIP3   OH282012   5.642   1.879   2.775  0.1844 -0.4207  0.4211
20174TIP3    H182013   5.737   1.874   2.764  0.3054  2.2146 -0.5253
20174TIP3    H282014   5.630   1.891   2.869  0.8944  0.3226  0.4301
20175TIP3   OH282015   4.353   6.253  16.673  0.0040  0.3896 -0.0957
20175TIP3    H182016   4.398   6.268  16.590 -1.5016  0.7559 -0.8937
20175TIP3    H282017   4.348   6.339  16.714  0.4006  0.2781  0.1864
20176TIP3   OH282018   4.165   0.983  14.709 -0.3495 -1.1804  0.4713
20176TIP3    H182019   4.258   1.001  14.697 -0.6962  0.5816  0.0861
20176TIP3    H282020   4.146   1.014  14.797 -0.9923  0.5777 -0.2432
20177TIP3   OH282021   0.532   6.211   1.127 -0.5835 -0.5347 -0.1244
20177TIP3    H182022   0.518   6.134   1.072  0.5952 -0.3697 -0.7148
20177TIP3    H282023   0.600   6.185   1.188  1.1008  0.4945 -1.4414
20178TIP3   OH282024   0.530   4.244   5.704  0.3797 -0.1606 -0.2123
20178TIP3    H182025   0.490   4.314   5.756 -0.6303 -1.0418  0.2447
20178TIP3    H282026   0.620   4.240   5.734  0.5276  1.1335 -0.4552
20179TIP3   OH282027   3.792   1.027   2.250 -0.6503 -0.2113 -0.5299
20179TIP3    H182028   3.744   0.945   2.255 -0.2895 -0.3838  0.1555
20179TIP3    H282029   3.862   1.010   2.186  0.0387 -0.7690  0.3462
20180TIP3   OH282030   3.432   2.238  13.350  0.5339 -0.1607 -0.0127
20180TIP3    H182031   3.436   2.314  13.409  2.2755  0.9047 -1.3864
20180TIP3    H282032   3.360   2.257  13.291  0.9075  0.4133 -0.2945
20181TIP3   OH282033   5.142   5.861  11.720  0.2049 -0.1602 -0.0172
20181TIP3    H182034   5.116   5.856  11.812  0.9583 -0.6904  0.1802
20181TIP3    H282035   5.128   5.773  11.687 -0.6910  0.1899 -0.5978
20182TIP3   OH282036   1.374   4.209   3.327  0.5021 -0.6573  0.0320
20182TIP3    H182037   1.403   4.119   3.306  1.4636 -0.0529 -1.4415
20182TIP3    H282038   1.426   4.234   3.403  1.2256 -0.8833 -0.3771
20183TIP3   OH282039   1.401   0.942  11.776 -0.2544  0.2338  0.3097
20183TIP3    H182040   1.435   0.941  11.687  1.3267  1.8198  0.8558
20183TIP3    H282041   1.359   1.027  11.786  0.3950  0.4504  1.3638
20184TIP3   OH282042   0.240   0.351   2.985 -0.0970 -0.1860 -0.6285
20184TIP3    H182043   0.253   0.434   2.938 -3.9728  0.6781 -0.5942
20184TIP3    H282044   0.200   0.294   2.919 -3.6512  0.3440  0.8451
20185TIP3   OH282045   5.825   3.413  11.735  0.5145  0.1755  0.1630
20185TIP3    H182046   5.751   3.367  11.695 -0.5424 -0.9506  3.0866
20185TIP3    H282047   5.902   3.362  11.710 -0.0888 -0.4689 -0.4137
20186TIP3   OH282048   1.608   4.877  14.300 -0.1126 -0.1590  0.0676
20186TIP3    H182049   1.565   4.953  14.340  1.2767  0.5994  0.1928
20186TIP3    H282050   1.660   4.913  14.229  3.4670 -0.3931  2.3502
20187TIP3   OH282051   5.682   6.595  16.542 -0.3823 -0.6192 -0.0132
20187TIP3    H182052   5.732   6.574  16.620 -0.2948 -1.9043 -0.3986
20187TIP3    H282053   5.693   6.690  16.531  2.9168 -0.9648 -0.7122
20188TIP3   OH282054   0.442   3.898  14.276 -0.1582 -0.0692 -0.2201
20188TIP3    H182055   0.475   3.973  14.325  1.2170 -2.0547  2.1246
20188TIP3    H282056   0.519   3.863  14.231 -0.0607 -1.7729  1.1600
20189TIP3   OH282057   2.917   2.564  14.743  0.6969 -0.0825 -0.3687
20189TIP3    H182058   2.954   2.498  14.800  0.7729  0.4956  0.2653
20189TIP3    H282059   2.989   2.588  14.684  1.1343  0.5086  0.3795
20190TIP3   OH282060   4.427   6.030   3.493  0.2085  0.3664  0.1655
20190TIP3    H182061   4.458   6.095   3.557 -0.9337 -0.0229  1.1570
20190TIP3    H282062   4.415   5.950   3.545  1.0857 -0.5028 -0.9317
20191TIP3   OH282063   0.630   4.714   1.205  0.1696 -0.2802 -0.0477
20191TIP3    H182064   0.685   4.638   1.219  0.7179  0.0090 -0.5818
20191TIP3    H282065   0.678   4.786   1.246  0.3589  0.0340 -0.8131
20192TIP3   OH282066   4.523   4.286   5.960  0.1155  0.5791  0.3624
20192TIP3    H182067   4.441   4.320   5.997 -0.2338  1.4957 -1.1605
20192TIP3    H282068   4.498   4.202   5.922 -0.3709  1.2537 -0.8833
20193TIP3   OH282069   1.743   0.949  12.107  0.0720  0.2200  0.0262
20193TIP3    H182070   1.703   1.028  12.072  1.0604  0.3376 -0.8825
20193TIP3    H282071   1.707   0.878  12.053  0.1080  0.1839  0.0489
20194TIP3   OH282072   1.364   4.655  12.804  0.2681  0.0088  0.2571
20194TIP3    H182073   1.316   4.661  12.886  1.5737  1.3763  0.9640
20194TIP3    H282074   1.450   4.620  12.828  0.3525 -0.4768 -0.6757
20195TIP3   OH282075   3.441   2.403  12.081 -0.4253  0.0026 -0.2775
20195TIP3    H182076   3.496   2.454  12.140  1.0543  1.0687 -2.4314
20195TIP3    H282077   3.499   2.334  12.047 -1.4531 -1.0539  0.0173
20196TIP3   OH282078   4.037   4.584  12.223 -0.1257 -0.3775 -0.3636
20196TIP3    H182079   3.976   4.656  12.211  0.3154  0.4827  2.1138
20196TIP3    H282080   4.083   4.604  12.304  3.9302 -0.6661 -2.3302
20197TIP3   OH282081   5.373   5.478   2.588 -0.1953 -0.1051  0.4744
20197TIP3    H182082   5.461   5.446   2.608 -0.3759 -1.3504 -0.5923
20197TIP3    H282083   5.328   5.479   2.673  0.5258 -0.5010  0.8734
20198TIP3   OH282084   4.707   0.429   1.442  0.0437  0.3782  0.1295
20198TIP3    H182085   4.759   0.357   1.478 -0.6302 -0.2907 -0.2157
20198TIP3    H282086   4.772   0.492   1.411  0.6721 -0.6934 -0.7881
20199TIP3   OH282087   6.182   1.482   3.451 -0.4992 -0.4703 -0.3833
20199TIP3    H182088   6.098   1.506   3.412 -0.5538 -0.0617 -0.0100
20199TIP3    H282089   6.172   1.390   3.474 -0.6820 -0.5487 -0.7629
20200TIP3   OH282090   0.391   3.945  15.400 -0.2054  0.4498  0.1417
20200TIP3    H182091   0.352   3.901  15.326  0.5866  0.0165 -0.0342
20200TIP3    H282092   0.484   3.921  15.396 -0.7144 -3.0582  3.6036
20201TIP3   OH282093   1.120   1.127   0.462 -0.0325 -0.0154  0.1880
20201TIP3    H182094   1.070   1.177   0.526 -1.0472  0.1992 -0.7362
20201TIP3    H282095   1.060   1.116   0.388  0.6300 -1.4259 -0.1803
20202TIP3   OH282096   4.113   2.433   4.812 -0.0015  0.5039 -0.0363
20202TIP3    H182097   4.129   2.455   4.720  0.4962 -0.7562 -0.2677
20202TIP3    H282098   4.049   2.361   4.809  1.3877 -0.8175  0.4917
20203TIP3   OH282099   5.670   1.320   3.676  0.0875 -0.3103  0.1278
20203TIP3    H182100   5.732   1.304   3.605 -1.6816  0.8895 -1.7662
20203TIP3    H282101   5.611   1.245   3.675 -0.1316 -0.1389  0.1326
20204TIP3   OH282102   4.932   4.659   6.718  0.1126  0.1985 -0.2398
20204TIP3    H182103   4.869   4.725   6.748  0.0484  0.4319 -0.8781
20204TIP3    H282104   4.984   4.638   6.796 -0.9273 -0.2037  0.3716
20205TIP3   OH282105   1.006   3.507   3.937  0.4616  0.0102 -0.3599
20205TIP3    H182106   0.948   3.510   3.861  1.3774 -1.9643 -1.1913
20205TIP3    H282107   0.962   3.450   4.000  1.8180 -2.3011 -1.3779
20206TIP3   OH282108   4.651   4.449  14.455  0.0393  0.0763 -0.4082
20206TIP3    H182109   4.597   4.528  14.456 -0.9913 -0.5482 -2.1147
20206TIP3    H282110   4.593   4.381  14.422  1.2547 -1.1348 -0.1253
20207TIP3   OH282111   3.825   2.684   0.118  0.0246  0.0376  0.6433
20207TIP3    H182112   3.837   2.589   0.122  0.3727  0.0951  0.9599
20207TIP3    H282113   3.753   2.702   0.178  0.7254  0.1037  1.4857
20208TIP3   OH282114   0.580   5.034   4.713  0.5763 -0.1905  0.0197
20208TIP3    H182115   0.504   5.035   4.771  1.7195  0.4189  1.5903
20208TIP3    H282116   0.544   5.021   4.626 -1.1458 -2.3169  0.9607
20209TIP3   OH282117   5.822   0.319   3.255  0.1172 -0.2912 -0.0500
20209TIP3    H182118   5.765   0.368   3.195  0.7949 -0.0255 -0.4950
20209TIP3    H282119   5.785   0.231   3.256 -0.1855 -0.1768 -0.4883
20210TIP3   OH282120   4.186   5.582   5.348 -0.3165 -0.2159  0.1596
20210TIP3    H182121   4.098   5.572   5.385 -0.4522  0.4283  0.0283
20210TIP3    H282122   4.173   5.577   5.254 -0.1723 -0.3957  0.1488
20211TIP3   OH282123   6.612   4.949  10.237  0.2447 -0.1534 -0.7946
20211TIP3    H182124   6.559   4.940  10.316  0.6855  0.9026 -0.3561
20211TIP3    H282125   6.551   4.931  10.165 -0.5429  0.3697 -0.2779
20212TIP3   OH282126   0.383   4.837  12.804 -0.3705 -0.0186  0.5362
20212TIP3    H182127   0.339   4.753  12.797 -1.6233  0.6058  0.5726
20212TIP3    H282128   0.440   4.842  12.728 -2.0160  0.0561 -0.7359
20213TIP3   OH282129   3.966   4.469   4.234  0.2306 -0.4758 -0.3197
20213TIP3    H182130   4.022   4.450   4.159  2.1084  1.2684  0.5416
20213TIP3    H282131   4.021   4.451   4.310 -0.4708  0.9174  0.5679
20214TIP3   OH282132   0.734   1.352  16.274 -0.5582 -0.7113  0.5924
20214TIP3    H182133   0.652   1.400  16.284 -0.0255  0.6689 -1.1358
20214TIP3    H282134   0.707   1.260  16.268 -2.1355 -0.2068 -1.0448
20215TIP3   OH282135   1.256   1.519   3.627 -0.8597  0.0090 -0.6204
20215TIP3    H182136   1.308   1.479   3.696  0.6725  2.1944 -0.4095
20215TIP3    H282137   1.187   1.455   3.609 -0.5028 -1.2214  1.9439
20216TIP3   OH282138   4.071   2.741   3.694  0.1273 -0.0384 -0.5910
20216TIP3    H182139   4.128   2.666   3.674  0.3541  0.2353 -0.9888
20216TIP3    H282140   4.131   2.810   3.723 -0.0441  0.1097 -0.5868
20217TIP3   OH282141   1.550   5.998   2.865  0.3177  0.1416  0.9364
20217TIP3    H182142   1.500   5.951   2.932 -0.6789  0.0394  0.1488
20217TIP3    H282143   1.483   6.035   2.808  1.1483 -0.5313 -0.5201
20218TIP3   OH282144   6.006   4.843  15.566  0.7273 -0.0646 -0.1779
20218TIP3    H182145   5.928   4.791  15.544  0.2597 -0.7780  2.7394
20218TIP3    H282146   5.972   4.917  15.615  1.7845  0.4254 -0.1727
20219TIP3   OH282147   1.545   2.477  12.527  0.1936  0.0696 -0.2614
20219TIP3    H182148   1.563   2.569  12.545 -0.6237  0.1982 -0.0987
20219TIP3    H282149   1.567   2.432  12.608  1.0197  0.0551 -0.4819
20220TIP3   OH282150   2.442   4.488   5.474  0.4493 -0.4478 -0.2621
20220TIP3    H182151   2.529   4.496   5.513  0.5590  2.3010 -0.8649
20220TIP3    H282152   2.382   4.515   5.543  0.2132 -0.7054 -0.3650
20221TIP3   OH282153   1.715   1.235  15.934 -0.1900  0.1257  0.3280
20221TIP3    H182154   1.727   1.257  15.841 -0.1600 -0.2343  0.2470
20221TIP3    H282155   1.639   1.287  15.960 -0.6237 -0.2936 -0.0774
20222TIP3   OH282156   0.393   2.999   5.536  0.3680  0.2616  0.0022
20222TIP3    H182157   0.425   3.000   5.446 -0.8523  0.0542 -0.4534
20222TIP3    H282158   0.437   2.925   5.577  0.2224 -0.2329 -0.7125
20223TIP3   OH282159   1.887   0.603  12.525 -0.0805 -0.2393  0.3058
20223TIP3    H182160   1.808   0.608  12.578 -0.7800 -0.0486 -0.7171
20223TIP3    H282161   1.889   0.687  12.478  0.7281 -0.2441  0.3165
20224TIP3   OH282162   3.387   1.390  12.030  0.1054 -0.4373  0.3640
20224TIP3    H182163   3.295   1.412  12.048 -0.5890 -2.5518 -0.3425
20224TIP3    H282164   3.424   1.368  12.115  0.1741  1.0220  0.7433
20225TIP3   OH282165   1.848   0.308  15.281  0.0476 -0.0971  0.1021
20225TIP3    H182166   1.913   0.377  15.290 -0.1726  0.0446  0.6446
20225TIP3    H282167   1.872   0.243  15.346 -0.6843  0.2309  0.7215
20226TIP3   OH282168   4.339   5.367  12.053 -0.0222 -0.0312  0.0961
20226TIP3    H182169   4.333   5.423  12.130  0.9435  0.5052 -0.1920
20226TIP3    H282170   4.404   5.410  11.997 -2.2735  0.8298 -2.0493
20227TIP3   OH282171   6.544   4.373   4.174  0.4583  0.1017 -0.2212
20227TIP3    H182172   6.451   4.380   4.152  0.4982 -1.3229 -0.9293
20227TIP3    H282173   6.545   4.366   4.270 -0.1086  0.7208 -0.1603
20228TIP3   OH282174   6.668   0.453  14.099 -0.3131 -0.4481  0.6344
20228TIP3    H182175   6.660   0.548  14.091  1.1119 -0.1732  2.0000
20228TIP3    H282176   6.654   0.420  14.010  0.2735  1.1172 -0.0701
20229TIP3   OH282177   2.892   4.439   3.547 -0.6609  0.1334  0.2288
20229TIP3    H182178   2.948   4.361   3.548  0.5231  0.9567  0.5427
20229TIP3    H282179   2.804   4.405   3.534 -0.0491 -1.1892 -0.7254
20230TIP3   OH282180   3.259   2.140   6.515  1.0210  0.9597 -0.5114
20230TIP3    H182181   3.202   2.185   6.452 -0.8786 -1.4434 -0.6559
20230TIP3    H282182   3.330   2.104   6.462  0.1376  0.0627 -1.1172
20231TIP3   OH282183   1.817   3.175   0.133  0.4327 -0.0300 -0.0177
20231TIP3    H182184   1.761   3.126   0.193  0.1788  0.5014  0.1733
20231TIP3    H282185   1.896   3.121   0.126  0.3375 -0.2442  0.5484
20232TIP3   OH282186   5.491   6.592  11.747 -0.3965 -0.0930 -0.1702
20232TIP3    H182187   5.483   6.670  11.802 -1.0190  0.7536 -1.3928
20232TIP3    H282188   5.579   6.599  11.708 -0.2495 -0.2841  0.1282
20233TIP3   OH282189   6.341   3.059  13.869  0.2246  0.0108  0.1150
20233TIP3    H182190   6.326   2.998  13.941 -1.5470 -0.6047 -0.7043
20233TIP3    H282191   6.274   3.035  13.804  1.2612  1.0569 -1.3884
20234TIP3   OH282192   1.061   6.533  14.913  0.3916  0.0547 -0.0985
20234TIP3    H182193   1.091   6.493  14.832 -0.0360 -0.8338  0.1647
20234TIP3    H282194   1.121   6.500  14.980 -0.3620 -0.7037  0.2244
20235TIP3   OH282195   3.224   1.342  11.717 -0.4970 -0.1572  0.1323
20235TIP3    H182196   3.303   1.346  11.770  0.3725  0.5832 -1.1612
20235TIP3    H282197   3.232   1.260  11.668 -0.4694 -0.0324 -0.0740
20236TIP3   OH282198   1.148   2.552   4.429  0.1132 -0.4028  0.0534
20236TIP3    H182199   1.195   2.534   4.511 -1.3311 -0.9691  0.7825
20236TIP3    H282200   1.192   2.497   4.364  1.6192  0.4499  0.2914
20237TIP3   OH282201   4.601   2.498  11.800 -0.1570  0.0497  0.2465
20237TIP3    H182202   4.534   2.442  11.762  0.0827  0.4174 -0.7387
20237TIP3    H282203   4.677   2.440  11.811  0.6543  0.5036 -2.3455
20238TIP3   OH282204   4.290   2.551  11.712 -0.1928 -0.0005  0.1707
20238TIP3    H182205   4.219   2.577  11.654  0.8120 -0.1602 -1.1726
20238TIP3    H282206   4.272   2.597  11.794 -2.4171 -0.9033  0.2373
20239TIP3   OH282207   5.500   3.110   6.050 -0.3415 -0.1051  0.2353
20239TIP3    H182208   5.491   3.078   5.961  0.3889 -1.7640  0.7026
20239TIP3    H282209   5.590   3.142   6.055 -0.4792  0.2746  0.2894
20240TIP3   OH282210   0.978   4.657   0.113 -0.0030  0.0440  0.5732
20240TIP3    H182211   0.934   4.732   0.152  2.1691  2.7033 -1.6441
20240TIP3    H282212   1.067   4.660   0.150  1.1082  0.7071 -1.9381
20241TIP3   OH282213   1.301   5.486   4.365 -0.3749 -0.0004 -0.0166
20241TIP3    H182214   1.374   5.481   4.427  0.0194 -0.8075 -0.5289
20241TIP3    H282215   1.330   5.547   4.298  0.0935 -0.7896 -0.5446
20242TIP3   OH282216   1.612   5.133  10.546  0.5569 -0.7352  0.2422
20242TIP3    H182217   1.530   5.102  10.584 -0.1020  0.7851  0.1567
20242TIP3    H282218   1.681   5.097  10.602 -0.1099 -2.4323  0.0376
20243TIP3   OH282219   4.431   5.879  15.679 -0.5661 -0.5188 -0.1272
20243TIP3    H182220   4.448   5.788  15.701 -0.9736 -1.0020 -1.6423
20243TIP3    H282221   4.451   5.928  15.758  0.9267 -1.7888  0.3204
20244LIG     O182222   4.904   1.695  16.455 -0.0775  0.4924  0.0538
20244LIG     O282223   4.820   1.741  16.213 -0.2789  0.1499  0.3126
20244LIG     O382224   4.887   1.409  16.432  0.5340 -0.4111 -0.5478
20244LIG     O482225   4.850   1.770  15.986  0.2888  0.1490 -0.8779
20244LIG     O582226   5.022   1.537  16.202 -0.1057 -0.2702 -0.1427
20244LIG     O682227   5.041   1.420  15.938 -0.1644  0.1681  0.2263
20244LIG     O782228   5.082   1.641  15.745 -0.5170 -0.2000 -0.5052
20244LIG     O882229   4.952   1.899  15.664 -0.4395 -0.4503 -0.3969
20244LIG     O982230   4.744   1.846  15.740 -0.1460 -0.5563  0.1750
20244LIG      N82231   4.557   1.927  16.715  0.5049  0.0822  0.1108
20244LIG     C182232   4.739   1.843  16.530 -0.4494 -0.5851  0.0000
20244LIG     C282233   4.638   1.947  16.487  0.2112 -0.4443 -0.0725
20244LIG     C382234   4.865   1.835  16.443 -0.2702  0.3790  0.3423
20244LIG     C482235   4.516   1.912  16.576  0.0694  0.7732 -0.1245
20244LIG     C582236   4.790   1.846  16.677  0.4008 -0.0122  0.6984
20244LIG     C682237   4.682   1.705  16.521 -0.6526 -0.1937 -0.6387
20244LIG     C782238   4.459   1.770  16.545  0.1842 -0.1942  0.3034
20244LIG     C882239   4.672   1.837  16.771 -1.1294 -0.3446 -0.2791
20244LIG     C982240   4.831   1.861  16.290  0.6654  0.3648  0.5723
20244LIG    C1082241   4.553   1.657  16.527  0.1607  0.2181 -0.3820
20244LIG    C1182242   4.601   1.937  16.341  0.0998 -0.7853  0.1982
20244LIG    C1282243   4.784   1.623  16.474 -0.0893  0.2329  0.0725
20244LIG    C1382244   4.696   1.905  16.254 -0.2951 -0.1428  0.2433
20244LIG    C1482245   4.440   1.938  16.811  0.0468 -0.0696  0.0824
20244LIG    C1582246   4.536   1.522  16.497 -0.8392  0.0738  0.8950
20244LIG    C1682247   4.768   1.486  16.455  0.2705 -0.5106 -0.6124
20244LIG    C1782248   4.640   1.435  16.470 -0.1471 -0.6256 -0.1909
20244LIG    C1882249   4.915   1.730  16.105  0.2583  0.3176  0.3447
20244LIG    C1982250   4.950   1.587  16.087 -0.2951 -0.4072 -0.6969
20244LIG    C2082251   5.027   1.562  15.964  0.0873  0.5618  0.2828
20244LIG    C2182252   4.980   1.636  15.844  0.4372  0.1780 -0.1402
20244LIG    C2282253   4.942   1.786  15.878  0.7665 -0.0602  0.5231
20244LIG    C2382254   4.866   1.848  15.754 -0.6313 -0.1184 -0.1276
20244LIG     H182255   4.673   2.048  16.515  0.7962 -0.2113 -1.5621
20244LIG     H282256   4.945   1.898  16.486 -0.2638 -0.2423  1.2734
20244LIG     H382257   4.438   1.986  16.548 -0.7918  0.5627  1.5712
20244LIG     H482258   4.842   1.943  16.695 -0.4728  0.4965  0.5286
20244LIG     H582259   4.868   1.768  16.694  0.2838 -0.2419  0.2090
20244LIG     H682260   4.403   1.775  16.449 -2.0360 -0.3382  1.5214
20244LIG     H782261   4.385   1.738  16.621 -0.2594 -0.8630 -0.3883
20244LIG     H882262   4.626   1.736  16.781 -2.2073  0.2940  2.1069
20244LIG     H982263   4.709   1.882  16.866  2.9021  1.5098 -2.4889
20244LIG    H1082264   4.906   1.932  16.248  0.8797  0.8451  1.7344
20244LIG    H1182265   4.502   1.973  16.309  0.9619  0.2507 -1.4566
20244LIG    H1282266   4.666   1.890  16.149  0.3182 -1.5759  0.2460
20244LIG    H1382267   4.477   1.951  16.915  1.7006 -0.2996 -0.4537
20244LIG    H1482268   4.372   1.851  16.803  1.4826 -1.1945 -0.2811
20244LIG    H1582269   4.380   2.029  16.790  0.1126  0.2031  1.0321
20244LIG    H1682270   4.437   1.479  16.502 -0.3560 -1.2168 -0.0149
20244LIG    H1782271   4.632   1.329  16.453  3.0396 -1.3180  1.7371
20244LIG    H1882272   5.005   1.792  16.126  0.5958 -0.4298  1.1728
20244LIG    H1982273   4.855   1.531  16.075 -0.1439 -0.7616 -0.2450
20244LIG    H2082274   5.129   1.605  15.973 -0.6777  2.7782 -0.7460
20244LIG    H2182275   4.862   1.318  16.450 -1.0296 -0.6166 -3.1826
20244LIG    H2282276   4.885   1.588  15.814  0.4022  0.6403 -0.7913
20244LIG    H2382277   5.036   1.838  15.907  2.1470 -2.2049  0.1583
20244LIG    H2482278   4.957   1.518  16.270  0.0539  0.3025  0.1754
20244LIG    H2582279   5.044   1.374  16.023 -0.7163 -0.8095 -0.2645
20244LIG    H2682280   5.141   1.567  15.763  2.5072  1.8949 -0.9935
20244LIG    H2782281   4.908   1.899  15.579 -2.2884  0.2917  0.5161
   6.83125   6.83125  17.22835
